<LesHouchesEvents version="1.0">
<header>
<!--
#*********************************************************************
#                                                                    *
#                        MadGraph5_aMC@NLO                           *
#                                                                    *
#                           Going Beyond                             *
#                                                                    *
#                   http://madgraph.hep.uiuc.edu                     *
#                   http://madgraph.phys.ucl.ac.be                   *
#                   http://amcatnlo.cern.ch                          *
#                                                                    *
#                     The MadGraph5_aMC@NLO team                     *
#                                                                    *
#....................................................................*
#                                                                    *
# This file contains all the information necessary to reproduce      *
# the events generated:                                              *
#                                                                    *
# 1. software version                                                *
# 2. proc_card          : code generation info including model       *
# 3. param_card         : model primary parameters in the LH format  *
# 4. run_card           : running parameters (collider and cuts)     *
# 5. pythia_card        : present only if pythia has been run        *
# 6. pgs_card           : present only if pgs has been run           *
# 7. delphes_cards      : present only if delphes has been run       *
#                                                                    *
#                                                                    *
#*********************************************************************
-->
<MGVersion>
# MG    version    : 5.2.1.1
</MGVersion>
<MG5ProcCard>
#************************************************************
#*                     MadGraph5_aMC@NLO                    *
#*                                                          *
#*                *                       *                 *
#*                  *        * *        *                   *
#*                    * * * * 5 * * * *                     *
#*                  *        * *        *                   *
#*                *                       *                 *
#*                                                          *
#*                                                          *
#*         VERSION 2.1.1                 2014-03-31         *
#*                                                          *
#*    The MadGraph5_aMC@NLO Development Team - Find us at   *
#*    https://server06.fynu.ucl.ac.be/projects/madgraph     *
#*                                                          *
#************************************************************
#*                                                          *
#*               Command File for MadGraph5_aMC@NLO         *
#*                                                          *
#*     run as ./bin/mg5_aMC  filename                       *
#*                                                          *
#************************************************************
set group_subprocesses Auto
set ignore_six_quark_processes False
set gauge unitary
set complex_mass_scheme False
import model sm
define p = g u c d s u~ c~ d~ s~
define j = g u c d s u~ c~ d~ s~
define l+ = e+ mu+
define l- = e- mu-
define vl = ve vm vt
define vl~ = ve~ vm~ vt~
generate e+ e- > a a QED=99 QCD=99 @1
add process e+ e- > a a a QED=99 QCD=99 @2
output ../../twoandthreegamma
</MG5ProcCard>
<MGProcCard>
#*********************************************************************
#                        MadGraph/MadEvent                           *
#                   http://madgraph.hep.uiuc.edu                     *
#                                                                    *
#                          proc_card.dat                             *
#*********************************************************************
#                                                                    *
#            This Files is generated by MADGRAPH 5                   *
#                                                                    *
# WARNING: This Files is generated for MADEVENT (compatibility issue)*
#          This files is NOT a valid MG4 proc_card.dat               *
#          Running this in MG4 will NEVER reproduce the result of MG5*
#                                                                    *
#*********************************************************************
#*********************************************************************
# Process(es) requested : mg2 input                                  *
#*********************************************************************
# Begin PROCESS # This is TAG. Do not modify this line
e+ e- > a a @1           #Process
# Be carefull the coupling are here in MG5 convention
QED=99
QCD=99
end_coup           # End the couplings input
done               # this tells MG there are no more procs
# End PROCESS  # This is TAG. Do not modify this line
#*********************************************************************
# Model information                                                  *
#*********************************************************************
# Begin MODEL  # This is TAG. Do not modify this line
sm
# End   MODEL  # This is TAG. Do not modify this line
#*********************************************************************
# Start multiparticle definitions                                    *
#*********************************************************************
# Begin MULTIPARTICLES # This is TAG. Do not modify this line
# End  MULTIPARTICLES # This is TAG. Do not modify this line
</MGProcCard>
<slha>
######################################################################
## PARAM_CARD AUTOMATICALY GENERATED BY MG5 FOLLOWING UFO MODEL   ####
######################################################################
##                                                                  ##
##  Width set on Auto will be computed following the information    ##
##        present in the decay.py files of the model.               ##
##        See  arXiv:1402.1178 for more details.                    ##
##                                                                  ##
######################################################################
###################################
## INFORMATION FOR MASS
###################################
Block mass 
    5 4.700000e+00 # MB 
    6 1.730000e+02 # MT 
   15 1.777000e+00 # MTA 
   23 9.118800e+01 # MZ 
   25 1.250000e+02 # MH 
## Dependent parameters, given by model restrictions.
## Those values should be edited following the 
## analytical expression. MG5 ignores those values 
## but they are important for interfacing the output of MG5
## to external program such as Pythia.
  1 0.000000 # d : 0.0 
  2 0.000000 # u : 0.0 
  3 0.000000 # s : 0.0 
  4 0.000000 # c : 0.0 
  11 0.000000 # e- : 0.0 
  12 0.000000 # ve : 0.0 
  13 0.000000 # mu- : 0.0 
  14 0.000000 # vm : 0.0 
  16 0.000000 # vt : 0.0 
  21 0.000000 # g : 0.0 
  22 0.000000 # a : 0.0 
  24 80.419002 # w+ : cmath.sqrt(MZ__exp__2/2. + cmath.sqrt(MZ__exp__4/4. - (aEW*cmath.pi*MZ__exp__2)/(Gf*sqrt__2))) 
###################################
## INFORMATION FOR SMINPUTS
###################################
Block sminputs 
    1 1.325070e+02 # aEWM1 
    2 1.166390e-05 # Gf 
    3 1.180000e-01 # aS 
###################################
## INFORMATION FOR YUKAWA
###################################
Block yukawa 
    5 4.700000e+00 # ymb 
    6 1.730000e+02 # ymt 
   15 1.777000e+00 # ymtau 
###################################
## INFORMATION FOR DECAY
###################################
DECAY   6 1.491500e+00 # WT 
DECAY  23 2.441404e+00 # WZ 
DECAY  24 2.047600e+00 # WW 
DECAY  25 6.382339e-03 # WH 
## Dependent parameters, given by model restrictions.
## Those values should be edited following the 
## analytical expression. MG5 ignores those values 
## but they are important for interfacing the output of MG5
## to external program such as Pythia.
DECAY  1 0.000000 # d : 0.0 
DECAY  2 0.000000 # u : 0.0 
DECAY  3 0.000000 # s : 0.0 
DECAY  4 0.000000 # c : 0.0 
DECAY  5 0.000000 # b : 0.0 
DECAY  11 0.000000 # e- : 0.0 
DECAY  12 0.000000 # ve : 0.0 
DECAY  13 0.000000 # mu- : 0.0 
DECAY  14 0.000000 # vm : 0.0 
DECAY  15 0.000000 # ta- : 0.0 
DECAY  16 0.000000 # vt : 0.0 
DECAY  21 0.000000 # g : 0.0 
DECAY  22 0.000000 # a : 0.0 
</slha>
<MGRunCard>
#*********************************************************************
#                       MadGraph5_aMC@NLO                            *
#                                                                    *
#                     run_card.dat MadEvent                          *
#                                                                    *
#  This file is used to set the parameters of the run.               *
#                                                                    *
#  Some notation/conventions:                                        *
#                                                                    *
#   Lines starting with a '# ' are info or comments                  *
#                                                                    *
#   mind the format:   value    = variable     ! comment             *
#*********************************************************************
#
#*******************                                                 
# Running parameters
#*******************                                                 
#                                                                    
#*********************************************************************
# Tag name for the run (one word)                                    *
#*********************************************************************
  tag_1     = run_tag ! name of the run 
#*********************************************************************
# Run to generate the grid pack                                      *
#*********************************************************************
  .false.     = gridpack  !True = setting up the grid pack
#*********************************************************************
# Number of events and rnd seed                                      *
# Warning: Do not generate more than 1M events in a single run       *
# If you want to run Pythia, avoid more than 50k events in a run.    *
#*********************************************************************
  1000 = nevents ! Number of unweighted events requested 
      75 = iseed   ! rnd seed (0=assigned automatically=default))
#*********************************************************************
# Collider type and energy                                           *
# lpp: 0=No PDF, 1=proton, -1=antiproton, 2=photon from proton,      *
#                                         3=photon from electron     *
#*********************************************************************
        0     = lpp1    ! beam 1 type 
        -0     = lpp2    ! beam 2 type
     6500     = ebeam1  ! beam 1 total energy in GeV
     6500     = ebeam2  ! beam 2 total energy in GeV
#*********************************************************************
# Beam polarization from -100 (left-handed) to 100 (right-handed)    *
#*********************************************************************
        0     = polbeam1 ! beam polarization for beam 1
        0     = polbeam2 ! beam polarization for beam 2
#*********************************************************************
# PDF CHOICE: this automatically fixes also alpha_s and its evol.    *
#*********************************************************************
 'cteq6l1'    = pdlabel     ! PDF set (lhapdf for using lhapdf)
  10042        = lhaid      ! PDF number used ONLY for LHAPDF
#*********************************************************************
# Renormalization and factorization scales                           *
#*********************************************************************
 F        = fixed_ren_scale  ! if .true. use fixed ren scale
 F        = fixed_fac_scale  ! if .true. use fixed fac scale
 91.1880  = scale            ! fixed ren scale
 91.1880  = dsqrt_q2fact1    ! fixed fact scale for pdf1
 91.1880  = dsqrt_q2fact2    ! fixed fact scale for pdf2
 1        = scalefact        ! scale factor for event-by-event scales
#*********************************************************************
# Matching - Warning! ickkw > 1 is still beta
#*********************************************************************
 0        = ickkw            ! 0 no matching, 1 MLM, 2 CKKW matching
 1        = highestmult      ! for ickkw=2, highest mult group
 1        = ktscheme         ! for ickkw=1, 1 Durham kT, 2 Pythia pTE
 1        = alpsfact         ! scale factor for QCD emission vx
 F        = chcluster        ! cluster only according to channel diag
 T        = pdfwgt           ! for ickkw=1, perform pdf reweighting
 5        = asrwgtflavor     ! highest quark flavor for a_s reweight
 T        = clusinfo         ! include clustering tag in output
#*********************************************************************
#**********************************************************
#
#**********************************************************
# Automatic ptj and mjj cuts if xqcut > 0
# (turn off for VBF and single top processes)
#**********************************************************
   T  = auto_ptj_mjj  ! Automatic setting of ptj and mjj
#**********************************************************
#                                                                    
#**********************************
# BW cutoff (M+/-bwcutoff*Gamma)
#**********************************
  15  = bwcutoff      ! (M+/-bwcutoff*Gamma)
#**********************************************************
# Apply pt/E/eta/dr/mij cuts on decay products or not
# (note that etmiss/ptll/ptheavy/ht/sorted cuts always apply)
#**********************************************************
   T  = cut_decays    ! Cut decay products 
#*************************************************************
# Number of helicities to sum per event (0 = all helicities)
# 0 gives more stable result, but longer run time (needed for
# long decay chains e.g.).
# Use >=2 if most helicities contribute, e.g. pure QCD.
#*************************************************************
   0  = nhel          ! Number of helicities used per event
#*******************                                                 
# Standard Cuts
#*******************                                                 
#                                                                    
#*********************************************************************
# Minimum and maximum pt's (for max, -1 means no cut)                *
#*********************************************************************
 20  = ptj       ! minimum pt for the jets 
  0  = ptb       ! minimum pt for the b 
 10  = pta       ! minimum pt for the photons 
 10  = ptl       ! minimum pt for the charged leptons 
  0  = misset    ! minimum missing Et (sum of neutrino's momenta)
  0  = ptheavy   ! minimum pt for one heavy final state
 1.0 = ptonium   ! minimum pt for the quarkonium states
 -1  = ptjmax    ! maximum pt for the jets
 -1  = ptbmax    ! maximum pt for the b
 -1  = ptamax    ! maximum pt for the photons
 -1  = ptlmax    ! maximum pt for the charged leptons
 -1  = missetmax ! maximum missing Et (sum of neutrino's momenta)
#*********************************************************************
# Minimum and maximum E's (in the center of mass frame)              *
#*********************************************************************
  0  = ej     ! minimum E for the jets 
  0  = eb     ! minimum E for the b 
  0  = ea     ! minimum E for the photons 
  0  = el     ! minimum E for the charged leptons 
 -1   = ejmax ! maximum E for the jets
 -1   = ebmax ! maximum E for the b
 -1   = eamax ! maximum E for the photons
 -1   = elmax ! maximum E for the charged leptons
#*********************************************************************
# Maximum and minimum absolute rapidity (for max, -1 means no cut)   *
#*********************************************************************
   5  = etaj    ! max rap for the jets 
  -1  = etab    ! max rap for the b
 2.5  = etaa    ! max rap for the photons 
 2.5  = etal    ! max rap for the charged leptons 
 0.6  = etaonium ! max rap for the quarkonium states
   0  = etajmin ! min rap for the jets
   0  = etabmin ! min rap for the b
   0  = etaamin ! min rap for the photons
   0  = etalmin ! main rap for the charged leptons
#*********************************************************************
# Minimum and maximum DeltaR distance                                *
#*********************************************************************
 0.4 = drjj    ! min distance between jets 
 0   = drbb    ! min distance between b's 
 0.4 = drll    ! min distance between leptons 
 0.4 = draa    ! min distance between gammas 
 0   = drbj    ! min distance between b and jet 
 0.4 = draj    ! min distance between gamma and jet 
 0.4 = drjl    ! min distance between jet and lepton 
 0   = drab    ! min distance between gamma and b 
 0   = drbl    ! min distance between b and lepton 
 0.4 = dral    ! min distance between gamma and lepton 
 -1  = drjjmax ! max distance between jets
 -1  = drbbmax ! max distance between b's
 -1  = drllmax ! max distance between leptons
 -1  = draamax ! max distance between gammas
 -1  = drbjmax ! max distance between b and jet
 -1  = drajmax ! max distance between gamma and jet
 -1  = drjlmax ! max distance between jet and lepton
 -1  = drabmax ! max distance between gamma and b
 -1  = drblmax ! max distance between b and lepton
 -1  = dralmax ! maxdistance between gamma and lepton
#*********************************************************************
# Minimum and maximum invariant mass for pairs                       *
# WARNING: for four lepton final state mmll cut require to have      *
#          different lepton masses for each flavor!                  *           
#*********************************************************************
 0   = mmjj    ! min invariant mass of a jet pair 
 0   = mmbb    ! min invariant mass of a b pair 
 0   = mmaa    ! min invariant mass of gamma gamma pair
 0   = mmll    ! min invariant mass of l+l- (same flavour) lepton pair
 -1  = mmjjmax ! max invariant mass of a jet pair
 -1  = mmbbmax ! max invariant mass of a b pair
 -1  = mmaamax ! max invariant mass of gamma gamma pair
 -1  = mmllmax ! max invariant mass of l+l- (same flavour) lepton pair
#*********************************************************************
# Minimum and maximum invariant mass for all letpons                 *
#*********************************************************************
 0   = mmnl    ! min invariant mass for all letpons (l+- and vl) 
 -1  = mmnlmax ! max invariant mass for all letpons (l+- and vl) 
#*********************************************************************
# Minimum and maximum pt for 4-momenta sum of leptons                *
#*********************************************************************
 0   = ptllmin  ! Minimum pt for 4-momenta sum of leptons(l and vl)
 -1  = ptllmax  ! Maximum pt for 4-momenta sum of leptons(l and vl)
#*********************************************************************
# Inclusive cuts                                                     *
#*********************************************************************
 0  = xptj ! minimum pt for at least one jet  
 0  = xptb ! minimum pt for at least one b 
 0  = xpta ! minimum pt for at least one photon 
 0  = xptl ! minimum pt for at least one charged lepton 
#*********************************************************************
# Control the pt's of the jets sorted by pt                          *
#*********************************************************************
 0   = ptj1min ! minimum pt for the leading jet in pt
 0   = ptj2min ! minimum pt for the second jet in pt
 0   = ptj3min ! minimum pt for the third jet in pt
 0   = ptj4min ! minimum pt for the fourth jet in pt
 -1  = ptj1max ! maximum pt for the leading jet in pt 
 -1  = ptj2max ! maximum pt for the second jet in pt
 -1  = ptj3max ! maximum pt for the third jet in pt
 -1  = ptj4max ! maximum pt for the fourth jet in pt
 0   = cutuse  ! reject event if fails any (0) / all (1) jet pt cuts
#*********************************************************************
# Control the pt's of leptons sorted by pt                           *
#*********************************************************************
 0   = ptl1min ! minimum pt for the leading lepton in pt
 0   = ptl2min ! minimum pt for the second lepton in pt
 0   = ptl3min ! minimum pt for the third lepton in pt
 0   = ptl4min ! minimum pt for the fourth lepton in pt
 -1  = ptl1max ! maximum pt for the leading lepton in pt 
 -1  = ptl2max ! maximum pt for the second lepton in pt
 -1  = ptl3max ! maximum pt for the third lepton in pt
 -1  = ptl4max ! maximum pt for the fourth lepton in pt
#*********************************************************************
# Control the Ht(k)=Sum of k leading jets                            *
#*********************************************************************
 0   = htjmin ! minimum jet HT=Sum(jet pt)
 -1  = htjmax ! maximum jet HT=Sum(jet pt)
 0   = ihtmin  !inclusive Ht for all partons (including b)
 -1  = ihtmax  !inclusive Ht for all partons (including b)
 0   = ht2min ! minimum Ht for the two leading jets
 0   = ht3min ! minimum Ht for the three leading jets
 0   = ht4min ! minimum Ht for the four leading jets
 -1  = ht2max ! maximum Ht for the two leading jets
 -1  = ht3max ! maximum Ht for the three leading jets
 -1  = ht4max ! maximum Ht for the four leading jets
#***********************************************************************
# Photon-isolation cuts, according to hep-ph/9801442                   *
# When ptgmin=0, all the other parameters are ignored                  *
# When ptgmin>0, pta and draj are not going to be used                 *
#***********************************************************************
   0 = ptgmin ! Min photon transverse momentum
 0.4 = R0gamma ! Radius of isolation code
 1.0 = xn ! n parameter of eq.(3.4) in hep-ph/9801442
 1.0 = epsgamma ! epsilon_gamma parameter of eq.(3.4) in hep-ph/9801442
 .true. = isoEM ! isolate photons from EM energy (photons and leptons)
#*********************************************************************
# WBF cuts                                                           *
#*********************************************************************
 0   = xetamin ! minimum rapidity for two jets in the WBF case  
 0   = deltaeta ! minimum rapidity for two jets in the WBF case 
#*********************************************************************
# KT DURHAM CUT                                                      *
#*********************************************************************
 -1    =  ktdurham        
 0.4  =  dparameter 
#*********************************************************************
# maximal pdg code for quark to be considered as a light jet         *
# (otherwise b cuts are applied)                                     *
#*********************************************************************
 4 = maxjetflavor    ! Maximum jet pdg code
#*********************************************************************
# Jet measure cuts                                                   *
#*********************************************************************
 0   = xqcut   ! minimum kt jet measure between partons
#*********************************************************************
#
#*********************************************************************
# Store info for systematics studies                                 *
# WARNING: If use_syst is T, matched Pythia output is                *
#          meaningful ONLY if plotted taking matchscale              *
#          reweighting into account!                                 *
#*********************************************************************
   F  = use_syst      ! Enable systematics studies
#
#**************************************
# Parameter of the systematics study
#  will be used by SysCalc (if installed)
#**************************************                                  
#
0.5 1 2 = sys_scalefact  # factorization/renormalization scale factor
0.5 1 2 = sys_alpsfact  # \alpha_s emission scale factors
30 50 = sys_matchscale # variation of merging scale
# PDF sets and number of members (0 or none for all members).
CT10nlo.LHgrid = sys_pdf # matching scales
# MSTW2008nlo68cl.LHgrid 1  = sys_pdf
</MGRunCard>
<MGGenerationInfo>
#  Number of Events        :        1000
#  Integrated weight (pb)  :  .36717E-02
#  Truncated wgt (pb)      :  .10251E-06
#  Unit wgt                :  .36717E-05
</MGGenerationInfo>
</header>
<init>
      -11       11  0.65000000000E+04  0.65000000000E+04 0 0       0       0 3   2
  0.36567156400E-03  0.87573145861E-06  0.36717000000E-05   2
  0.33060140640E-02  0.79174341225E-05  0.36717000000E-05   1
</init>
<event>
 4   1  0.3671700E-05  0.8062258E+02  0.7546771E-02  0.1202337E+00
      -11   -1    0    0    0    0  0.00000000000E+00  0.00000000000E+00  0.65000000000E+04  0.65000000000E+04  0.00000000000E+00 0.  1.
       11   -1    0    0    0    0 -0.00000000000E+00 -0.00000000000E+00 -0.65000000000E+04  0.65000000000E+04  0.00000000000E+00 0. -1.
       22    1    1    2    0    0  0.50695423426E+03 -0.21901671138E+04  0.60988659124E+04  0.65000000000E+04  0.00000000000E+00 0.  1.
       22    1    1    2    0    0 -0.50695423426E+03  0.21901671138E+04 -0.60988659124E+04  0.65000000000E+04  0.00000000000E+00 0. -1.
</event>
<event>
 4   1  0.3671700E-05  0.8062258E+02  0.7546771E-02  0.1202337E+00
      -11   -1    0    0    0    0  0.00000000000E+00  0.00000000000E+00  0.65000000000E+04  0.65000000000E+04  0.00000000000E+00 0. -1.
       11   -1    0    0    0    0 -0.00000000000E+00 -0.00000000000E+00 -0.65000000000E+04  0.65000000000E+04  0.00000000000E+00 0.  1.
       22    1    1    2    0    0 -0.95841200803E+03 -0.19082761100E+04  0.61392123852E+04  0.65000000000E+04  0.00000000000E+00 0. -1.
       22    1    1    2    0    0  0.95841200803E+03  0.19082761100E+04 -0.61392123852E+04  0.65000000000E+04  0.00000000000E+00 0.  1.
</event>
<event>
 4   1  0.3671700E-05  0.8062258E+02  0.7546771E-02  0.1202337E+00
      -11   -1    0    0    0    0  0.00000000000E+00  0.00000000000E+00  0.65000000000E+04  0.65000000000E+04  0.00000000000E+00 0. -1.
       11   -1    0    0    0    0 -0.00000000000E+00 -0.00000000000E+00 -0.65000000000E+04  0.65000000000E+04  0.00000000000E+00 0.  1.
       22    1    1    2    0    0  0.46277964637E+04 -0.37566399215E+04 -0.25925193135E+04  0.65000000000E+04  0.00000000000E+00 0.  1.
       22    1    1    2    0    0 -0.46277964637E+04  0.37566399215E+04  0.25925193135E+04  0.65000000000E+04  0.00000000000E+00 0. -1.
</event>
<event>
 4   1  0.3671700E-05  0.8062258E+02  0.7546771E-02  0.1202337E+00
      -11   -1    0    0    0    0  0.00000000000E+00  0.00000000000E+00  0.65000000000E+04  0.65000000000E+04  0.00000000000E+00 0. -1.
       11   -1    0    0    0    0 -0.00000000000E+00 -0.00000000000E+00 -0.65000000000E+04  0.65000000000E+04  0.00000000000E+00 0.  1.
       22    1    1    2    0    0 -0.18468002422E+04  0.52847521398E+03 -0.62096733258E+04  0.65000000000E+04  0.00000000000E+00 0.  1.
       22    1    1    2    0    0  0.18468002422E+04 -0.52847521398E+03  0.62096733258E+04  0.65000000000E+04  0.00000000000E+00 0. -1.
</event>
<event>
 4   1  0.3671700E-05  0.8062258E+02  0.7546771E-02  0.1202337E+00
      -11   -1    0    0    0    0  0.00000000000E+00  0.00000000000E+00  0.65000000000E+04  0.65000000000E+04  0.00000000000E+00 0. -1.
       11   -1    0    0    0    0 -0.00000000000E+00 -0.00000000000E+00 -0.65000000000E+04  0.65000000000E+04  0.00000000000E+00 0.  1.
       22    1    1    2    0    0 -0.24324356009E+03 -0.37928761702E+04 -0.52730373532E+04  0.65000000000E+04  0.00000000000E+00 0.  1.
       22    1    1    2    0    0  0.24324356009E+03  0.37928761702E+04  0.52730373532E+04  0.65000000000E+04  0.00000000000E+00 0. -1.
</event>
<event>
 5   2  0.3671700E-05  0.7990643E+02  0.7546771E-02  0.1203989E+00
      -11   -1    0    0    0    0  0.00000000000E+00  0.00000000000E+00  0.65000000000E+04  0.65000000000E+04  0.00000000000E+00 0.  1.
       11   -1    0    0    0    0 -0.00000000000E+00 -0.00000000000E+00 -0.65000000000E+04  0.65000000000E+04  0.00000000000E+00 0. -1.
       22    1    1    2    0    0 -0.36744522800E+04  0.44314201854E+04 -0.26133061568E+04  0.63220608576E+04  0.00000000000E+00 0. -1.
       22    1    1    2    0    0 -0.41501234160E+02  0.12222048653E+02 -0.22374588506E+03  0.22789021917E+03  0.00000000000E+00 0. -1.
       22    1    1    2    0    0  0.37159535142E+04 -0.44436422341E+04  0.28370520419E+04  0.64500489232E+04  0.00000000000E+00 0.  1.
</event>
<event>
 4   1  0.3671700E-05  0.8062258E+02  0.7546771E-02  0.1202337E+00
      -11   -1    0    0    0    0  0.00000000000E+00  0.00000000000E+00  0.65000000000E+04  0.65000000000E+04  0.00000000000E+00 0. -1.
       11   -1    0    0    0    0 -0.00000000000E+00 -0.00000000000E+00 -0.65000000000E+04  0.65000000000E+04  0.00000000000E+00 0.  1.
       22    1    1    2    0    0  0.29084221114E+04  0.23111653175E+04  0.53338162414E+04  0.65000000000E+04  0.00000000000E+00 0. -1.
       22    1    1    2    0    0 -0.29084221114E+04 -0.23111653175E+04 -0.53338162414E+04  0.65000000000E+04  0.00000000000E+00 0.  1.
</event>
<event>
 4   1  0.3671700E-05  0.8062258E+02  0.7546771E-02  0.1202337E+00
      -11   -1    0    0    0    0  0.00000000000E+00  0.00000000000E+00  0.65000000000E+04  0.65000000000E+04  0.00000000000E+00 0.  1.
       11   -1    0    0    0    0 -0.00000000000E+00 -0.00000000000E+00 -0.65000000000E+04  0.65000000000E+04  0.00000000000E+00 0. -1.
       22    1    1    2    0    0  0.46972999641E+03 -0.14545521752E+04  0.63177236169E+04  0.65000000000E+04  0.00000000000E+00 0.  1.
       22    1    1    2    0    0 -0.46972999641E+03  0.14545521752E+04 -0.63177236169E+04  0.65000000000E+04  0.00000000000E+00 0. -1.
</event>
<event>
 4   1  0.3671700E-05  0.8062258E+02  0.7546771E-02  0.1202337E+00
      -11   -1    0    0    0    0  0.00000000000E+00  0.00000000000E+00  0.65000000000E+04  0.65000000000E+04  0.00000000000E+00 0. -1.
       11   -1    0    0    0    0 -0.00000000000E+00 -0.00000000000E+00 -0.65000000000E+04  0.65000000000E+04  0.00000000000E+00 0.  1.
       22    1    1    2    0    0 -0.10098819933E+04  0.12468875316E+04  0.62988419446E+04  0.65000000000E+04  0.00000000000E+00 0. -1.
       22    1    1    2    0    0  0.10098819933E+04 -0.12468875316E+04 -0.62988419446E+04  0.65000000000E+04  0.00000000000E+00 0.  1.
</event>
<event>
 4   1  0.3671700E-05  0.8062258E+02  0.7546771E-02  0.1202337E+00
      -11   -1    0    0    0    0  0.00000000000E+00  0.00000000000E+00  0.65000000000E+04  0.65000000000E+04  0.00000000000E+00 0. -1.
       11   -1    0    0    0    0 -0.00000000000E+00 -0.00000000000E+00 -0.65000000000E+04  0.65000000000E+04  0.00000000000E+00 0.  1.
       22    1    1    2    0    0  0.13744715801E+04 -0.34132634298E+03  0.63438414390E+04  0.65000000000E+04  0.00000000000E+00 0. -1.
       22    1    1    2    0    0 -0.13744715801E+04  0.34132634298E+03 -0.63438414390E+04  0.65000000000E+04  0.00000000000E+00 0.  1.
</event>
<event>
 4   1  0.3671700E-05  0.8062258E+02  0.7546771E-02  0.1202337E+00
      -11   -1    0    0    0    0  0.00000000000E+00  0.00000000000E+00  0.65000000000E+04  0.65000000000E+04  0.00000000000E+00 0.  1.
       11   -1    0    0    0    0 -0.00000000000E+00 -0.00000000000E+00 -0.65000000000E+04  0.65000000000E+04  0.00000000000E+00 0. -1.
       22    1    1    2    0    0 -0.21157472634E+04 -0.60679405000E+04 -0.97658159214E+03  0.65000000000E+04  0.00000000000E+00 0. -1.
       22    1    1    2    0    0  0.21157472634E+04  0.60679405000E+04  0.97658159214E+03  0.65000000000E+04  0.00000000000E+00 0.  1.
</event>
<event>
 4   1  0.3671700E-05  0.8062258E+02  0.7546771E-02  0.1202337E+00
      -11   -1    0    0    0    0  0.00000000000E+00  0.00000000000E+00  0.65000000000E+04  0.65000000000E+04  0.00000000000E+00 0.  1.
       11   -1    0    0    0    0 -0.00000000000E+00 -0.00000000000E+00 -0.65000000000E+04  0.65000000000E+04  0.00000000000E+00 0. -1.
       22    1    1    2    0    0 -0.12714399841E+04 -0.17432479050E+04  0.61314376054E+04  0.65000000000E+04  0.00000000000E+00 0.  1.
       22    1    1    2    0    0  0.12714399841E+04  0.17432479050E+04 -0.61314376054E+04  0.65000000000E+04  0.00000000000E+00 0. -1.
</event>
<event>
 4   1  0.3671700E-05  0.8062258E+02  0.7546771E-02  0.1202337E+00
      -11   -1    0    0    0    0  0.00000000000E+00  0.00000000000E+00  0.65000000000E+04  0.65000000000E+04  0.00000000000E+00 0.  1.
       11   -1    0    0    0    0 -0.00000000000E+00 -0.00000000000E+00 -0.65000000000E+04  0.65000000000E+04  0.00000000000E+00 0. -1.
       22    1    1    2    0    0 -0.23030472598E+04 -0.29741426643E+04 -0.53009856377E+04  0.65000000000E+04  0.00000000000E+00 0. -1.
       22    1    1    2    0    0  0.23030472598E+04  0.29741426643E+04  0.53009856377E+04  0.65000000000E+04  0.00000000000E+00 0.  1.
</event>
<event>
 4   1  0.3671700E-05  0.8062258E+02  0.7546771E-02  0.1202337E+00
      -11   -1    0    0    0    0  0.00000000000E+00  0.00000000000E+00  0.65000000000E+04  0.65000000000E+04  0.00000000000E+00 0.  1.
       11   -1    0    0    0    0 -0.00000000000E+00 -0.00000000000E+00 -0.65000000000E+04  0.65000000000E+04  0.00000000000E+00 0. -1.
       22    1    1    2    0    0 -0.48002942508E+04  0.40920811049E+04  0.15690912456E+04  0.65000000000E+04  0.00000000000E+00 0. -1.
       22    1    1    2    0    0  0.48002942508E+04 -0.40920811049E+04 -0.15690912456E+04  0.65000000000E+04  0.00000000000E+00 0.  1.
</event>
<event>
 4   1  0.3671700E-05  0.8062258E+02  0.7546771E-02  0.1202337E+00
      -11   -1    0    0    0    0  0.00000000000E+00  0.00000000000E+00  0.65000000000E+04  0.65000000000E+04  0.00000000000E+00 0. -1.
       11   -1    0    0    0    0 -0.00000000000E+00 -0.00000000000E+00 -0.65000000000E+04  0.65000000000E+04  0.00000000000E+00 0.  1.
       22    1    1    2    0    0 -0.31441201531E+03  0.61477586357E+04 -0.20871532866E+04  0.65000000000E+04  0.00000000000E+00 0.  1.
       22    1    1    2    0    0  0.31441201531E+03 -0.61477586357E+04  0.20871532866E+04  0.65000000000E+04  0.00000000000E+00 0. -1.
</event>
<event>
 5   2  0.3671700E-05  0.7769056E+02  0.7546771E-02  0.1209227E+00
      -11   -1    0    0    0    0  0.00000000000E+00  0.00000000000E+00  0.65000000000E+04  0.65000000000E+04  0.00000000000E+00 0.  1.
       11   -1    0    0    0    0 -0.00000000000E+00 -0.00000000000E+00 -0.65000000000E+04  0.65000000000E+04  0.00000000000E+00 0. -1.
       22    1    1    2    0    0 -0.17305817156E+03  0.74882249371E+02  0.87512222706E+03  0.89520690028E+03  0.00000000000E+00 0.  1.
       22    1    1    2    0    0  0.33785005904E+04 -0.28383163802E+04 -0.46667670410E+04  0.64225400527E+04  0.00000000000E+00 0. -1.
       22    1    1    2    0    0 -0.32054424188E+04  0.27634341308E+04  0.37916448139E+04  0.56822530471E+04  0.00000000000E+00 0.  1.
</event>
<event>
 4   1  0.3671700E-05  0.8062258E+02  0.7546771E-02  0.1202337E+00
      -11   -1    0    0    0    0  0.00000000000E+00  0.00000000000E+00  0.65000000000E+04  0.65000000000E+04  0.00000000000E+00 0.  1.
       11   -1    0    0    0    0 -0.00000000000E+00 -0.00000000000E+00 -0.65000000000E+04  0.65000000000E+04  0.00000000000E+00 0. -1.
       22    1    1    2    0    0 -0.62996469328E+03  0.11110292527E+04 -0.63732847484E+04  0.65000000000E+04  0.00000000000E+00 0. -1.
       22    1    1    2    0    0  0.62996469328E+03 -0.11110292527E+04  0.63732847484E+04  0.65000000000E+04  0.00000000000E+00 0.  1.
</event>
<event>
 5   2  0.3671700E-05  0.7907023E+02  0.7546771E-02  0.1205943E+00
      -11   -1    0    0    0    0  0.00000000000E+00  0.00000000000E+00  0.65000000000E+04  0.65000000000E+04  0.00000000000E+00 0. -1.
       11   -1    0    0    0    0 -0.00000000000E+00 -0.00000000000E+00 -0.65000000000E+04  0.65000000000E+04  0.00000000000E+00 0.  1.
       22    1    1    2    0    0 -0.36928465784E+04 -0.10395468877E+04  0.49823521878E+04  0.62882117416E+04  0.00000000000E+00 0. -1.
       22    1    1    2    0    0 -0.33817881016E+03  0.12063889082E+03 -0.32804318421E+03  0.48634450786E+03  0.00000000000E+00 0.  1.
       22    1    1    2    0    0  0.40310253886E+04  0.91890799687E+03 -0.46543090036E+04  0.62254437506E+04  0.00000000000E+00 0.  1.
</event>
<event>
 4   1  0.3671700E-05  0.8062258E+02  0.7546771E-02  0.1202337E+00
      -11   -1    0    0    0    0  0.00000000000E+00  0.00000000000E+00  0.65000000000E+04  0.65000000000E+04  0.00000000000E+00 0. -1.
       11   -1    0    0    0    0 -0.00000000000E+00 -0.00000000000E+00 -0.65000000000E+04  0.65000000000E+04  0.00000000000E+00 0.  1.
       22    1    1    2    0    0 -0.10948278707E+04 -0.22325406306E+03  0.64032421129E+04  0.65000000000E+04  0.00000000000E+00 0. -1.
       22    1    1    2    0    0  0.10948278707E+04  0.22325406306E+03 -0.64032421129E+04  0.65000000000E+04  0.00000000000E+00 0.  1.
</event>
<event>
 4   1  0.3671700E-05  0.8062258E+02  0.7546771E-02  0.1202337E+00
      -11   -1    0    0    0    0  0.00000000000E+00  0.00000000000E+00  0.65000000000E+04  0.65000000000E+04  0.00000000000E+00 0.  1.
       11   -1    0    0    0    0 -0.00000000000E+00 -0.00000000000E+00 -0.65000000000E+04  0.65000000000E+04  0.00000000000E+00 0. -1.
       22    1    1    2    0    0  0.76954684068E+03 -0.11737577408E+04  0.63466597849E+04  0.65000000000E+04  0.00000000000E+00 0.  1.
       22    1    1    2    0    0 -0.76954684068E+03  0.11737577408E+04 -0.63466597849E+04  0.65000000000E+04  0.00000000000E+00 0. -1.
</event>
<event>
 5   2  0.3671700E-05  0.6347879E+02  0.7546771E-02  0.1248272E+00
      -11   -1    0    0    0    0  0.00000000000E+00  0.00000000000E+00  0.65000000000E+04  0.65000000000E+04  0.00000000000E+00 0. -1.
       11   -1    0    0    0    0 -0.00000000000E+00 -0.00000000000E+00 -0.65000000000E+04  0.65000000000E+04  0.00000000000E+00 0.  1.
       22    1    1    2    0    0  0.15099477568E+04  0.47064928558E+03  0.36761598913E+04  0.40019500902E+04  0.00000000000E+00 0. -1.
       22    1    1    2    0    0 -0.47305361260E+04 -0.73934259392E+03 -0.12258845075E+04  0.49424075446E+04  0.00000000000E+00 0.  1.
       22    1    1    2    0    0  0.32205883692E+04  0.26869330833E+03 -0.24502753838E+04  0.40556423652E+04  0.00000000000E+00 0. -1.
</event>
<event>
 4   1  0.3671700E-05  0.8062258E+02  0.7546771E-02  0.1202337E+00
      -11   -1    0    0    0    0  0.00000000000E+00  0.00000000000E+00  0.65000000000E+04  0.65000000000E+04  0.00000000000E+00 0. -1.
       11   -1    0    0    0    0 -0.00000000000E+00 -0.00000000000E+00 -0.65000000000E+04  0.65000000000E+04  0.00000000000E+00 0.  1.
       22    1    1    2    0    0  0.19087580217E+04 -0.21695052645E+04 -0.58223611810E+04  0.65000000000E+04  0.00000000000E+00 0.  1.
       22    1    1    2    0    0 -0.19087580217E+04  0.21695052645E+04  0.58223611810E+04  0.65000000000E+04  0.00000000000E+00 0. -1.
</event>
<event>
 4   1  0.3671700E-05  0.8062258E+02  0.7546771E-02  0.1202337E+00
      -11   -1    0    0    0    0  0.00000000000E+00  0.00000000000E+00  0.65000000000E+04  0.65000000000E+04  0.00000000000E+00 0. -1.
       11   -1    0    0    0    0 -0.00000000000E+00 -0.00000000000E+00 -0.65000000000E+04  0.65000000000E+04  0.00000000000E+00 0.  1.
       22    1    1    2    0    0 -0.25412029727E+04  0.73492341286E+03  0.59373542112E+04  0.65000000000E+04  0.00000000000E+00 0. -1.
       22    1    1    2    0    0  0.25412029727E+04 -0.73492341286E+03 -0.59373542112E+04  0.65000000000E+04  0.00000000000E+00 0.  1.
</event>
<event>
 4   1  0.3671700E-05  0.8062258E+02  0.7546771E-02  0.1202337E+00
      -11   -1    0    0    0    0  0.00000000000E+00  0.00000000000E+00  0.65000000000E+04  0.65000000000E+04  0.00000000000E+00 0. -1.
       11   -1    0    0    0    0 -0.00000000000E+00 -0.00000000000E+00 -0.65000000000E+04  0.65000000000E+04  0.00000000000E+00 0.  1.
       22    1    1    2    0    0  0.14249972574E+04 -0.15444555202E+04 -0.61509381368E+04  0.65000000000E+04  0.00000000000E+00 0.  1.
       22    1    1    2    0    0 -0.14249972574E+04  0.15444555202E+04  0.61509381368E+04  0.65000000000E+04  0.00000000000E+00 0. -1.
</event>
<event>
 4   1  0.3671700E-05  0.8062258E+02  0.7546771E-02  0.1202337E+00
      -11   -1    0    0    0    0  0.00000000000E+00  0.00000000000E+00  0.65000000000E+04  0.65000000000E+04  0.00000000000E+00 0. -1.
       11   -1    0    0    0    0 -0.00000000000E+00 -0.00000000000E+00 -0.65000000000E+04  0.65000000000E+04  0.00000000000E+00 0.  1.
       22    1    1    2    0    0  0.53029678277E+04 -0.20545612596E+04 -0.31475880050E+04  0.65000000000E+04  0.00000000000E+00 0.  1.
       22    1    1    2    0    0 -0.53029678277E+04  0.20545612596E+04  0.31475880050E+04  0.65000000000E+04  0.00000000000E+00 0. -1.
</event>
<event>
 4   1  0.3671700E-05  0.8062258E+02  0.7546771E-02  0.1202337E+00
      -11   -1    0    0    0    0  0.00000000000E+00  0.00000000000E+00  0.65000000000E+04  0.65000000000E+04  0.00000000000E+00 0.  1.
       11   -1    0    0    0    0 -0.00000000000E+00 -0.00000000000E+00 -0.65000000000E+04  0.65000000000E+04  0.00000000000E+00 0. -1.
       22    1    1    2    0    0  0.40916048295E+04 -0.44179253385E+04  0.24475918008E+04  0.65000000000E+04  0.00000000000E+00 0. -1.
       22    1    1    2    0    0 -0.40916048295E+04  0.44179253385E+04 -0.24475918008E+04  0.65000000000E+04  0.00000000000E+00 0.  1.
</event>
<event>
 4   1  0.3671700E-05  0.8062258E+02  0.7546771E-02  0.1202337E+00
      -11   -1    0    0    0    0  0.00000000000E+00  0.00000000000E+00  0.65000000000E+04  0.65000000000E+04  0.00000000000E+00 0. -1.
       11   -1    0    0    0    0 -0.00000000000E+00 -0.00000000000E+00 -0.65000000000E+04  0.65000000000E+04  0.00000000000E+00 0.  1.
       22    1    1    2    0    0  0.18953153749E+04 -0.29871950903E+04 -0.54529299576E+04  0.65000000000E+04  0.00000000000E+00 0.  1.
       22    1    1    2    0    0 -0.18953153749E+04  0.29871950903E+04  0.54529299576E+04  0.65000000000E+04  0.00000000000E+00 0. -1.
</event>
<event>
 4   1  0.3671700E-05  0.8062258E+02  0.7546771E-02  0.1202337E+00
      -11   -1    0    0    0    0  0.00000000000E+00  0.00000000000E+00  0.65000000000E+04  0.65000000000E+04  0.00000000000E+00 0.  1.
       11   -1    0    0    0    0 -0.00000000000E+00 -0.00000000000E+00 -0.65000000000E+04  0.65000000000E+04  0.00000000000E+00 0. -1.
       22    1    1    2    0    0 -0.26461522333E+03 -0.10907939810E+04 -0.64023548226E+04  0.65000000000E+04  0.00000000000E+00 0. -1.
       22    1    1    2    0    0  0.26461522333E+03  0.10907939810E+04  0.64023548226E+04  0.65000000000E+04  0.00000000000E+00 0.  1.
</event>
<event>
 4   1  0.3671700E-05  0.8062258E+02  0.7546771E-02  0.1202337E+00
      -11   -1    0    0    0    0  0.00000000000E+00  0.00000000000E+00  0.65000000000E+04  0.65000000000E+04  0.00000000000E+00 0. -1.
       11   -1    0    0    0    0 -0.00000000000E+00 -0.00000000000E+00 -0.65000000000E+04  0.65000000000E+04  0.00000000000E+00 0.  1.
       22    1    1    2    0    0 -0.56676049448E+03 -0.47639619874E+04  0.43855955952E+04  0.65000000000E+04  0.00000000000E+00 0. -1.
       22    1    1    2    0    0  0.56676049448E+03  0.47639619874E+04 -0.43855955952E+04  0.65000000000E+04  0.00000000000E+00 0.  1.
</event>
<event>
 4   1  0.3671700E-05  0.8062258E+02  0.7546771E-02  0.1202337E+00
      -11   -1    0    0    0    0  0.00000000000E+00  0.00000000000E+00  0.65000000000E+04  0.65000000000E+04  0.00000000000E+00 0. -1.
       11   -1    0    0    0    0 -0.00000000000E+00 -0.00000000000E+00 -0.65000000000E+04  0.65000000000E+04  0.00000000000E+00 0.  1.
       22    1    1    2    0    0 -0.15342729900E+04 -0.12984655357E+04 -0.61814232701E+04  0.65000000000E+04  0.00000000000E+00 0.  1.
       22    1    1    2    0    0  0.15342729900E+04  0.12984655357E+04  0.61814232701E+04  0.65000000000E+04  0.00000000000E+00 0. -1.
</event>
<event>
 4   1  0.3671700E-05  0.8062258E+02  0.7546771E-02  0.1202337E+00
      -11   -1    0    0    0    0  0.00000000000E+00  0.00000000000E+00  0.65000000000E+04  0.65000000000E+04  0.00000000000E+00 0.  1.
       11   -1    0    0    0    0 -0.00000000000E+00 -0.00000000000E+00 -0.65000000000E+04  0.65000000000E+04  0.00000000000E+00 0. -1.
       22    1    1    2    0    0 -0.16571733484E+04  0.13771733303E+04  0.61324685170E+04  0.65000000000E+04  0.00000000000E+00 0.  1.
       22    1    1    2    0    0  0.16571733484E+04 -0.13771733303E+04 -0.61324685170E+04  0.65000000000E+04  0.00000000000E+00 0. -1.
</event>
<event>
 4   1  0.3671700E-05  0.8062258E+02  0.7546771E-02  0.1202337E+00
      -11   -1    0    0    0    0  0.00000000000E+00  0.00000000000E+00  0.65000000000E+04  0.65000000000E+04  0.00000000000E+00 0.  1.
       11   -1    0    0    0    0 -0.00000000000E+00 -0.00000000000E+00 -0.65000000000E+04  0.65000000000E+04  0.00000000000E+00 0. -1.
       22    1    1    2    0    0  0.12146935857E+04 -0.50441574195E+04 -0.39154815055E+04  0.65000000000E+04  0.00000000000E+00 0. -1.
       22    1    1    2    0    0 -0.12146935857E+04  0.50441574195E+04  0.39154815055E+04  0.65000000000E+04  0.00000000000E+00 0.  1.
</event>
<event>
 4   1  0.3671700E-05  0.8062258E+02  0.7546771E-02  0.1202337E+00
      -11   -1    0    0    0    0  0.00000000000E+00  0.00000000000E+00  0.65000000000E+04  0.65000000000E+04  0.00000000000E+00 0. -1.
       11   -1    0    0    0    0 -0.00000000000E+00 -0.00000000000E+00 -0.65000000000E+04  0.65000000000E+04  0.00000000000E+00 0.  1.
       22    1    1    2    0    0  0.10871970244E+04  0.30404838504E+03  0.64012152916E+04  0.65000000000E+04  0.00000000000E+00 0. -1.
       22    1    1    2    0    0 -0.10871970244E+04 -0.30404838504E+03 -0.64012152916E+04  0.65000000000E+04  0.00000000000E+00 0.  1.
</event>
<event>
 4   1  0.3671700E-05  0.8062258E+02  0.7546771E-02  0.1202337E+00
      -11   -1    0    0    0    0  0.00000000000E+00  0.00000000000E+00  0.65000000000E+04  0.65000000000E+04  0.00000000000E+00 0.  1.
       11   -1    0    0    0    0 -0.00000000000E+00 -0.00000000000E+00 -0.65000000000E+04  0.65000000000E+04  0.00000000000E+00 0. -1.
       22    1    1    2    0    0 -0.22669804912E+04 -0.15478710594E+04 -0.58919347108E+04  0.65000000000E+04  0.00000000000E+00 0. -1.
       22    1    1    2    0    0  0.22669804912E+04  0.15478710594E+04  0.58919347108E+04  0.65000000000E+04  0.00000000000E+00 0.  1.
</event>
<event>
 4   1  0.3671700E-05  0.8062258E+02  0.7546771E-02  0.1202337E+00
      -11   -1    0    0    0    0  0.00000000000E+00  0.00000000000E+00  0.65000000000E+04  0.65000000000E+04  0.00000000000E+00 0. -1.
       11   -1    0    0    0    0 -0.00000000000E+00 -0.00000000000E+00 -0.65000000000E+04  0.65000000000E+04  0.00000000000E+00 0.  1.
       22    1    1    2    0    0 -0.19354289096E+04  0.11750139612E+04 -0.60929021925E+04  0.65000000000E+04  0.00000000000E+00 0.  1.
       22    1    1    2    0    0  0.19354289096E+04 -0.11750139612E+04  0.60929021925E+04  0.65000000000E+04  0.00000000000E+00 0. -1.
</event>
<event>
 4   1  0.3671700E-05  0.8062258E+02  0.7546771E-02  0.1202337E+00
      -11   -1    0    0    0    0  0.00000000000E+00  0.00000000000E+00  0.65000000000E+04  0.65000000000E+04  0.00000000000E+00 0.  1.
       11   -1    0    0    0    0 -0.00000000000E+00 -0.00000000000E+00 -0.65000000000E+04  0.65000000000E+04  0.00000000000E+00 0. -1.
       22    1    1    2    0    0 -0.38121114854E+04 -0.50579597743E+04  0.14611122283E+04  0.65000000000E+04  0.00000000000E+00 0. -1.
       22    1    1    2    0    0  0.38121114854E+04  0.50579597743E+04 -0.14611122283E+04  0.65000000000E+04  0.00000000000E+00 0.  1.
</event>
<event>
 4   1  0.3671700E-05  0.8062258E+02  0.7546771E-02  0.1202337E+00
      -11   -1    0    0    0    0  0.00000000000E+00  0.00000000000E+00  0.65000000000E+04  0.65000000000E+04  0.00000000000E+00 0. -1.
       11   -1    0    0    0    0 -0.00000000000E+00 -0.00000000000E+00 -0.65000000000E+04  0.65000000000E+04  0.00000000000E+00 0.  1.
       22    1    1    2    0    0  0.27287000017E+04  0.57054118140E+04  0.15008238847E+04  0.65000000000E+04  0.00000000000E+00 0. -1.
       22    1    1    2    0    0 -0.27287000017E+04 -0.57054118140E+04 -0.15008238847E+04  0.65000000000E+04  0.00000000000E+00 0.  1.
</event>
<event>
 5   2  0.3671700E-05  0.7894064E+02  0.7546771E-02  0.1206249E+00
      -11   -1    0    0    0    0  0.00000000000E+00  0.00000000000E+00  0.65000000000E+04  0.65000000000E+04  0.00000000000E+00 0. -1.
       11   -1    0    0    0    0 -0.00000000000E+00 -0.00000000000E+00 -0.65000000000E+04  0.65000000000E+04  0.00000000000E+00 0.  1.
       22    1    1    2    0    0 -0.47803570937E+04  0.38932132020E+04 -0.14024261239E+04  0.63226356856E+04  0.00000000000E+00 0. -1.
       22    1    1    2    0    0  0.11685917581E+03  0.18637817264E+02  0.51217807279E+03  0.52567082234E+03  0.00000000000E+00 0. -1.
       22    1    1    2    0    0  0.46634979179E+04 -0.39118510193E+04  0.89024805108E+03  0.61516934920E+04  0.00000000000E+00 0.  1.
</event>
<event>
 4   1  0.3671700E-05  0.8062258E+02  0.7546771E-02  0.1202337E+00
      -11   -1    0    0    0    0  0.00000000000E+00  0.00000000000E+00  0.65000000000E+04  0.65000000000E+04  0.00000000000E+00 0.  1.
       11   -1    0    0    0    0 -0.00000000000E+00 -0.00000000000E+00 -0.65000000000E+04  0.65000000000E+04  0.00000000000E+00 0. -1.
       22    1    1    2    0    0 -0.42971367979E+04  0.63096402730E+03  0.48359590296E+04  0.65000000000E+04  0.00000000000E+00 0.  1.
       22    1    1    2    0    0  0.42971367979E+04 -0.63096402730E+03 -0.48359590296E+04  0.65000000000E+04  0.00000000000E+00 0. -1.
</event>
<event>
 4   1  0.3671700E-05  0.8062258E+02  0.7546771E-02  0.1202337E+00
      -11   -1    0    0    0    0  0.00000000000E+00  0.00000000000E+00  0.65000000000E+04  0.65000000000E+04  0.00000000000E+00 0.  1.
       11   -1    0    0    0    0 -0.00000000000E+00 -0.00000000000E+00 -0.65000000000E+04  0.65000000000E+04  0.00000000000E+00 0. -1.
       22    1    1    2    0    0  0.45812880681E+04  0.59403102083E+03  0.45726279953E+04  0.65000000000E+04  0.00000000000E+00 0.  1.
       22    1    1    2    0    0 -0.45812880681E+04 -0.59403102083E+03 -0.45726279953E+04  0.65000000000E+04  0.00000000000E+00 0. -1.
</event>
<event>
 4   1  0.3671700E-05  0.8062258E+02  0.7546771E-02  0.1202337E+00
      -11   -1    0    0    0    0  0.00000000000E+00  0.00000000000E+00  0.65000000000E+04  0.65000000000E+04  0.00000000000E+00 0.  1.
       11   -1    0    0    0    0 -0.00000000000E+00 -0.00000000000E+00 -0.65000000000E+04  0.65000000000E+04  0.00000000000E+00 0. -1.
       22    1    1    2    0    0 -0.93954459009E+03 -0.94725667896E+03 -0.63616004863E+04  0.65000000000E+04  0.00000000000E+00 0. -1.
       22    1    1    2    0    0  0.93954459009E+03  0.94725667896E+03  0.63616004863E+04  0.65000000000E+04  0.00000000000E+00 0.  1.
</event>
<event>
 5   2  0.3671700E-05  0.8019808E+02  0.7546771E-02  0.1203314E+00
      -11   -1    0    0    0    0  0.00000000000E+00  0.00000000000E+00  0.65000000000E+04  0.65000000000E+04  0.00000000000E+00 0.  1.
       11   -1    0    0    0    0 -0.00000000000E+00 -0.00000000000E+00 -0.65000000000E+04  0.65000000000E+04  0.00000000000E+00 0. -1.
       22    1    1    2    0    0 -0.16049379646E+04 -0.12362767245E+04 -0.61756452209E+04  0.64994461229E+04  0.00000000000E+00 0. -1.
       22    1    1    2    0    0  0.15834865572E+04  0.12218521933E+04  0.60423074895E+04  0.63647334789E+04  0.00000000000E+00 0.  1.
       22    1    1    2    0    0  0.21451407459E+02  0.14424531242E+02  0.13333773133E+03  0.13582039825E+03  0.00000000000E+00 0.  1.
</event>
<event>
 4   1  0.3671700E-05  0.8062258E+02  0.7546771E-02  0.1202337E+00
      -11   -1    0    0    0    0  0.00000000000E+00  0.00000000000E+00  0.65000000000E+04  0.65000000000E+04  0.00000000000E+00 0. -1.
       11   -1    0    0    0    0 -0.00000000000E+00 -0.00000000000E+00 -0.65000000000E+04  0.65000000000E+04  0.00000000000E+00 0.  1.
       22    1    1    2    0    0 -0.50413858369E+03 -0.19800593811E+04  0.61705112540E+04  0.65000000000E+04  0.00000000000E+00 0. -1.
       22    1    1    2    0    0  0.50413858369E+03  0.19800593811E+04 -0.61705112540E+04  0.65000000000E+04  0.00000000000E+00 0.  1.
</event>
<event>
 5   2  0.3671700E-05  0.8053240E+02  0.7546771E-02  0.1202544E+00
      -11   -1    0    0    0    0  0.00000000000E+00  0.00000000000E+00  0.65000000000E+04  0.65000000000E+04  0.00000000000E+00 0.  1.
       11   -1    0    0    0    0 -0.00000000000E+00 -0.00000000000E+00 -0.65000000000E+04  0.65000000000E+04  0.00000000000E+00 0. -1.
       22    1    1    2    0    0  0.60987699623E+04  0.21210295954E+04  0.55641727173E+03  0.64810000601E+04  0.00000000000E+00 0.  1.
       22    1    1    2    0    0  0.88008594394E+01 -0.52159968134E+01  0.27171365761E+02  0.29033512825E+02  0.00000000000E+00 0.  1.
       22    1    1    2    0    0 -0.61075708218E+04 -0.21158135986E+04 -0.58358863749E+03  0.64899664271E+04  0.00000000000E+00 0. -1.
</event>
<event>
 4   1  0.3671700E-05  0.8062258E+02  0.7546771E-02  0.1202337E+00
      -11   -1    0    0    0    0  0.00000000000E+00  0.00000000000E+00  0.65000000000E+04  0.65000000000E+04  0.00000000000E+00 0.  1.
       11   -1    0    0    0    0 -0.00000000000E+00 -0.00000000000E+00 -0.65000000000E+04  0.65000000000E+04  0.00000000000E+00 0. -1.
       22    1    1    2    0    0  0.15200990565E+04 -0.20751575519E+04 -0.59693399965E+04  0.65000000000E+04  0.00000000000E+00 0. -1.
       22    1    1    2    0    0 -0.15200990565E+04  0.20751575519E+04  0.59693399965E+04  0.65000000000E+04  0.00000000000E+00 0.  1.
</event>
<event>
 4   1  0.3671700E-05  0.8062258E+02  0.7546771E-02  0.1202337E+00
      -11   -1    0    0    0    0  0.00000000000E+00  0.00000000000E+00  0.65000000000E+04  0.65000000000E+04  0.00000000000E+00 0.  1.
       11   -1    0    0    0    0 -0.00000000000E+00 -0.00000000000E+00 -0.65000000000E+04  0.65000000000E+04  0.00000000000E+00 0. -1.
       22    1    1    2    0    0  0.40791030079E+04 -0.31165778359E+04  0.39872122145E+04  0.65000000000E+04  0.00000000000E+00 0.  1.
       22    1    1    2    0    0 -0.40791030079E+04  0.31165778359E+04 -0.39872122145E+04  0.65000000000E+04  0.00000000000E+00 0. -1.
</event>
<event>
 4   1  0.3671700E-05  0.8062258E+02  0.7546771E-02  0.1202337E+00
      -11   -1    0    0    0    0  0.00000000000E+00  0.00000000000E+00  0.65000000000E+04  0.65000000000E+04  0.00000000000E+00 0. -1.
       11   -1    0    0    0    0 -0.00000000000E+00 -0.00000000000E+00 -0.65000000000E+04  0.65000000000E+04  0.00000000000E+00 0.  1.
       22    1    1    2    0    0 -0.89716034935E+03 -0.14693071868E+04  0.62678736186E+04  0.65000000000E+04  0.00000000000E+00 0. -1.
       22    1    1    2    0    0  0.89716034935E+03  0.14693071868E+04 -0.62678736186E+04  0.65000000000E+04  0.00000000000E+00 0.  1.
</event>
<event>
 4   1  0.3671700E-05  0.8062258E+02  0.7546771E-02  0.1202337E+00
      -11   -1    0    0    0    0  0.00000000000E+00  0.00000000000E+00  0.65000000000E+04  0.65000000000E+04  0.00000000000E+00 0.  1.
       11   -1    0    0    0    0 -0.00000000000E+00 -0.00000000000E+00 -0.65000000000E+04  0.65000000000E+04  0.00000000000E+00 0. -1.
       22    1    1    2    0    0 -0.10300290979E+04 -0.43446889563E+03 -0.64031458547E+04  0.65000000000E+04  0.00000000000E+00 0. -1.
       22    1    1    2    0    0  0.10300290979E+04  0.43446889563E+03  0.64031458547E+04  0.65000000000E+04  0.00000000000E+00 0.  1.
</event>
<event>
 4   1  0.3671700E-05  0.8062258E+02  0.7546771E-02  0.1202337E+00
      -11   -1    0    0    0    0  0.00000000000E+00  0.00000000000E+00  0.65000000000E+04  0.65000000000E+04  0.00000000000E+00 0. -1.
       11   -1    0    0    0    0 -0.00000000000E+00 -0.00000000000E+00 -0.65000000000E+04  0.65000000000E+04  0.00000000000E+00 0.  1.
       22    1    1    2    0    0  0.38932325950E+03  0.16545664985E+04  0.62738215707E+04  0.65000000000E+04  0.00000000000E+00 0. -1.
       22    1    1    2    0    0 -0.38932325950E+03 -0.16545664985E+04 -0.62738215707E+04  0.65000000000E+04  0.00000000000E+00 0.  1.
</event>
<event>
 4   1  0.3671700E-05  0.8062258E+02  0.7546771E-02  0.1202337E+00
      -11   -1    0    0    0    0  0.00000000000E+00  0.00000000000E+00  0.65000000000E+04  0.65000000000E+04  0.00000000000E+00 0. -1.
       11   -1    0    0    0    0 -0.00000000000E+00 -0.00000000000E+00 -0.65000000000E+04  0.65000000000E+04  0.00000000000E+00 0.  1.
       22    1    1    2    0    0  0.95699785771E+03 -0.20913159579E+04 -0.60795191146E+04  0.65000000000E+04  0.00000000000E+00 0.  1.
       22    1    1    2    0    0 -0.95699785771E+03  0.20913159579E+04  0.60795191146E+04  0.65000000000E+04  0.00000000000E+00 0. -1.
</event>
<event>
 4   1  0.3671700E-05  0.8062258E+02  0.7546771E-02  0.1202337E+00
      -11   -1    0    0    0    0  0.00000000000E+00  0.00000000000E+00  0.65000000000E+04  0.65000000000E+04  0.00000000000E+00 0.  1.
       11   -1    0    0    0    0 -0.00000000000E+00 -0.00000000000E+00 -0.65000000000E+04  0.65000000000E+04  0.00000000000E+00 0. -1.
       22    1    1    2    0    0 -0.27648817543E+03  0.34688677970E+04  0.54900373857E+04  0.65000000000E+04  0.00000000000E+00 0.  1.
       22    1    1    2    0    0  0.27648817543E+03 -0.34688677970E+04 -0.54900373857E+04  0.65000000000E+04  0.00000000000E+00 0. -1.
</event>
<event>
 4   1  0.3671700E-05  0.8062258E+02  0.7546771E-02  0.1202337E+00
      -11   -1    0    0    0    0  0.00000000000E+00  0.00000000000E+00  0.65000000000E+04  0.65000000000E+04  0.00000000000E+00 0.  1.
       11   -1    0    0    0    0 -0.00000000000E+00 -0.00000000000E+00 -0.65000000000E+04  0.65000000000E+04  0.00000000000E+00 0. -1.
       22    1    1    2    0    0 -0.29558300022E+04  0.24320296991E+04 -0.52534084689E+04  0.65000000000E+04  0.00000000000E+00 0. -1.
       22    1    1    2    0    0  0.29558300022E+04 -0.24320296991E+04  0.52534084689E+04  0.65000000000E+04  0.00000000000E+00 0.  1.
</event>
<event>
 5   2  0.3671700E-05  0.7965113E+02  0.7546771E-02  0.1204583E+00
      -11   -1    0    0    0    0  0.00000000000E+00  0.00000000000E+00  0.65000000000E+04  0.65000000000E+04  0.00000000000E+00 0.  1.
       11   -1    0    0    0    0 -0.00000000000E+00 -0.00000000000E+00 -0.65000000000E+04  0.65000000000E+04  0.00000000000E+00 0. -1.
       22    1    1    2    0    0  0.34410357114E+04  0.88232047054E+03 -0.50954135777E+04  0.62114777395E+04  0.00000000000E+00 0. -1.
       22    1    1    2    0    0 -0.34689624193E+04 -0.97978239671E+03  0.53858933901E+04  0.64808580775E+04  0.00000000000E+00 0.  1.
       22    1    1    2    0    0  0.27926707851E+02  0.97461926165E+02 -0.29047981240E+03  0.30766418296E+03  0.00000000000E+00 0. -1.
</event>
<event>
 4   1  0.3671700E-05  0.8062258E+02  0.7546771E-02  0.1202337E+00
      -11   -1    0    0    0    0  0.00000000000E+00  0.00000000000E+00  0.65000000000E+04  0.65000000000E+04  0.00000000000E+00 0.  1.
       11   -1    0    0    0    0 -0.00000000000E+00 -0.00000000000E+00 -0.65000000000E+04  0.65000000000E+04  0.00000000000E+00 0. -1.
       22    1    1    2    0    0 -0.19977203963E+04 -0.11448006400E+03  0.61843356582E+04  0.65000000000E+04  0.00000000000E+00 0.  1.
       22    1    1    2    0    0  0.19977203963E+04  0.11448006400E+03 -0.61843356582E+04  0.65000000000E+04  0.00000000000E+00 0. -1.
</event>
<event>
 4   1  0.3671700E-05  0.8062258E+02  0.7546771E-02  0.1202337E+00
      -11   -1    0    0    0    0  0.00000000000E+00  0.00000000000E+00  0.65000000000E+04  0.65000000000E+04  0.00000000000E+00 0. -1.
       11   -1    0    0    0    0 -0.00000000000E+00 -0.00000000000E+00 -0.65000000000E+04  0.65000000000E+04  0.00000000000E+00 0.  1.
       22    1    1    2    0    0 -0.11955900328E+04  0.28348512774E+03  0.63828050774E+04  0.65000000000E+04  0.00000000000E+00 0. -1.
       22    1    1    2    0    0  0.11955900328E+04 -0.28348512774E+03 -0.63828050774E+04  0.65000000000E+04  0.00000000000E+00 0.  1.
</event>
<event>
 4   1  0.3671700E-05  0.8062258E+02  0.7546771E-02  0.1202337E+00
      -11   -1    0    0    0    0  0.00000000000E+00  0.00000000000E+00  0.65000000000E+04  0.65000000000E+04  0.00000000000E+00 0. -1.
       11   -1    0    0    0    0 -0.00000000000E+00 -0.00000000000E+00 -0.65000000000E+04  0.65000000000E+04  0.00000000000E+00 0.  1.
       22    1    1    2    0    0  0.17528217872E+04  0.20341742993E+03 -0.62558961893E+04  0.65000000000E+04  0.00000000000E+00 0.  1.
       22    1    1    2    0    0 -0.17528217872E+04 -0.20341742993E+03  0.62558961893E+04  0.65000000000E+04  0.00000000000E+00 0. -1.
</event>
<event>
 4   1  0.3671700E-05  0.8062258E+02  0.7546771E-02  0.1202337E+00
      -11   -1    0    0    0    0  0.00000000000E+00  0.00000000000E+00  0.65000000000E+04  0.65000000000E+04  0.00000000000E+00 0.  1.
       11   -1    0    0    0    0 -0.00000000000E+00 -0.00000000000E+00 -0.65000000000E+04  0.65000000000E+04  0.00000000000E+00 0. -1.
       22    1    1    2    0    0  0.30218153115E+04  0.40894789588E+03  0.57403304645E+04  0.65000000000E+04  0.00000000000E+00 0.  1.
       22    1    1    2    0    0 -0.30218153115E+04 -0.40894789588E+03 -0.57403304645E+04  0.65000000000E+04  0.00000000000E+00 0. -1.
</event>
<event>
 5   2  0.3671700E-05  0.8050804E+02  0.7546771E-02  0.1202600E+00
      -11   -1    0    0    0    0  0.00000000000E+00  0.00000000000E+00  0.65000000000E+04  0.65000000000E+04  0.00000000000E+00 0. -1.
       11   -1    0    0    0    0 -0.00000000000E+00 -0.00000000000E+00 -0.65000000000E+04  0.65000000000E+04  0.00000000000E+00 0.  1.
       22    1    1    2    0    0 -0.42407478347E+04 -0.12134832897E+04 -0.47549535948E+04  0.64858359200E+04  0.00000000000E+00 0.  1.
       22    1    1    2    0    0 -0.21017459152E+02  0.98863085263E+00  0.30261051352E+02  0.36857051009E+02  0.00000000000E+00 0. -1.
       22    1    1    2    0    0  0.42617652939E+04  0.12124946589E+04  0.47246925435E+04  0.64773070290E+04  0.00000000000E+00 0. -1.
</event>
<event>
 4   1  0.3671700E-05  0.8062258E+02  0.7546771E-02  0.1202337E+00
      -11   -1    0    0    0    0  0.00000000000E+00  0.00000000000E+00  0.65000000000E+04  0.65000000000E+04  0.00000000000E+00 0.  1.
       11   -1    0    0    0    0 -0.00000000000E+00 -0.00000000000E+00 -0.65000000000E+04  0.65000000000E+04  0.00000000000E+00 0. -1.
       22    1    1    2    0    0 -0.66421177326E+03  0.64262216921E+04 -0.71588929595E+03  0.65000000000E+04  0.00000000000E+00 0.  1.
       22    1    1    2    0    0  0.66421177326E+03 -0.64262216921E+04  0.71588929595E+03  0.65000000000E+04  0.00000000000E+00 0. -1.
</event>
<event>
 4   1  0.3671700E-05  0.8062258E+02  0.7546771E-02  0.1202337E+00
      -11   -1    0    0    0    0  0.00000000000E+00  0.00000000000E+00  0.65000000000E+04  0.65000000000E+04  0.00000000000E+00 0.  1.
       11   -1    0    0    0    0 -0.00000000000E+00 -0.00000000000E+00 -0.65000000000E+04  0.65000000000E+04  0.00000000000E+00 0. -1.
       22    1    1    2    0    0 -0.16539751612E+04 -0.11678078663E+04  0.61766164648E+04  0.65000000000E+04  0.00000000000E+00 0.  1.
       22    1    1    2    0    0  0.16539751612E+04  0.11678078663E+04 -0.61766164648E+04  0.65000000000E+04  0.00000000000E+00 0. -1.
</event>
<event>
 5   2  0.3671700E-05  0.7898704E+02  0.7546771E-02  0.1206139E+00
      -11   -1    0    0    0    0  0.00000000000E+00  0.00000000000E+00  0.65000000000E+04  0.65000000000E+04  0.00000000000E+00 0. -1.
       11   -1    0    0    0    0 -0.00000000000E+00 -0.00000000000E+00 -0.65000000000E+04  0.65000000000E+04  0.00000000000E+00 0.  1.
       22    1    1    2    0    0  0.13619907198E+04 -0.65603748572E+02 -0.63362841697E+04  0.64813439695E+04  0.00000000000E+00 0.  1.
       22    1    1    2    0    0 -0.13005993194E+04  0.24097037337E+03  0.58596030015E+04  0.60070435861E+04  0.00000000000E+00 0. -1.
       22    1    1    2    0    0 -0.61391400384E+02 -0.17536662480E+03  0.47668116815E+03  0.51161244434E+03  0.00000000000E+00 0. -1.
</event>
<event>
 5   2  0.3671700E-05  0.7843670E+02  0.7546771E-02  0.1207442E+00
      -11   -1    0    0    0    0  0.00000000000E+00  0.00000000000E+00  0.65000000000E+04  0.65000000000E+04  0.00000000000E+00 0. -1.
       11   -1    0    0    0    0 -0.00000000000E+00 -0.00000000000E+00 -0.65000000000E+04  0.65000000000E+04  0.00000000000E+00 0.  1.
       22    1    1    2    0    0  0.10454991729E+04 -0.18291298965E+04  0.60434163292E+04  0.64001301258E+04  0.00000000000E+00 0. -1.
       22    1    1    2    0    0  0.92378271260E+02 -0.25866970973E+03 -0.61852579811E+03  0.67677021703E+03  0.00000000000E+00 0. -1.
       22    1    1    2    0    0 -0.11378774442E+04  0.20877996063E+04 -0.54248905311E+04  0.59230996572E+04  0.00000000000E+00 0.  1.
</event>
<event>
 4   1  0.3671700E-05  0.8062258E+02  0.7546771E-02  0.1202337E+00
      -11   -1    0    0    0    0  0.00000000000E+00  0.00000000000E+00  0.65000000000E+04  0.65000000000E+04  0.00000000000E+00 0. -1.
       11   -1    0    0    0    0 -0.00000000000E+00 -0.00000000000E+00 -0.65000000000E+04  0.65000000000E+04  0.00000000000E+00 0.  1.
       22    1    1    2    0    0  0.98356956737E+03 -0.13430861333E+04  0.62832086186E+04  0.65000000000E+04  0.00000000000E+00 0. -1.
       22    1    1    2    0    0 -0.98356956737E+03  0.13430861333E+04 -0.62832086186E+04  0.65000000000E+04  0.00000000000E+00 0.  1.
</event>
<event>
 4   1  0.3671700E-05  0.8062258E+02  0.7546771E-02  0.1202337E+00
      -11   -1    0    0    0    0  0.00000000000E+00  0.00000000000E+00  0.65000000000E+04  0.65000000000E+04  0.00000000000E+00 0. -1.
       11   -1    0    0    0    0 -0.00000000000E+00 -0.00000000000E+00 -0.65000000000E+04  0.65000000000E+04  0.00000000000E+00 0.  1.
       22    1    1    2    0    0 -0.33984047027E+04 -0.81123417716E+03  0.54811262152E+04  0.65000000000E+04  0.00000000000E+00 0. -1.
       22    1    1    2    0    0  0.33984047027E+04  0.81123417716E+03 -0.54811262152E+04  0.65000000000E+04  0.00000000000E+00 0.  1.
</event>
<event>
 4   1  0.3671700E-05  0.8062258E+02  0.7546771E-02  0.1202337E+00
      -11   -1    0    0    0    0  0.00000000000E+00  0.00000000000E+00  0.65000000000E+04  0.65000000000E+04  0.00000000000E+00 0.  1.
       11   -1    0    0    0    0 -0.00000000000E+00 -0.00000000000E+00 -0.65000000000E+04  0.65000000000E+04  0.00000000000E+00 0. -1.
       22    1    1    2    0    0 -0.11627189381E+04  0.11274818896E+04  0.62949876298E+04  0.65000000000E+04  0.00000000000E+00 0.  1.
       22    1    1    2    0    0  0.11627189381E+04 -0.11274818896E+04 -0.62949876298E+04  0.65000000000E+04  0.00000000000E+00 0. -1.
</event>
<event>
 4   1  0.3671700E-05  0.8062258E+02  0.7546771E-02  0.1202337E+00
      -11   -1    0    0    0    0  0.00000000000E+00  0.00000000000E+00  0.65000000000E+04  0.65000000000E+04  0.00000000000E+00 0.  1.
       11   -1    0    0    0    0 -0.00000000000E+00 -0.00000000000E+00 -0.65000000000E+04  0.65000000000E+04  0.00000000000E+00 0. -1.
       22    1    1    2    0    0  0.28985665226E+02  0.11166435310E+04  0.64033012623E+04  0.65000000000E+04  0.00000000000E+00 0.  1.
       22    1    1    2    0    0 -0.28985665226E+02 -0.11166435310E+04 -0.64033012623E+04  0.65000000000E+04  0.00000000000E+00 0. -1.
</event>
<event>
 4   1  0.3671700E-05  0.8062258E+02  0.7546771E-02  0.1202337E+00
      -11   -1    0    0    0    0  0.00000000000E+00  0.00000000000E+00  0.65000000000E+04  0.65000000000E+04  0.00000000000E+00 0. -1.
       11   -1    0    0    0    0 -0.00000000000E+00 -0.00000000000E+00 -0.65000000000E+04  0.65000000000E+04  0.00000000000E+00 0.  1.
       22    1    1    2    0    0 -0.12578476049E+04 -0.40007574307E+03 -0.63645705906E+04  0.65000000000E+04  0.00000000000E+00 0.  1.
       22    1    1    2    0    0  0.12578476049E+04  0.40007574307E+03  0.63645705906E+04  0.65000000000E+04  0.00000000000E+00 0. -1.
</event>
<event>
 4   1  0.3671700E-05  0.8062258E+02  0.7546771E-02  0.1202337E+00
      -11   -1    0    0    0    0  0.00000000000E+00  0.00000000000E+00  0.65000000000E+04  0.65000000000E+04  0.00000000000E+00 0. -1.
       11   -1    0    0    0    0 -0.00000000000E+00 -0.00000000000E+00 -0.65000000000E+04  0.65000000000E+04  0.00000000000E+00 0.  1.
       22    1    1    2    0    0 -0.57233632670E+04 -0.37195058897E+03 -0.30585561420E+04  0.65000000000E+04  0.00000000000E+00 0.  1.
       22    1    1    2    0    0  0.57233632670E+04  0.37195058897E+03  0.30585561420E+04  0.65000000000E+04  0.00000000000E+00 0. -1.
</event>
<event>
 4   1  0.3671700E-05  0.8062258E+02  0.7546771E-02  0.1202337E+00
      -11   -1    0    0    0    0  0.00000000000E+00  0.00000000000E+00  0.65000000000E+04  0.65000000000E+04  0.00000000000E+00 0. -1.
       11   -1    0    0    0    0 -0.00000000000E+00 -0.00000000000E+00 -0.65000000000E+04  0.65000000000E+04  0.00000000000E+00 0.  1.
       22    1    1    2    0    0  0.17836907494E+04  0.20739719514E+04  0.58963622392E+04  0.65000000000E+04  0.00000000000E+00 0. -1.
       22    1    1    2    0    0 -0.17836907494E+04 -0.20739719514E+04 -0.58963622392E+04  0.65000000000E+04  0.00000000000E+00 0.  1.
</event>
<event>
 4   1  0.3671700E-05  0.8062258E+02  0.7546771E-02  0.1202337E+00
      -11   -1    0    0    0    0  0.00000000000E+00  0.00000000000E+00  0.65000000000E+04  0.65000000000E+04  0.00000000000E+00 0.  1.
       11   -1    0    0    0    0 -0.00000000000E+00 -0.00000000000E+00 -0.65000000000E+04  0.65000000000E+04  0.00000000000E+00 0. -1.
       22    1    1    2    0    0 -0.21925938467E+04 -0.26509699134E+04  0.55149696954E+04  0.65000000000E+04  0.00000000000E+00 0.  1.
       22    1    1    2    0    0  0.21925938467E+04  0.26509699134E+04 -0.55149696954E+04  0.65000000000E+04  0.00000000000E+00 0. -1.
</event>
<event>
 4   1  0.3671700E-05  0.8062258E+02  0.7546771E-02  0.1202337E+00
      -11   -1    0    0    0    0  0.00000000000E+00  0.00000000000E+00  0.65000000000E+04  0.65000000000E+04  0.00000000000E+00 0.  1.
       11   -1    0    0    0    0 -0.00000000000E+00 -0.00000000000E+00 -0.65000000000E+04  0.65000000000E+04  0.00000000000E+00 0. -1.
       22    1    1    2    0    0 -0.12200113338E+04 -0.18309962543E+03 -0.63818529341E+04  0.65000000000E+04  0.00000000000E+00 0. -1.
       22    1    1    2    0    0  0.12200113338E+04  0.18309962543E+03  0.63818529341E+04  0.65000000000E+04  0.00000000000E+00 0.  1.
</event>
<event>
 4   1  0.3671700E-05  0.8062258E+02  0.7546771E-02  0.1202337E+00
      -11   -1    0    0    0    0  0.00000000000E+00  0.00000000000E+00  0.65000000000E+04  0.65000000000E+04  0.00000000000E+00 0. -1.
       11   -1    0    0    0    0 -0.00000000000E+00 -0.00000000000E+00 -0.65000000000E+04  0.65000000000E+04  0.00000000000E+00 0.  1.
       22    1    1    2    0    0 -0.42033836225E+04 -0.12230074760E+04 -0.48047704249E+04  0.65000000000E+04  0.00000000000E+00 0.  1.
       22    1    1    2    0    0  0.42033836225E+04  0.12230074760E+04  0.48047704249E+04  0.65000000000E+04  0.00000000000E+00 0. -1.
</event>
<event>
 4   1  0.3671700E-05  0.8062258E+02  0.7546771E-02  0.1202337E+00
      -11   -1    0    0    0    0  0.00000000000E+00  0.00000000000E+00  0.65000000000E+04  0.65000000000E+04  0.00000000000E+00 0.  1.
       11   -1    0    0    0    0 -0.00000000000E+00 -0.00000000000E+00 -0.65000000000E+04  0.65000000000E+04  0.00000000000E+00 0. -1.
       22    1    1    2    0    0  0.29642687043E+03 -0.15149308095E+04  0.63140411586E+04  0.65000000000E+04  0.00000000000E+00 0.  1.
       22    1    1    2    0    0 -0.29642687043E+03  0.15149308095E+04 -0.63140411586E+04  0.65000000000E+04  0.00000000000E+00 0. -1.
</event>
<event>
 4   1  0.3671700E-05  0.8062258E+02  0.7546771E-02  0.1202337E+00
      -11   -1    0    0    0    0  0.00000000000E+00  0.00000000000E+00  0.65000000000E+04  0.65000000000E+04  0.00000000000E+00 0. -1.
       11   -1    0    0    0    0 -0.00000000000E+00 -0.00000000000E+00 -0.65000000000E+04  0.65000000000E+04  0.00000000000E+00 0.  1.
       22    1    1    2    0    0 -0.42319568113E+04 -0.46170093939E+04  0.17388978704E+04  0.65000000000E+04  0.00000000000E+00 0. -1.
       22    1    1    2    0    0  0.42319568113E+04  0.46170093939E+04 -0.17388978704E+04  0.65000000000E+04  0.00000000000E+00 0.  1.
</event>
<event>
 4   1  0.3671700E-05  0.8062258E+02  0.7546771E-02  0.1202337E+00
      -11   -1    0    0    0    0  0.00000000000E+00  0.00000000000E+00  0.65000000000E+04  0.65000000000E+04  0.00000000000E+00 0. -1.
       11   -1    0    0    0    0 -0.00000000000E+00 -0.00000000000E+00 -0.65000000000E+04  0.65000000000E+04  0.00000000000E+00 0.  1.
       22    1    1    2    0    0 -0.15781974282E+04  0.55486907975E+03 -0.62810359959E+04  0.65000000000E+04  0.00000000000E+00 0.  1.
       22    1    1    2    0    0  0.15781974282E+04 -0.55486907975E+03  0.62810359959E+04  0.65000000000E+04  0.00000000000E+00 0. -1.
</event>
<event>
 4   1  0.3671700E-05  0.8062258E+02  0.7546771E-02  0.1202337E+00
      -11   -1    0    0    0    0  0.00000000000E+00  0.00000000000E+00  0.65000000000E+04  0.65000000000E+04  0.00000000000E+00 0. -1.
       11   -1    0    0    0    0 -0.00000000000E+00 -0.00000000000E+00 -0.65000000000E+04  0.65000000000E+04  0.00000000000E+00 0.  1.
       22    1    1    2    0    0  0.14732796084E+02 -0.28675725280E+04 -0.58332504439E+04  0.65000000000E+04  0.00000000000E+00 0.  1.
       22    1    1    2    0    0 -0.14732796084E+02  0.28675725280E+04  0.58332504439E+04  0.65000000000E+04  0.00000000000E+00 0. -1.
</event>
<event>
 4   1  0.3671700E-05  0.8062258E+02  0.7546771E-02  0.1202337E+00
      -11   -1    0    0    0    0  0.00000000000E+00  0.00000000000E+00  0.65000000000E+04  0.65000000000E+04  0.00000000000E+00 0. -1.
       11   -1    0    0    0    0 -0.00000000000E+00 -0.00000000000E+00 -0.65000000000E+04  0.65000000000E+04  0.00000000000E+00 0.  1.
       22    1    1    2    0    0 -0.75142592969E+03  0.75379888012E+03  0.64122653033E+04  0.65000000000E+04  0.00000000000E+00 0. -1.
       22    1    1    2    0    0  0.75142592969E+03 -0.75379888012E+03 -0.64122653033E+04  0.65000000000E+04  0.00000000000E+00 0.  1.
</event>
<event>
 4   1  0.3671700E-05  0.8062258E+02  0.7546771E-02  0.1202337E+00
      -11   -1    0    0    0    0  0.00000000000E+00  0.00000000000E+00  0.65000000000E+04  0.65000000000E+04  0.00000000000E+00 0.  1.
       11   -1    0    0    0    0 -0.00000000000E+00 -0.00000000000E+00 -0.65000000000E+04  0.65000000000E+04  0.00000000000E+00 0. -1.
       22    1    1    2    0    0  0.14580088096E+04  0.15247654772E+04 -0.61481135766E+04  0.65000000000E+04  0.00000000000E+00 0. -1.
       22    1    1    2    0    0 -0.14580088096E+04 -0.15247654772E+04  0.61481135766E+04  0.65000000000E+04  0.00000000000E+00 0.  1.
</event>
<event>
 4   1  0.3671700E-05  0.8062258E+02  0.7546771E-02  0.1202337E+00
      -11   -1    0    0    0    0  0.00000000000E+00  0.00000000000E+00  0.65000000000E+04  0.65000000000E+04  0.00000000000E+00 0.  1.
       11   -1    0    0    0    0 -0.00000000000E+00 -0.00000000000E+00 -0.65000000000E+04  0.65000000000E+04  0.00000000000E+00 0. -1.
       22    1    1    2    0    0  0.53942737742E+04  0.21928391785E+04 -0.28884713580E+04  0.65000000000E+04  0.00000000000E+00 0.  1.
       22    1    1    2    0    0 -0.53942737742E+04 -0.21928391785E+04  0.28884713580E+04  0.65000000000E+04  0.00000000000E+00 0. -1.
</event>
<event>
 4   1  0.3671700E-05  0.8062258E+02  0.7546771E-02  0.1202337E+00
      -11   -1    0    0    0    0  0.00000000000E+00  0.00000000000E+00  0.65000000000E+04  0.65000000000E+04  0.00000000000E+00 0. -1.
       11   -1    0    0    0    0 -0.00000000000E+00 -0.00000000000E+00 -0.65000000000E+04  0.65000000000E+04  0.00000000000E+00 0.  1.
       22    1    1    2    0    0  0.42984577597E+04 -0.25073443022E+04 -0.41816845217E+04  0.65000000000E+04  0.00000000000E+00 0.  1.
       22    1    1    2    0    0 -0.42984577597E+04  0.25073443022E+04  0.41816845217E+04  0.65000000000E+04  0.00000000000E+00 0. -1.
</event>
<event>
 4   1  0.3671700E-05  0.8062258E+02  0.7546771E-02  0.1202337E+00
      -11   -1    0    0    0    0  0.00000000000E+00  0.00000000000E+00  0.65000000000E+04  0.65000000000E+04  0.00000000000E+00 0. -1.
       11   -1    0    0    0    0 -0.00000000000E+00 -0.00000000000E+00 -0.65000000000E+04  0.65000000000E+04  0.00000000000E+00 0.  1.
       22    1    1    2    0    0  0.13331672276E+04 -0.42054379672E+04 -0.47735685443E+04  0.65000000000E+04  0.00000000000E+00 0.  1.
       22    1    1    2    0    0 -0.13331672276E+04  0.42054379672E+04  0.47735685443E+04  0.65000000000E+04  0.00000000000E+00 0. -1.
</event>
<event>
 4   1  0.3671700E-05  0.8062258E+02  0.7546771E-02  0.1202337E+00
      -11   -1    0    0    0    0  0.00000000000E+00  0.00000000000E+00  0.65000000000E+04  0.65000000000E+04  0.00000000000E+00 0.  1.
       11   -1    0    0    0    0 -0.00000000000E+00 -0.00000000000E+00 -0.65000000000E+04  0.65000000000E+04  0.00000000000E+00 0. -1.
       22    1    1    2    0    0 -0.55699405011E+03 -0.18633508771E+04 -0.62022319480E+04  0.65000000000E+04  0.00000000000E+00 0. -1.
       22    1    1    2    0    0  0.55699405011E+03  0.18633508771E+04  0.62022319480E+04  0.65000000000E+04  0.00000000000E+00 0.  1.
</event>
<event>
 4   1  0.3671700E-05  0.8062258E+02  0.7546771E-02  0.1202337E+00
      -11   -1    0    0    0    0  0.00000000000E+00  0.00000000000E+00  0.65000000000E+04  0.65000000000E+04  0.00000000000E+00 0. -1.
       11   -1    0    0    0    0 -0.00000000000E+00 -0.00000000000E+00 -0.65000000000E+04  0.65000000000E+04  0.00000000000E+00 0.  1.
       22    1    1    2    0    0  0.21904833733E+02  0.62238197792E+04 -0.18744565972E+04  0.65000000000E+04  0.00000000000E+00 0.  1.
       22    1    1    2    0    0 -0.21904833733E+02 -0.62238197792E+04  0.18744565972E+04  0.65000000000E+04  0.00000000000E+00 0. -1.
</event>
<event>
 4   1  0.3671700E-05  0.8062258E+02  0.7546771E-02  0.1202337E+00
      -11   -1    0    0    0    0  0.00000000000E+00  0.00000000000E+00  0.65000000000E+04  0.65000000000E+04  0.00000000000E+00 0. -1.
       11   -1    0    0    0    0 -0.00000000000E+00 -0.00000000000E+00 -0.65000000000E+04  0.65000000000E+04  0.00000000000E+00 0.  1.
       22    1    1    2    0    0  0.65491045798E+03  0.10556755459E+04  0.63801756585E+04  0.65000000000E+04  0.00000000000E+00 0. -1.
       22    1    1    2    0    0 -0.65491045798E+03 -0.10556755459E+04 -0.63801756585E+04  0.65000000000E+04  0.00000000000E+00 0.  1.
</event>
<event>
 5   2  0.3671700E-05  0.8042729E+02  0.7546771E-02  0.1202786E+00
      -11   -1    0    0    0    0  0.00000000000E+00  0.00000000000E+00  0.65000000000E+04  0.65000000000E+04  0.00000000000E+00 0.  1.
       11   -1    0    0    0    0 -0.00000000000E+00 -0.00000000000E+00 -0.65000000000E+04  0.65000000000E+04  0.00000000000E+00 0. -1.
       22    1    1    2    0    0  0.71449991036E+03  0.10573815067E+04 -0.63671340780E+04  0.64937633264E+04  0.00000000000E+00 0. -1.
       22    1    1    2    0    0 -0.73981738853E+03 -0.10691876237E+04  0.63109457797E+04  0.64434872994E+04  0.00000000000E+00 0.  1.
       22    1    1    2    0    0  0.25317478171E+02  0.11806116996E+02  0.56188298274E+02  0.62749374199E+02  0.00000000000E+00 0. -1.
</event>
<event>
 4   1  0.3671700E-05  0.8062258E+02  0.7546771E-02  0.1202337E+00
      -11   -1    0    0    0    0  0.00000000000E+00  0.00000000000E+00  0.65000000000E+04  0.65000000000E+04  0.00000000000E+00 0. -1.
       11   -1    0    0    0    0 -0.00000000000E+00 -0.00000000000E+00 -0.65000000000E+04  0.65000000000E+04  0.00000000000E+00 0.  1.
       22    1    1    2    0    0  0.17452444204E+04  0.26371928571E+04  0.56788498613E+04  0.65000000000E+04  0.00000000000E+00 0. -1.
       22    1    1    2    0    0 -0.17452444204E+04 -0.26371928571E+04 -0.56788498613E+04  0.65000000000E+04  0.00000000000E+00 0.  1.
</event>
<event>
 4   1  0.3671700E-05  0.8062258E+02  0.7546771E-02  0.1202337E+00
      -11   -1    0    0    0    0  0.00000000000E+00  0.00000000000E+00  0.65000000000E+04  0.65000000000E+04  0.00000000000E+00 0. -1.
       11   -1    0    0    0    0 -0.00000000000E+00 -0.00000000000E+00 -0.65000000000E+04  0.65000000000E+04  0.00000000000E+00 0.  1.
       22    1    1    2    0    0 -0.18553864195E+04  0.35584327863E+04 -0.51132276832E+04  0.65000000000E+04  0.00000000000E+00 0.  1.
       22    1    1    2    0    0  0.18553864195E+04 -0.35584327863E+04  0.51132276832E+04  0.65000000000E+04  0.00000000000E+00 0. -1.
</event>
<event>
 4   1  0.3671700E-05  0.8062258E+02  0.7546771E-02  0.1202337E+00
      -11   -1    0    0    0    0  0.00000000000E+00  0.00000000000E+00  0.65000000000E+04  0.65000000000E+04  0.00000000000E+00 0.  1.
       11   -1    0    0    0    0 -0.00000000000E+00 -0.00000000000E+00 -0.65000000000E+04  0.65000000000E+04  0.00000000000E+00 0. -1.
       22    1    1    2    0    0 -0.43596339207E+04  0.38257119322E+04  0.29338575783E+04  0.65000000000E+04  0.00000000000E+00 0.  1.
       22    1    1    2    0    0  0.43596339207E+04 -0.38257119322E+04 -0.29338575783E+04  0.65000000000E+04  0.00000000000E+00 0. -1.
</event>
<event>
 4   1  0.3671700E-05  0.8062258E+02  0.7546771E-02  0.1202337E+00
      -11   -1    0    0    0    0  0.00000000000E+00  0.00000000000E+00  0.65000000000E+04  0.65000000000E+04  0.00000000000E+00 0. -1.
       11   -1    0    0    0    0 -0.00000000000E+00 -0.00000000000E+00 -0.65000000000E+04  0.65000000000E+04  0.00000000000E+00 0.  1.
       22    1    1    2    0    0 -0.53009648211E+03 -0.32583268586E+04 -0.55993127973E+04  0.65000000000E+04  0.00000000000E+00 0.  1.
       22    1    1    2    0    0  0.53009648211E+03  0.32583268586E+04  0.55993127973E+04  0.65000000000E+04  0.00000000000E+00 0. -1.
</event>
<event>
 4   1  0.3671700E-05  0.8062258E+02  0.7546771E-02  0.1202337E+00
      -11   -1    0    0    0    0  0.00000000000E+00  0.00000000000E+00  0.65000000000E+04  0.65000000000E+04  0.00000000000E+00 0.  1.
       11   -1    0    0    0    0 -0.00000000000E+00 -0.00000000000E+00 -0.65000000000E+04  0.65000000000E+04  0.00000000000E+00 0. -1.
       22    1    1    2    0    0  0.30792746239E+04  0.10022292814E+04 -0.56359208882E+04  0.65000000000E+04  0.00000000000E+00 0. -1.
       22    1    1    2    0    0 -0.30792746239E+04 -0.10022292814E+04  0.56359208882E+04  0.65000000000E+04  0.00000000000E+00 0.  1.
</event>
<event>
 4   1  0.3671700E-05  0.8062258E+02  0.7546771E-02  0.1202337E+00
      -11   -1    0    0    0    0  0.00000000000E+00  0.00000000000E+00  0.65000000000E+04  0.65000000000E+04  0.00000000000E+00 0.  1.
       11   -1    0    0    0    0 -0.00000000000E+00 -0.00000000000E+00 -0.65000000000E+04  0.65000000000E+04  0.00000000000E+00 0. -1.
       22    1    1    2    0    0 -0.60288004492E+04  0.21419299294E+04 -0.11470402440E+04  0.65000000000E+04  0.00000000000E+00 0.  1.
       22    1    1    2    0    0  0.60288004492E+04 -0.21419299294E+04  0.11470402440E+04  0.65000000000E+04  0.00000000000E+00 0. -1.
</event>
<event>
 4   1  0.3671700E-05  0.8062258E+02  0.7546771E-02  0.1202337E+00
      -11   -1    0    0    0    0  0.00000000000E+00  0.00000000000E+00  0.65000000000E+04  0.65000000000E+04  0.00000000000E+00 0.  1.
       11   -1    0    0    0    0 -0.00000000000E+00 -0.00000000000E+00 -0.65000000000E+04  0.65000000000E+04  0.00000000000E+00 0. -1.
       22    1    1    2    0    0  0.43965033321E+04  0.12660809191E+04 -0.46171200501E+04  0.65000000000E+04  0.00000000000E+00 0. -1.
       22    1    1    2    0    0 -0.43965033321E+04 -0.12660809191E+04  0.46171200501E+04  0.65000000000E+04  0.00000000000E+00 0.  1.
</event>
<event>
 4   1  0.3671700E-05  0.8062258E+02  0.7546771E-02  0.1202337E+00
      -11   -1    0    0    0    0  0.00000000000E+00  0.00000000000E+00  0.65000000000E+04  0.65000000000E+04  0.00000000000E+00 0.  1.
       11   -1    0    0    0    0 -0.00000000000E+00 -0.00000000000E+00 -0.65000000000E+04  0.65000000000E+04  0.00000000000E+00 0. -1.
       22    1    1    2    0    0  0.16354646995E+04  0.15619650272E+04 -0.60938920626E+04  0.65000000000E+04  0.00000000000E+00 0. -1.
       22    1    1    2    0    0 -0.16354646995E+04 -0.15619650272E+04  0.60938920626E+04  0.65000000000E+04  0.00000000000E+00 0.  1.
</event>
<event>
 4   1  0.3671700E-05  0.8062258E+02  0.7546771E-02  0.1202337E+00
      -11   -1    0    0    0    0  0.00000000000E+00  0.00000000000E+00  0.65000000000E+04  0.65000000000E+04  0.00000000000E+00 0.  1.
       11   -1    0    0    0    0 -0.00000000000E+00 -0.00000000000E+00 -0.65000000000E+04  0.65000000000E+04  0.00000000000E+00 0. -1.
       22    1    1    2    0    0  0.41833216529E+03 -0.25223772873E+04 -0.59760029301E+04  0.65000000000E+04  0.00000000000E+00 0. -1.
       22    1    1    2    0    0 -0.41833216529E+03  0.25223772873E+04  0.59760029301E+04  0.65000000000E+04  0.00000000000E+00 0.  1.
</event>
<event>
 4   1  0.3671700E-05  0.8062258E+02  0.7546771E-02  0.1202337E+00
      -11   -1    0    0    0    0  0.00000000000E+00  0.00000000000E+00  0.65000000000E+04  0.65000000000E+04  0.00000000000E+00 0. -1.
       11   -1    0    0    0    0 -0.00000000000E+00 -0.00000000000E+00 -0.65000000000E+04  0.65000000000E+04  0.00000000000E+00 0.  1.
       22    1    1    2    0    0  0.49604490058E+04  0.86646382315E+02 -0.41995759387E+04  0.65000000000E+04  0.00000000000E+00 0.  1.
       22    1    1    2    0    0 -0.49604490058E+04 -0.86646382315E+02  0.41995759387E+04  0.65000000000E+04  0.00000000000E+00 0. -1.
</event>
<event>
 5   2  0.3671700E-05  0.6819022E+02  0.7546771E-02  0.1234143E+00
      -11   -1    0    0    0    0  0.00000000000E+00  0.00000000000E+00  0.65000000000E+04  0.65000000000E+04  0.00000000000E+00 0. -1.
       11   -1    0    0    0    0 -0.00000000000E+00 -0.00000000000E+00 -0.65000000000E+04  0.65000000000E+04  0.00000000000E+00 0.  1.
       22    1    1    2    0    0  0.49238383847E+04 -0.23621520655E+04  0.13091158499E+04  0.56158464302E+04  0.00000000000E+00 0. -1.
       22    1    1    2    0    0 -0.15252491093E+04  0.34503490212E+03 -0.27615712628E+04  0.31735957160E+04  0.00000000000E+00 0.  1.
       22    1    1    2    0    0 -0.33985892754E+04  0.20171171633E+04  0.14524554129E+04  0.42105578538E+04  0.00000000000E+00 0.  1.
</event>
<event>
 4   1  0.3671700E-05  0.8062258E+02  0.7546771E-02  0.1202337E+00
      -11   -1    0    0    0    0  0.00000000000E+00  0.00000000000E+00  0.65000000000E+04  0.65000000000E+04  0.00000000000E+00 0.  1.
       11   -1    0    0    0    0 -0.00000000000E+00 -0.00000000000E+00 -0.65000000000E+04  0.65000000000E+04  0.00000000000E+00 0. -1.
       22    1    1    2    0    0 -0.23794336382E+04  0.75524653176E+03  0.60014913345E+04  0.65000000000E+04  0.00000000000E+00 0.  1.
       22    1    1    2    0    0  0.23794336382E+04 -0.75524653176E+03 -0.60014913345E+04  0.65000000000E+04  0.00000000000E+00 0. -1.
</event>
<event>
 4   1  0.3671700E-05  0.8062258E+02  0.7546771E-02  0.1202337E+00
      -11   -1    0    0    0    0  0.00000000000E+00  0.00000000000E+00  0.65000000000E+04  0.65000000000E+04  0.00000000000E+00 0.  1.
       11   -1    0    0    0    0 -0.00000000000E+00 -0.00000000000E+00 -0.65000000000E+04  0.65000000000E+04  0.00000000000E+00 0. -1.
       22    1    1    2    0    0 -0.42619307172E+03  0.27152340511E+04 -0.58903194746E+04  0.65000000000E+04  0.00000000000E+00 0. -1.
       22    1    1    2    0    0  0.42619307172E+03 -0.27152340511E+04  0.58903194746E+04  0.65000000000E+04  0.00000000000E+00 0.  1.
</event>
<event>
 4   1  0.3671700E-05  0.8062258E+02  0.7546771E-02  0.1202337E+00
      -11   -1    0    0    0    0  0.00000000000E+00  0.00000000000E+00  0.65000000000E+04  0.65000000000E+04  0.00000000000E+00 0. -1.
       11   -1    0    0    0    0 -0.00000000000E+00 -0.00000000000E+00 -0.65000000000E+04  0.65000000000E+04  0.00000000000E+00 0.  1.
       22    1    1    2    0    0 -0.76721420448E+03 -0.15642723424E+04 -0.62621429561E+04  0.65000000000E+04  0.00000000000E+00 0.  1.
       22    1    1    2    0    0  0.76721420448E+03  0.15642723424E+04  0.62621429561E+04  0.65000000000E+04  0.00000000000E+00 0. -1.
</event>
<event>
 4   1  0.3671700E-05  0.8062258E+02  0.7546771E-02  0.1202337E+00
      -11   -1    0    0    0    0  0.00000000000E+00  0.00000000000E+00  0.65000000000E+04  0.65000000000E+04  0.00000000000E+00 0.  1.
       11   -1    0    0    0    0 -0.00000000000E+00 -0.00000000000E+00 -0.65000000000E+04  0.65000000000E+04  0.00000000000E+00 0. -1.
       22    1    1    2    0    0 -0.93796574491E+03 -0.20305310607E+04 -0.61030454589E+04  0.65000000000E+04  0.00000000000E+00 0. -1.
       22    1    1    2    0    0  0.93796574491E+03  0.20305310607E+04  0.61030454589E+04  0.65000000000E+04  0.00000000000E+00 0.  1.
</event>
<event>
 4   1  0.3671700E-05  0.8062258E+02  0.7546771E-02  0.1202337E+00
      -11   -1    0    0    0    0  0.00000000000E+00  0.00000000000E+00  0.65000000000E+04  0.65000000000E+04  0.00000000000E+00 0.  1.
       11   -1    0    0    0    0 -0.00000000000E+00 -0.00000000000E+00 -0.65000000000E+04  0.65000000000E+04  0.00000000000E+00 0. -1.
       22    1    1    2    0    0  0.29222100580E+04  0.82205248524E+02 -0.58055086490E+04  0.65000000000E+04  0.00000000000E+00 0. -1.
       22    1    1    2    0    0 -0.29222100580E+04 -0.82205248524E+02  0.58055086490E+04  0.65000000000E+04  0.00000000000E+00 0.  1.
</event>
<event>
 4   1  0.3671700E-05  0.8062258E+02  0.7546771E-02  0.1202337E+00
      -11   -1    0    0    0    0  0.00000000000E+00  0.00000000000E+00  0.65000000000E+04  0.65000000000E+04  0.00000000000E+00 0. -1.
       11   -1    0    0    0    0 -0.00000000000E+00 -0.00000000000E+00 -0.65000000000E+04  0.65000000000E+04  0.00000000000E+00 0.  1.
       22    1    1    2    0    0  0.33563352049E+02  0.11288801656E+04  0.64011329523E+04  0.65000000000E+04  0.00000000000E+00 0. -1.
       22    1    1    2    0    0 -0.33563352049E+02 -0.11288801656E+04 -0.64011329523E+04  0.65000000000E+04  0.00000000000E+00 0.  1.
</event>
<event>
 4   1  0.3671700E-05  0.8062258E+02  0.7546771E-02  0.1202337E+00
      -11   -1    0    0    0    0  0.00000000000E+00  0.00000000000E+00  0.65000000000E+04  0.65000000000E+04  0.00000000000E+00 0.  1.
       11   -1    0    0    0    0 -0.00000000000E+00 -0.00000000000E+00 -0.65000000000E+04  0.65000000000E+04  0.00000000000E+00 0. -1.
       22    1    1    2    0    0 -0.80723478786E+03  0.45048324249E+04 -0.46157184512E+04  0.65000000000E+04  0.00000000000E+00 0. -1.
       22    1    1    2    0    0  0.80723478786E+03 -0.45048324249E+04  0.46157184512E+04  0.65000000000E+04  0.00000000000E+00 0.  1.
</event>
<event>
 4   1  0.3671700E-05  0.8062258E+02  0.7546771E-02  0.1202337E+00
      -11   -1    0    0    0    0  0.00000000000E+00  0.00000000000E+00  0.65000000000E+04  0.65000000000E+04  0.00000000000E+00 0.  1.
       11   -1    0    0    0    0 -0.00000000000E+00 -0.00000000000E+00 -0.65000000000E+04  0.65000000000E+04  0.00000000000E+00 0. -1.
       22    1    1    2    0    0 -0.12528197580E+04 -0.33710463947E+03 -0.63692074166E+04  0.65000000000E+04  0.00000000000E+00 0. -1.
       22    1    1    2    0    0  0.12528197580E+04  0.33710463947E+03  0.63692074166E+04  0.65000000000E+04  0.00000000000E+00 0.  1.
</event>
<event>
 4   1  0.3671700E-05  0.8062258E+02  0.7546771E-02  0.1202337E+00
      -11   -1    0    0    0    0  0.00000000000E+00  0.00000000000E+00  0.65000000000E+04  0.65000000000E+04  0.00000000000E+00 0.  1.
       11   -1    0    0    0    0 -0.00000000000E+00 -0.00000000000E+00 -0.65000000000E+04  0.65000000000E+04  0.00000000000E+00 0. -1.
       22    1    1    2    0    0 -0.56208184898E+03  0.10100062789E+04 -0.63964014345E+04  0.65000000000E+04  0.00000000000E+00 0. -1.
       22    1    1    2    0    0  0.56208184898E+03 -0.10100062789E+04  0.63964014345E+04  0.65000000000E+04  0.00000000000E+00 0.  1.
</event>
<event>
 4   1  0.3671700E-05  0.8062258E+02  0.7546771E-02  0.1202337E+00
      -11   -1    0    0    0    0  0.00000000000E+00  0.00000000000E+00  0.65000000000E+04  0.65000000000E+04  0.00000000000E+00 0.  1.
       11   -1    0    0    0    0 -0.00000000000E+00 -0.00000000000E+00 -0.65000000000E+04  0.65000000000E+04  0.00000000000E+00 0. -1.
       22    1    1    2    0    0 -0.11173879816E+04  0.63484581827E+04  0.83577676507E+03  0.65000000000E+04  0.00000000000E+00 0. -1.
       22    1    1    2    0    0  0.11173879816E+04 -0.63484581827E+04 -0.83577676507E+03  0.65000000000E+04  0.00000000000E+00 0.  1.
</event>
<event>
 4   1  0.3671700E-05  0.8062258E+02  0.7546771E-02  0.1202337E+00
      -11   -1    0    0    0    0  0.00000000000E+00  0.00000000000E+00  0.65000000000E+04  0.65000000000E+04  0.00000000000E+00 0. -1.
       11   -1    0    0    0    0 -0.00000000000E+00 -0.00000000000E+00 -0.65000000000E+04  0.65000000000E+04  0.00000000000E+00 0.  1.
       22    1    1    2    0    0  0.13941948034E+04 -0.91488056579E+02 -0.63480588203E+04  0.65000000000E+04  0.00000000000E+00 0.  1.
       22    1    1    2    0    0 -0.13941948034E+04  0.91488056579E+02  0.63480588203E+04  0.65000000000E+04  0.00000000000E+00 0. -1.
</event>
<event>
 4   1  0.3671700E-05  0.8062258E+02  0.7546771E-02  0.1202337E+00
      -11   -1    0    0    0    0  0.00000000000E+00  0.00000000000E+00  0.65000000000E+04  0.65000000000E+04  0.00000000000E+00 0. -1.
       11   -1    0    0    0    0 -0.00000000000E+00 -0.00000000000E+00 -0.65000000000E+04  0.65000000000E+04  0.00000000000E+00 0.  1.
       22    1    1    2    0    0  0.26982514408E+03 -0.60009062764E+04 -0.24832072514E+04  0.65000000000E+04  0.00000000000E+00 0.  1.
       22    1    1    2    0    0 -0.26982514408E+03  0.60009062764E+04  0.24832072514E+04  0.65000000000E+04  0.00000000000E+00 0. -1.
</event>
<event>
 4   1  0.3671700E-05  0.8062258E+02  0.7546771E-02  0.1202337E+00
      -11   -1    0    0    0    0  0.00000000000E+00  0.00000000000E+00  0.65000000000E+04  0.65000000000E+04  0.00000000000E+00 0.  1.
       11   -1    0    0    0    0 -0.00000000000E+00 -0.00000000000E+00 -0.65000000000E+04  0.65000000000E+04  0.00000000000E+00 0. -1.
       22    1    1    2    0    0  0.81701648656E+01  0.14102147955E+04  0.63451735578E+04  0.65000000000E+04  0.00000000000E+00 0.  1.
       22    1    1    2    0    0 -0.81701648656E+01 -0.14102147955E+04 -0.63451735578E+04  0.65000000000E+04  0.00000000000E+00 0. -1.
</event>
<event>
 4   1  0.3671700E-05  0.8062258E+02  0.7546771E-02  0.1202337E+00
      -11   -1    0    0    0    0  0.00000000000E+00  0.00000000000E+00  0.65000000000E+04  0.65000000000E+04  0.00000000000E+00 0. -1.
       11   -1    0    0    0    0 -0.00000000000E+00 -0.00000000000E+00 -0.65000000000E+04  0.65000000000E+04  0.00000000000E+00 0.  1.
       22    1    1    2    0    0  0.41188886216E+04 -0.49183706727E+04 -0.10461292697E+04  0.65000000000E+04  0.00000000000E+00 0.  1.
       22    1    1    2    0    0 -0.41188886216E+04  0.49183706727E+04  0.10461292697E+04  0.65000000000E+04  0.00000000000E+00 0. -1.
</event>
<event>
 4   1  0.3671700E-05  0.8062258E+02  0.7546771E-02  0.1202337E+00
      -11   -1    0    0    0    0  0.00000000000E+00  0.00000000000E+00  0.65000000000E+04  0.65000000000E+04  0.00000000000E+00 0. -1.
       11   -1    0    0    0    0 -0.00000000000E+00 -0.00000000000E+00 -0.65000000000E+04  0.65000000000E+04  0.00000000000E+00 0.  1.
       22    1    1    2    0    0 -0.48651468062E+03 -0.11088042679E+04  0.63862239673E+04  0.65000000000E+04  0.00000000000E+00 0. -1.
       22    1    1    2    0    0  0.48651468062E+03  0.11088042679E+04 -0.63862239673E+04  0.65000000000E+04  0.00000000000E+00 0.  1.
</event>
<event>
 4   1  0.3671700E-05  0.8062258E+02  0.7546771E-02  0.1202337E+00
      -11   -1    0    0    0    0  0.00000000000E+00  0.00000000000E+00  0.65000000000E+04  0.65000000000E+04  0.00000000000E+00 0. -1.
       11   -1    0    0    0    0 -0.00000000000E+00 -0.00000000000E+00 -0.65000000000E+04  0.65000000000E+04  0.00000000000E+00 0.  1.
       22    1    1    2    0    0  0.28705244656E+04 -0.55553196743E+04  0.17744048604E+04  0.65000000000E+04  0.00000000000E+00 0. -1.
       22    1    1    2    0    0 -0.28705244656E+04  0.55553196743E+04 -0.17744048604E+04  0.65000000000E+04  0.00000000000E+00 0.  1.
</event>
<event>
 4   1  0.3671700E-05  0.8062258E+02  0.7546771E-02  0.1202337E+00
      -11   -1    0    0    0    0  0.00000000000E+00  0.00000000000E+00  0.65000000000E+04  0.65000000000E+04  0.00000000000E+00 0. -1.
       11   -1    0    0    0    0 -0.00000000000E+00 -0.00000000000E+00 -0.65000000000E+04  0.65000000000E+04  0.00000000000E+00 0.  1.
       22    1    1    2    0    0  0.47192984808E+03  0.14525786657E+04 -0.63180137257E+04  0.65000000000E+04  0.00000000000E+00 0.  1.
       22    1    1    2    0    0 -0.47192984808E+03 -0.14525786657E+04  0.63180137257E+04  0.65000000000E+04  0.00000000000E+00 0. -1.
</event>
<event>
 4   1  0.3671700E-05  0.8062258E+02  0.7546771E-02  0.1202337E+00
      -11   -1    0    0    0    0  0.00000000000E+00  0.00000000000E+00  0.65000000000E+04  0.65000000000E+04  0.00000000000E+00 0. -1.
       11   -1    0    0    0    0 -0.00000000000E+00 -0.00000000000E+00 -0.65000000000E+04  0.65000000000E+04  0.00000000000E+00 0.  1.
       22    1    1    2    0    0  0.82619819543E+03  0.40132808502E+04  0.50458867763E+04  0.65000000000E+04  0.00000000000E+00 0. -1.
       22    1    1    2    0    0 -0.82619819543E+03 -0.40132808502E+04 -0.50458867763E+04  0.65000000000E+04  0.00000000000E+00 0.  1.
</event>
<event>
 4   1  0.3671700E-05  0.8062258E+02  0.7546771E-02  0.1202337E+00
      -11   -1    0    0    0    0  0.00000000000E+00  0.00000000000E+00  0.65000000000E+04  0.65000000000E+04  0.00000000000E+00 0.  1.
       11   -1    0    0    0    0 -0.00000000000E+00 -0.00000000000E+00 -0.65000000000E+04  0.65000000000E+04  0.00000000000E+00 0. -1.
       22    1    1    2    0    0 -0.12486446813E+04 -0.14253018126E+04 -0.62176684700E+04  0.65000000000E+04  0.00000000000E+00 0. -1.
       22    1    1    2    0    0  0.12486446813E+04  0.14253018126E+04  0.62176684700E+04  0.65000000000E+04  0.00000000000E+00 0.  1.
</event>
<event>
 4   1  0.3671700E-05  0.8062258E+02  0.7546771E-02  0.1202337E+00
      -11   -1    0    0    0    0  0.00000000000E+00  0.00000000000E+00  0.65000000000E+04  0.65000000000E+04  0.00000000000E+00 0.  1.
       11   -1    0    0    0    0 -0.00000000000E+00 -0.00000000000E+00 -0.65000000000E+04  0.65000000000E+04  0.00000000000E+00 0. -1.
       22    1    1    2    0    0 -0.31677023138E+04  0.11477964292E+04 -0.55586172209E+04  0.65000000000E+04  0.00000000000E+00 0. -1.
       22    1    1    2    0    0  0.31677023138E+04 -0.11477964292E+04  0.55586172209E+04  0.65000000000E+04  0.00000000000E+00 0.  1.
</event>
<event>
 4   1  0.3671700E-05  0.8062258E+02  0.7546771E-02  0.1202337E+00
      -11   -1    0    0    0    0  0.00000000000E+00  0.00000000000E+00  0.65000000000E+04  0.65000000000E+04  0.00000000000E+00 0.  1.
       11   -1    0    0    0    0 -0.00000000000E+00 -0.00000000000E+00 -0.65000000000E+04  0.65000000000E+04  0.00000000000E+00 0. -1.
       22    1    1    2    0    0 -0.31407322189E+04  0.11779466486E+03 -0.56896331645E+04  0.65000000000E+04  0.00000000000E+00 0. -1.
       22    1    1    2    0    0  0.31407322189E+04 -0.11779466486E+03  0.56896331645E+04  0.65000000000E+04  0.00000000000E+00 0.  1.
</event>
<event>
 4   1  0.3671700E-05  0.8062258E+02  0.7546771E-02  0.1202337E+00
      -11   -1    0    0    0    0  0.00000000000E+00  0.00000000000E+00  0.65000000000E+04  0.65000000000E+04  0.00000000000E+00 0.  1.
       11   -1    0    0    0    0 -0.00000000000E+00 -0.00000000000E+00 -0.65000000000E+04  0.65000000000E+04  0.00000000000E+00 0. -1.
       22    1    1    2    0    0  0.11363905108E+04 -0.28540671402E+03 -0.63935248193E+04  0.65000000000E+04  0.00000000000E+00 0. -1.
       22    1    1    2    0    0 -0.11363905108E+04  0.28540671402E+03  0.63935248193E+04  0.65000000000E+04  0.00000000000E+00 0.  1.
</event>
<event>
 4   1  0.3671700E-05  0.8062258E+02  0.7546771E-02  0.1202337E+00
      -11   -1    0    0    0    0  0.00000000000E+00  0.00000000000E+00  0.65000000000E+04  0.65000000000E+04  0.00000000000E+00 0. -1.
       11   -1    0    0    0    0 -0.00000000000E+00 -0.00000000000E+00 -0.65000000000E+04  0.65000000000E+04  0.00000000000E+00 0.  1.
       22    1    1    2    0    0 -0.11481589420E+04  0.37618130247E+04  0.51749873247E+04  0.65000000000E+04  0.00000000000E+00 0. -1.
       22    1    1    2    0    0  0.11481589420E+04 -0.37618130247E+04 -0.51749873247E+04  0.65000000000E+04  0.00000000000E+00 0.  1.
</event>
<event>
 4   1  0.3671700E-05  0.8062258E+02  0.7546771E-02  0.1202337E+00
      -11   -1    0    0    0    0  0.00000000000E+00  0.00000000000E+00  0.65000000000E+04  0.65000000000E+04  0.00000000000E+00 0.  1.
       11   -1    0    0    0    0 -0.00000000000E+00 -0.00000000000E+00 -0.65000000000E+04  0.65000000000E+04  0.00000000000E+00 0. -1.
       22    1    1    2    0    0 -0.21407130634E+03 -0.12513577889E+04  0.63748158530E+04  0.65000000000E+04  0.00000000000E+00 0.  1.
       22    1    1    2    0    0  0.21407130634E+03  0.12513577889E+04 -0.63748158530E+04  0.65000000000E+04  0.00000000000E+00 0. -1.
</event>
<event>
 5   2  0.3671700E-05  0.7925966E+02  0.7546771E-02  0.1205498E+00
      -11   -1    0    0    0    0  0.00000000000E+00  0.00000000000E+00  0.65000000000E+04  0.65000000000E+04  0.00000000000E+00 0.  1.
       11   -1    0    0    0    0 -0.00000000000E+00 -0.00000000000E+00 -0.65000000000E+04  0.65000000000E+04  0.00000000000E+00 0. -1.
       22    1    1    2    0    0  0.26032217197E+03  0.32681800321E+03 -0.95078517031E+02  0.42850620164E+03  0.00000000000E+00 0.  1.
       22    1    1    2    0    0  0.36903415199E+04 -0.42937661948E+03 -0.49334046262E+04  0.61758777531E+04  0.00000000000E+00 0. -1.
       22    1    1    2    0    0 -0.39506636919E+04  0.10255861628E+03  0.50284831433E+04  0.63956160453E+04  0.00000000000E+00 0.  1.
</event>
<event>
 4   1  0.3671700E-05  0.8062258E+02  0.7546771E-02  0.1202337E+00
      -11   -1    0    0    0    0  0.00000000000E+00  0.00000000000E+00  0.65000000000E+04  0.65000000000E+04  0.00000000000E+00 0.  1.
       11   -1    0    0    0    0 -0.00000000000E+00 -0.00000000000E+00 -0.65000000000E+04  0.65000000000E+04  0.00000000000E+00 0. -1.
       22    1    1    2    0    0 -0.11630819105E+04 -0.10127345584E+03  0.63942930928E+04  0.65000000000E+04  0.00000000000E+00 0.  1.
       22    1    1    2    0    0  0.11630819105E+04  0.10127345584E+03 -0.63942930928E+04  0.65000000000E+04  0.00000000000E+00 0. -1.
</event>
<event>
 5   2  0.3671700E-05  0.8038255E+02  0.7546771E-02  0.1202889E+00
      -11   -1    0    0    0    0  0.00000000000E+00  0.00000000000E+00  0.65000000000E+04  0.65000000000E+04  0.00000000000E+00 0. -1.
       11   -1    0    0    0    0 -0.00000000000E+00 -0.00000000000E+00 -0.65000000000E+04  0.65000000000E+04  0.00000000000E+00 0.  1.
       22    1    1    2    0    0 -0.35743705117E+04 -0.22650683915E+04  0.49303600338E+04  0.64973155562E+04  0.00000000000E+00 0. -1.
       22    1    1    2    0    0  0.16358508914E+02  0.26961454493E+02 -0.70314979732E+02  0.77063072979E+02  0.00000000000E+00 0.  1.
       22    1    1    2    0    0  0.35580120028E+04  0.22381069370E+04 -0.48600450541E+04  0.64256213708E+04  0.00000000000E+00 0.  1.
</event>
<event>
 4   1  0.3671700E-05  0.8062258E+02  0.7546771E-02  0.1202337E+00
      -11   -1    0    0    0    0  0.00000000000E+00  0.00000000000E+00  0.65000000000E+04  0.65000000000E+04  0.00000000000E+00 0.  1.
       11   -1    0    0    0    0 -0.00000000000E+00 -0.00000000000E+00 -0.65000000000E+04  0.65000000000E+04  0.00000000000E+00 0. -1.
       22    1    1    2    0    0 -0.42637851234E+04  0.48805577030E+04 -0.50029284281E+03  0.65000000000E+04  0.00000000000E+00 0. -1.
       22    1    1    2    0    0  0.42637851234E+04 -0.48805577030E+04  0.50029284281E+03  0.65000000000E+04  0.00000000000E+00 0.  1.
</event>
<event>
 4   1  0.3671700E-05  0.8062258E+02  0.7546771E-02  0.1202337E+00
      -11   -1    0    0    0    0  0.00000000000E+00  0.00000000000E+00  0.65000000000E+04  0.65000000000E+04  0.00000000000E+00 0.  1.
       11   -1    0    0    0    0 -0.00000000000E+00 -0.00000000000E+00 -0.65000000000E+04  0.65000000000E+04  0.00000000000E+00 0. -1.
       22    1    1    2    0    0 -0.18909653270E+04  0.57386992200E+04 -0.23961597180E+04  0.65000000000E+04  0.00000000000E+00 0. -1.
       22    1    1    2    0    0  0.18909653270E+04 -0.57386992200E+04  0.23961597180E+04  0.65000000000E+04  0.00000000000E+00 0.  1.
</event>
<event>
 4   1  0.3671700E-05  0.8062258E+02  0.7546771E-02  0.1202337E+00
      -11   -1    0    0    0    0  0.00000000000E+00  0.00000000000E+00  0.65000000000E+04  0.65000000000E+04  0.00000000000E+00 0. -1.
       11   -1    0    0    0    0 -0.00000000000E+00 -0.00000000000E+00 -0.65000000000E+04  0.65000000000E+04  0.00000000000E+00 0.  1.
       22    1    1    2    0    0  0.18533532482E+04  0.33214610286E+03  0.62213150301E+04  0.65000000000E+04  0.00000000000E+00 0. -1.
       22    1    1    2    0    0 -0.18533532482E+04 -0.33214610286E+03 -0.62213150301E+04  0.65000000000E+04  0.00000000000E+00 0.  1.
</event>
<event>
 4   1  0.3671700E-05  0.8062258E+02  0.7546771E-02  0.1202337E+00
      -11   -1    0    0    0    0  0.00000000000E+00  0.00000000000E+00  0.65000000000E+04  0.65000000000E+04  0.00000000000E+00 0. -1.
       11   -1    0    0    0    0 -0.00000000000E+00 -0.00000000000E+00 -0.65000000000E+04  0.65000000000E+04  0.00000000000E+00 0.  1.
       22    1    1    2    0    0  0.26438388791E+03 -0.10722243452E+04 -0.64055004577E+04  0.65000000000E+04  0.00000000000E+00 0.  1.
       22    1    1    2    0    0 -0.26438388791E+03  0.10722243452E+04  0.64055004577E+04  0.65000000000E+04  0.00000000000E+00 0. -1.
</event>
<event>
 4   1  0.3671700E-05  0.8062258E+02  0.7546771E-02  0.1202337E+00
      -11   -1    0    0    0    0  0.00000000000E+00  0.00000000000E+00  0.65000000000E+04  0.65000000000E+04  0.00000000000E+00 0. -1.
       11   -1    0    0    0    0 -0.00000000000E+00 -0.00000000000E+00 -0.65000000000E+04  0.65000000000E+04  0.00000000000E+00 0.  1.
       22    1    1    2    0    0 -0.17242337646E+04  0.23205972157E+04  0.58216704207E+04  0.65000000000E+04  0.00000000000E+00 0. -1.
       22    1    1    2    0    0  0.17242337646E+04 -0.23205972157E+04 -0.58216704207E+04  0.65000000000E+04  0.00000000000E+00 0.  1.
</event>
<event>
 4   1  0.3671700E-05  0.8062258E+02  0.7546771E-02  0.1202337E+00
      -11   -1    0    0    0    0  0.00000000000E+00  0.00000000000E+00  0.65000000000E+04  0.65000000000E+04  0.00000000000E+00 0.  1.
       11   -1    0    0    0    0 -0.00000000000E+00 -0.00000000000E+00 -0.65000000000E+04  0.65000000000E+04  0.00000000000E+00 0. -1.
       22    1    1    2    0    0 -0.66393653400E+03 -0.12733334491E+04 -0.63393856332E+04  0.65000000000E+04  0.00000000000E+00 0. -1.
       22    1    1    2    0    0  0.66393653400E+03  0.12733334491E+04  0.63393856332E+04  0.65000000000E+04  0.00000000000E+00 0.  1.
</event>
<event>
 4   1  0.3671700E-05  0.8062258E+02  0.7546771E-02  0.1202337E+00
      -11   -1    0    0    0    0  0.00000000000E+00  0.00000000000E+00  0.65000000000E+04  0.65000000000E+04  0.00000000000E+00 0.  1.
       11   -1    0    0    0    0 -0.00000000000E+00 -0.00000000000E+00 -0.65000000000E+04  0.65000000000E+04  0.00000000000E+00 0. -1.
       22    1    1    2    0    0 -0.10495925652E+04  0.51510835899E+03 -0.63939830173E+04  0.65000000000E+04  0.00000000000E+00 0. -1.
       22    1    1    2    0    0  0.10495925652E+04 -0.51510835899E+03  0.63939830173E+04  0.65000000000E+04  0.00000000000E+00 0.  1.
</event>
<event>
 4   1  0.3671700E-05  0.8062258E+02  0.7546771E-02  0.1202337E+00
      -11   -1    0    0    0    0  0.00000000000E+00  0.00000000000E+00  0.65000000000E+04  0.65000000000E+04  0.00000000000E+00 0. -1.
       11   -1    0    0    0    0 -0.00000000000E+00 -0.00000000000E+00 -0.65000000000E+04  0.65000000000E+04  0.00000000000E+00 0.  1.
       22    1    1    2    0    0 -0.23691935732E+04  0.17334635645E+04 -0.57993125354E+04  0.65000000000E+04  0.00000000000E+00 0.  1.
       22    1    1    2    0    0  0.23691935732E+04 -0.17334635645E+04  0.57993125354E+04  0.65000000000E+04  0.00000000000E+00 0. -1.
</event>
<event>
 4   1  0.3671700E-05  0.8062258E+02  0.7546771E-02  0.1202337E+00
      -11   -1    0    0    0    0  0.00000000000E+00  0.00000000000E+00  0.65000000000E+04  0.65000000000E+04  0.00000000000E+00 0. -1.
       11   -1    0    0    0    0 -0.00000000000E+00 -0.00000000000E+00 -0.65000000000E+04  0.65000000000E+04  0.00000000000E+00 0.  1.
       22    1    1    2    0    0 -0.17250768300E+04 -0.70387547832E+03 -0.62272521421E+04  0.65000000000E+04  0.00000000000E+00 0.  1.
       22    1    1    2    0    0  0.17250768300E+04  0.70387547832E+03  0.62272521421E+04  0.65000000000E+04  0.00000000000E+00 0. -1.
</event>
<event>
 5   2  0.3671700E-05  0.7662449E+02  0.7546771E-02  0.1211818E+00
      -11   -1    0    0    0    0  0.00000000000E+00  0.00000000000E+00  0.65000000000E+04  0.65000000000E+04  0.00000000000E+00 0. -1.
       11   -1    0    0    0    0 -0.00000000000E+00 -0.00000000000E+00 -0.65000000000E+04  0.65000000000E+04  0.00000000000E+00 0.  1.
       22    1    1    2    0    0 -0.37593896484E+03 -0.18889342695E+03  0.11201633770E+04  0.11965687708E+04  0.00000000000E+00 0.  1.
       22    1    1    2    0    0 -0.29534327324E+04  0.18367018105E+04 -0.52189781246E+04  0.62716800867E+04  0.00000000000E+00 0.  1.
       22    1    1    2    0    0  0.33293716972E+04 -0.16478083836E+04  0.40988147476E+04  0.55317511425E+04  0.00000000000E+00 0. -1.
</event>
<event>
 4   1  0.3671700E-05  0.8062258E+02  0.7546771E-02  0.1202337E+00
      -11   -1    0    0    0    0  0.00000000000E+00  0.00000000000E+00  0.65000000000E+04  0.65000000000E+04  0.00000000000E+00 0. -1.
       11   -1    0    0    0    0 -0.00000000000E+00 -0.00000000000E+00 -0.65000000000E+04  0.65000000000E+04  0.00000000000E+00 0.  1.
       22    1    1    2    0    0  0.16908183899E+04 -0.15114743421E+04  0.60915169281E+04  0.65000000000E+04  0.00000000000E+00 0. -1.
       22    1    1    2    0    0 -0.16908183899E+04  0.15114743421E+04 -0.60915169281E+04  0.65000000000E+04  0.00000000000E+00 0.  1.
</event>
<event>
 4   1  0.3671700E-05  0.8062258E+02  0.7546771E-02  0.1202337E+00
      -11   -1    0    0    0    0  0.00000000000E+00  0.00000000000E+00  0.65000000000E+04  0.65000000000E+04  0.00000000000E+00 0.  1.
       11   -1    0    0    0    0 -0.00000000000E+00 -0.00000000000E+00 -0.65000000000E+04  0.65000000000E+04  0.00000000000E+00 0. -1.
       22    1    1    2    0    0 -0.93541237873E+03 -0.43311333883E+04  0.47556584459E+04  0.65000000000E+04  0.00000000000E+00 0.  1.
       22    1    1    2    0    0  0.93541237873E+03  0.43311333883E+04 -0.47556584459E+04  0.65000000000E+04  0.00000000000E+00 0. -1.
</event>
<event>
 4   1  0.3671700E-05  0.8062258E+02  0.7546771E-02  0.1202337E+00
      -11   -1    0    0    0    0  0.00000000000E+00  0.00000000000E+00  0.65000000000E+04  0.65000000000E+04  0.00000000000E+00 0. -1.
       11   -1    0    0    0    0 -0.00000000000E+00 -0.00000000000E+00 -0.65000000000E+04  0.65000000000E+04  0.00000000000E+00 0.  1.
       22    1    1    2    0    0  0.27633961854E+04  0.40409915632E+04  0.42759827770E+04  0.65000000000E+04  0.00000000000E+00 0. -1.
       22    1    1    2    0    0 -0.27633961854E+04 -0.40409915632E+04 -0.42759827770E+04  0.65000000000E+04  0.00000000000E+00 0.  1.
</event>
<event>
 4   1  0.3671700E-05  0.8062258E+02  0.7546771E-02  0.1202337E+00
      -11   -1    0    0    0    0  0.00000000000E+00  0.00000000000E+00  0.65000000000E+04  0.65000000000E+04  0.00000000000E+00 0.  1.
       11   -1    0    0    0    0 -0.00000000000E+00 -0.00000000000E+00 -0.65000000000E+04  0.65000000000E+04  0.00000000000E+00 0. -1.
       22    1    1    2    0    0 -0.40835126837E+04  0.49994782765E+04 -0.76166995788E+03  0.65000000000E+04  0.00000000000E+00 0. -1.
       22    1    1    2    0    0  0.40835126837E+04 -0.49994782765E+04  0.76166995788E+03  0.65000000000E+04  0.00000000000E+00 0.  1.
</event>
<event>
 4   1  0.3671700E-05  0.8062258E+02  0.7546771E-02  0.1202337E+00
      -11   -1    0    0    0    0  0.00000000000E+00  0.00000000000E+00  0.65000000000E+04  0.65000000000E+04  0.00000000000E+00 0. -1.
       11   -1    0    0    0    0 -0.00000000000E+00 -0.00000000000E+00 -0.65000000000E+04  0.65000000000E+04  0.00000000000E+00 0.  1.
       22    1    1    2    0    0 -0.27114315765E+04  0.22443590467E+04  0.54645211387E+04  0.65000000000E+04  0.00000000000E+00 0. -1.
       22    1    1    2    0    0  0.27114315765E+04 -0.22443590467E+04 -0.54645211387E+04  0.65000000000E+04  0.00000000000E+00 0.  1.
</event>
<event>
 4   1  0.3671700E-05  0.8062258E+02  0.7546771E-02  0.1202337E+00
      -11   -1    0    0    0    0  0.00000000000E+00  0.00000000000E+00  0.65000000000E+04  0.65000000000E+04  0.00000000000E+00 0. -1.
       11   -1    0    0    0    0 -0.00000000000E+00 -0.00000000000E+00 -0.65000000000E+04  0.65000000000E+04  0.00000000000E+00 0.  1.
       22    1    1    2    0    0 -0.34246412880E+03  0.24187557045E+04  0.60234823120E+04  0.65000000000E+04  0.00000000000E+00 0. -1.
       22    1    1    2    0    0  0.34246412880E+03 -0.24187557045E+04 -0.60234823120E+04  0.65000000000E+04  0.00000000000E+00 0.  1.
</event>
<event>
 4   1  0.3671700E-05  0.8062258E+02  0.7546771E-02  0.1202337E+00
      -11   -1    0    0    0    0  0.00000000000E+00  0.00000000000E+00  0.65000000000E+04  0.65000000000E+04  0.00000000000E+00 0.  1.
       11   -1    0    0    0    0 -0.00000000000E+00 -0.00000000000E+00 -0.65000000000E+04  0.65000000000E+04  0.00000000000E+00 0. -1.
       22    1    1    2    0    0 -0.12343766945E+04 -0.70794713846E+03 -0.63423280446E+04  0.65000000000E+04  0.00000000000E+00 0. -1.
       22    1    1    2    0    0  0.12343766945E+04  0.70794713846E+03  0.63423280446E+04  0.65000000000E+04  0.00000000000E+00 0.  1.
</event>
<event>
 4   1  0.3671700E-05  0.8062258E+02  0.7546771E-02  0.1202337E+00
      -11   -1    0    0    0    0  0.00000000000E+00  0.00000000000E+00  0.65000000000E+04  0.65000000000E+04  0.00000000000E+00 0. -1.
       11   -1    0    0    0    0 -0.00000000000E+00 -0.00000000000E+00 -0.65000000000E+04  0.65000000000E+04  0.00000000000E+00 0.  1.
       22    1    1    2    0    0 -0.45750506443E+04 -0.44408284466E+04  0.12641021752E+04  0.65000000000E+04  0.00000000000E+00 0. -1.
       22    1    1    2    0    0  0.45750506443E+04  0.44408284466E+04 -0.12641021752E+04  0.65000000000E+04  0.00000000000E+00 0.  1.
</event>
<event>
 4   1  0.3671700E-05  0.8062258E+02  0.7546771E-02  0.1202337E+00
      -11   -1    0    0    0    0  0.00000000000E+00  0.00000000000E+00  0.65000000000E+04  0.65000000000E+04  0.00000000000E+00 0.  1.
       11   -1    0    0    0    0 -0.00000000000E+00 -0.00000000000E+00 -0.65000000000E+04  0.65000000000E+04  0.00000000000E+00 0. -1.
       22    1    1    2    0    0  0.28041511289E+04 -0.16806767399E+04 -0.56180122946E+04  0.65000000000E+04  0.00000000000E+00 0. -1.
       22    1    1    2    0    0 -0.28041511289E+04  0.16806767399E+04  0.56180122946E+04  0.65000000000E+04  0.00000000000E+00 0.  1.
</event>
<event>
 4   1  0.3671700E-05  0.8062258E+02  0.7546771E-02  0.1202337E+00
      -11   -1    0    0    0    0  0.00000000000E+00  0.00000000000E+00  0.65000000000E+04  0.65000000000E+04  0.00000000000E+00 0. -1.
       11   -1    0    0    0    0 -0.00000000000E+00 -0.00000000000E+00 -0.65000000000E+04  0.65000000000E+04  0.00000000000E+00 0.  1.
       22    1    1    2    0    0 -0.44963909958E+04 -0.23838756747E+04  0.40434644527E+04  0.65000000000E+04  0.00000000000E+00 0. -1.
       22    1    1    2    0    0  0.44963909958E+04  0.23838756747E+04 -0.40434644527E+04  0.65000000000E+04  0.00000000000E+00 0.  1.
</event>
<event>
 4   1  0.3671700E-05  0.8062258E+02  0.7546771E-02  0.1202337E+00
      -11   -1    0    0    0    0  0.00000000000E+00  0.00000000000E+00  0.65000000000E+04  0.65000000000E+04  0.00000000000E+00 0. -1.
       11   -1    0    0    0    0 -0.00000000000E+00 -0.00000000000E+00 -0.65000000000E+04  0.65000000000E+04  0.00000000000E+00 0.  1.
       22    1    1    2    0    0  0.23040467425E+03 -0.13907854842E+04 -0.63452840301E+04  0.65000000000E+04  0.00000000000E+00 0.  1.
       22    1    1    2    0    0 -0.23040467425E+03  0.13907854842E+04  0.63452840301E+04  0.65000000000E+04  0.00000000000E+00 0. -1.
</event>
<event>
 4   1  0.3671700E-05  0.8062258E+02  0.7546771E-02  0.1202337E+00
      -11   -1    0    0    0    0  0.00000000000E+00  0.00000000000E+00  0.65000000000E+04  0.65000000000E+04  0.00000000000E+00 0.  1.
       11   -1    0    0    0    0 -0.00000000000E+00 -0.00000000000E+00 -0.65000000000E+04  0.65000000000E+04  0.00000000000E+00 0. -1.
       22    1    1    2    0    0  0.17269848758E+04 -0.15074135817E+04  0.60823702232E+04  0.65000000000E+04  0.00000000000E+00 0.  1.
       22    1    1    2    0    0 -0.17269848758E+04  0.15074135817E+04 -0.60823702232E+04  0.65000000000E+04  0.00000000000E+00 0. -1.
</event>
<event>
 4   1  0.3671700E-05  0.8062258E+02  0.7546771E-02  0.1202337E+00
      -11   -1    0    0    0    0  0.00000000000E+00  0.00000000000E+00  0.65000000000E+04  0.65000000000E+04  0.00000000000E+00 0. -1.
       11   -1    0    0    0    0 -0.00000000000E+00 -0.00000000000E+00 -0.65000000000E+04  0.65000000000E+04  0.00000000000E+00 0.  1.
       22    1    1    2    0    0  0.67468840582E+03 -0.11439286785E+04  0.63628784943E+04  0.65000000000E+04  0.00000000000E+00 0. -1.
       22    1    1    2    0    0 -0.67468840582E+03  0.11439286785E+04 -0.63628784943E+04  0.65000000000E+04  0.00000000000E+00 0.  1.
</event>
<event>
 4   1  0.3671700E-05  0.8062258E+02  0.7546771E-02  0.1202337E+00
      -11   -1    0    0    0    0  0.00000000000E+00  0.00000000000E+00  0.65000000000E+04  0.65000000000E+04  0.00000000000E+00 0. -1.
       11   -1    0    0    0    0 -0.00000000000E+00 -0.00000000000E+00 -0.65000000000E+04  0.65000000000E+04  0.00000000000E+00 0.  1.
       22    1    1    2    0    0  0.92345039020E+02 -0.14095184473E+04  0.63446615466E+04  0.65000000000E+04  0.00000000000E+00 0. -1.
       22    1    1    2    0    0 -0.92345039020E+02  0.14095184473E+04 -0.63446615466E+04  0.65000000000E+04  0.00000000000E+00 0.  1.
</event>
<event>
 5   2  0.3671700E-05  0.6921579E+02  0.7546771E-02  0.1231238E+00
      -11   -1    0    0    0    0  0.00000000000E+00  0.00000000000E+00  0.65000000000E+04  0.65000000000E+04  0.00000000000E+00 0. -1.
       11   -1    0    0    0    0 -0.00000000000E+00 -0.00000000000E+00 -0.65000000000E+04  0.65000000000E+04  0.00000000000E+00 0.  1.
       22    1    1    2    0    0 -0.38183978976E+03 -0.27186327482E+04 -0.28897989441E+04  0.39859382311E+04  0.00000000000E+00 0.  1.
       22    1    1    2    0    0  0.74898276047E+03  0.18518820456E+04  0.57055481497E+04  0.60451403603E+04  0.00000000000E+00 0. -1.
       22    1    1    2    0    0 -0.36714297071E+03  0.86675070265E+03 -0.28157492057E+04  0.29689214086E+04  0.00000000000E+00 0.  1.
</event>
<event>
 4   1  0.3671700E-05  0.8062258E+02  0.7546771E-02  0.1202337E+00
      -11   -1    0    0    0    0  0.00000000000E+00  0.00000000000E+00  0.65000000000E+04  0.65000000000E+04  0.00000000000E+00 0. -1.
       11   -1    0    0    0    0 -0.00000000000E+00 -0.00000000000E+00 -0.65000000000E+04  0.65000000000E+04  0.00000000000E+00 0.  1.
       22    1    1    2    0    0  0.48693739013E+02 -0.15662763172E+04  0.63082808607E+04  0.65000000000E+04  0.00000000000E+00 0. -1.
       22    1    1    2    0    0 -0.48693739013E+02  0.15662763172E+04 -0.63082808607E+04  0.65000000000E+04  0.00000000000E+00 0.  1.
</event>
<event>
 4   1  0.3671700E-05  0.8062258E+02  0.7546771E-02  0.1202337E+00
      -11   -1    0    0    0    0  0.00000000000E+00  0.00000000000E+00  0.65000000000E+04  0.65000000000E+04  0.00000000000E+00 0.  1.
       11   -1    0    0    0    0 -0.00000000000E+00 -0.00000000000E+00 -0.65000000000E+04  0.65000000000E+04  0.00000000000E+00 0. -1.
       22    1    1    2    0    0 -0.34307499130E+04 -0.12986964124E+04 -0.53659428494E+04  0.65000000000E+04  0.00000000000E+00 0. -1.
       22    1    1    2    0    0  0.34307499130E+04  0.12986964124E+04  0.53659428494E+04  0.65000000000E+04  0.00000000000E+00 0.  1.
</event>
<event>
 4   1  0.3671700E-05  0.8062258E+02  0.7546771E-02  0.1202337E+00
      -11   -1    0    0    0    0  0.00000000000E+00  0.00000000000E+00  0.65000000000E+04  0.65000000000E+04  0.00000000000E+00 0.  1.
       11   -1    0    0    0    0 -0.00000000000E+00 -0.00000000000E+00 -0.65000000000E+04  0.65000000000E+04  0.00000000000E+00 0. -1.
       22    1    1    2    0    0 -0.38495611871E+04 -0.23039457389E+04  0.47034787869E+04  0.65000000000E+04  0.00000000000E+00 0.  1.
       22    1    1    2    0    0  0.38495611871E+04  0.23039457389E+04 -0.47034787869E+04  0.65000000000E+04  0.00000000000E+00 0. -1.
</event>
<event>
 4   1  0.3671700E-05  0.8062258E+02  0.7546771E-02  0.1202337E+00
      -11   -1    0    0    0    0  0.00000000000E+00  0.00000000000E+00  0.65000000000E+04  0.65000000000E+04  0.00000000000E+00 0. -1.
       11   -1    0    0    0    0 -0.00000000000E+00 -0.00000000000E+00 -0.65000000000E+04  0.65000000000E+04  0.00000000000E+00 0.  1.
       22    1    1    2    0    0 -0.86943770188E+03 -0.47248695411E+04  0.43783199862E+04  0.65000000000E+04  0.00000000000E+00 0. -1.
       22    1    1    2    0    0  0.86943770188E+03  0.47248695411E+04 -0.43783199862E+04  0.65000000000E+04  0.00000000000E+00 0.  1.
</event>
<event>
 4   1  0.3671700E-05  0.8062258E+02  0.7546771E-02  0.1202337E+00
      -11   -1    0    0    0    0  0.00000000000E+00  0.00000000000E+00  0.65000000000E+04  0.65000000000E+04  0.00000000000E+00 0. -1.
       11   -1    0    0    0    0 -0.00000000000E+00 -0.00000000000E+00 -0.65000000000E+04  0.65000000000E+04  0.00000000000E+00 0.  1.
       22    1    1    2    0    0  0.25713182221E+04  0.11159791450E+04  0.58645471393E+04  0.65000000000E+04  0.00000000000E+00 0. -1.
       22    1    1    2    0    0 -0.25713182221E+04 -0.11159791450E+04 -0.58645471393E+04  0.65000000000E+04  0.00000000000E+00 0.  1.
</event>
<event>
 4   1  0.3671700E-05  0.8062258E+02  0.7546771E-02  0.1202337E+00
      -11   -1    0    0    0    0  0.00000000000E+00  0.00000000000E+00  0.65000000000E+04  0.65000000000E+04  0.00000000000E+00 0.  1.
       11   -1    0    0    0    0 -0.00000000000E+00 -0.00000000000E+00 -0.65000000000E+04  0.65000000000E+04  0.00000000000E+00 0. -1.
       22    1    1    2    0    0 -0.75032041322E+03 -0.24957945210E+04  0.59546644730E+04  0.65000000000E+04  0.00000000000E+00 0.  1.
       22    1    1    2    0    0  0.75032041322E+03  0.24957945210E+04 -0.59546644730E+04  0.65000000000E+04  0.00000000000E+00 0. -1.
</event>
<event>
 4   1  0.3671700E-05  0.8062258E+02  0.7546771E-02  0.1202337E+00
      -11   -1    0    0    0    0  0.00000000000E+00  0.00000000000E+00  0.65000000000E+04  0.65000000000E+04  0.00000000000E+00 0.  1.
       11   -1    0    0    0    0 -0.00000000000E+00 -0.00000000000E+00 -0.65000000000E+04  0.65000000000E+04  0.00000000000E+00 0. -1.
       22    1    1    2    0    0 -0.23461925098E+04 -0.55736595350E+04  0.23832121380E+04  0.65000000000E+04  0.00000000000E+00 0. -1.
       22    1    1    2    0    0  0.23461925098E+04  0.55736595350E+04 -0.23832121380E+04  0.65000000000E+04  0.00000000000E+00 0.  1.
</event>
<event>
 5   2  0.3671700E-05  0.7601757E+02  0.7546771E-02  0.1213314E+00
      -11   -1    0    0    0    0  0.00000000000E+00  0.00000000000E+00  0.65000000000E+04  0.65000000000E+04  0.00000000000E+00 0.  1.
       11   -1    0    0    0    0 -0.00000000000E+00 -0.00000000000E+00 -0.65000000000E+04  0.65000000000E+04  0.00000000000E+00 0. -1.
       22    1    1    2    0    0 -0.43484142863E+04  0.13054726693E+04  0.44094870749E+04  0.63290237762E+04  0.00000000000E+00 0.  1.
       22    1    1    2    0    0  0.41265206108E+04 -0.55742816750E+03 -0.32923931495E+04  0.53083661483E+04  0.00000000000E+00 0. -1.
       22    1    1    2    0    0  0.22189367548E+03 -0.74804450178E+03 -0.11170939254E+04  0.13626100756E+04  0.00000000000E+00 0.  1.
</event>
<event>
 4   1  0.3671700E-05  0.8062258E+02  0.7546771E-02  0.1202337E+00
      -11   -1    0    0    0    0  0.00000000000E+00  0.00000000000E+00  0.65000000000E+04  0.65000000000E+04  0.00000000000E+00 0. -1.
       11   -1    0    0    0    0 -0.00000000000E+00 -0.00000000000E+00 -0.65000000000E+04  0.65000000000E+04  0.00000000000E+00 0.  1.
       22    1    1    2    0    0 -0.55103179756E+03 -0.14910286545E+04 -0.63026341723E+04  0.65000000000E+04  0.00000000000E+00 0.  1.
       22    1    1    2    0    0  0.55103179756E+03  0.14910286545E+04  0.63026341723E+04  0.65000000000E+04  0.00000000000E+00 0. -1.
</event>
<event>
 4   1  0.3671700E-05  0.8062258E+02  0.7546771E-02  0.1202337E+00
      -11   -1    0    0    0    0  0.00000000000E+00  0.00000000000E+00  0.65000000000E+04  0.65000000000E+04  0.00000000000E+00 0. -1.
       11   -1    0    0    0    0 -0.00000000000E+00 -0.00000000000E+00 -0.65000000000E+04  0.65000000000E+04  0.00000000000E+00 0.  1.
       22    1    1    2    0    0  0.23566411492E+04 -0.60022931523E+04  0.81775265699E+03  0.65000000000E+04  0.00000000000E+00 0. -1.
       22    1    1    2    0    0 -0.23566411492E+04  0.60022931523E+04 -0.81775265699E+03  0.65000000000E+04  0.00000000000E+00 0.  1.
</event>
<event>
 4   1  0.3671700E-05  0.8062258E+02  0.7546771E-02  0.1202337E+00
      -11   -1    0    0    0    0  0.00000000000E+00  0.00000000000E+00  0.65000000000E+04  0.65000000000E+04  0.00000000000E+00 0. -1.
       11   -1    0    0    0    0 -0.00000000000E+00 -0.00000000000E+00 -0.65000000000E+04  0.65000000000E+04  0.00000000000E+00 0.  1.
       22    1    1    2    0    0 -0.17946146525E+04  0.30762526653E+04 -0.54374651988E+04  0.65000000000E+04  0.00000000000E+00 0.  1.
       22    1    1    2    0    0  0.17946146525E+04 -0.30762526653E+04  0.54374651988E+04  0.65000000000E+04  0.00000000000E+00 0. -1.
</event>
<event>
 4   1  0.3671700E-05  0.8062258E+02  0.7546771E-02  0.1202337E+00
      -11   -1    0    0    0    0  0.00000000000E+00  0.00000000000E+00  0.65000000000E+04  0.65000000000E+04  0.00000000000E+00 0.  1.
       11   -1    0    0    0    0 -0.00000000000E+00 -0.00000000000E+00 -0.65000000000E+04  0.65000000000E+04  0.00000000000E+00 0. -1.
       22    1    1    2    0    0 -0.19527500602E+04 -0.31154810903E+03 -0.61919064090E+04  0.65000000000E+04  0.00000000000E+00 0. -1.
       22    1    1    2    0    0  0.19527500602E+04  0.31154810903E+03  0.61919064090E+04  0.65000000000E+04  0.00000000000E+00 0.  1.
</event>
<event>
 4   1  0.3671700E-05  0.8062258E+02  0.7546771E-02  0.1202337E+00
      -11   -1    0    0    0    0  0.00000000000E+00  0.00000000000E+00  0.65000000000E+04  0.65000000000E+04  0.00000000000E+00 0. -1.
       11   -1    0    0    0    0 -0.00000000000E+00 -0.00000000000E+00 -0.65000000000E+04  0.65000000000E+04  0.00000000000E+00 0.  1.
       22    1    1    2    0    0 -0.19963143293E+04  0.98521384556E+03  0.61068881419E+04  0.65000000000E+04  0.00000000000E+00 0. -1.
       22    1    1    2    0    0  0.19963143293E+04 -0.98521384556E+03 -0.61068881419E+04  0.65000000000E+04  0.00000000000E+00 0.  1.
</event>
<event>
 4   1  0.3671700E-05  0.8062258E+02  0.7546771E-02  0.1202337E+00
      -11   -1    0    0    0    0  0.00000000000E+00  0.00000000000E+00  0.65000000000E+04  0.65000000000E+04  0.00000000000E+00 0. -1.
       11   -1    0    0    0    0 -0.00000000000E+00 -0.00000000000E+00 -0.65000000000E+04  0.65000000000E+04  0.00000000000E+00 0.  1.
       22    1    1    2    0    0 -0.40121390074E+03 -0.61585029608E+04 -0.20400658536E+04  0.65000000000E+04  0.00000000000E+00 0. -1.
       22    1    1    2    0    0  0.40121390074E+03  0.61585029608E+04  0.20400658536E+04  0.65000000000E+04  0.00000000000E+00 0.  1.
</event>
<event>
 4   1  0.3671700E-05  0.8062258E+02  0.7546771E-02  0.1202337E+00
      -11   -1    0    0    0    0  0.00000000000E+00  0.00000000000E+00  0.65000000000E+04  0.65000000000E+04  0.00000000000E+00 0. -1.
       11   -1    0    0    0    0 -0.00000000000E+00 -0.00000000000E+00 -0.65000000000E+04  0.65000000000E+04  0.00000000000E+00 0.  1.
       22    1    1    2    0    0 -0.54854603897E+04 -0.43311477528E+03  0.34600774419E+04  0.65000000000E+04  0.00000000000E+00 0. -1.
       22    1    1    2    0    0  0.54854603897E+04  0.43311477528E+03 -0.34600774419E+04  0.65000000000E+04  0.00000000000E+00 0.  1.
</event>
<event>
 4   1  0.3671700E-05  0.8062258E+02  0.7546771E-02  0.1202337E+00
      -11   -1    0    0    0    0  0.00000000000E+00  0.00000000000E+00  0.65000000000E+04  0.65000000000E+04  0.00000000000E+00 0.  1.
       11   -1    0    0    0    0 -0.00000000000E+00 -0.00000000000E+00 -0.65000000000E+04  0.65000000000E+04  0.00000000000E+00 0. -1.
       22    1    1    2    0    0  0.10650802938E+03  0.28970204020E+04 -0.58177254000E+04  0.65000000000E+04  0.00000000000E+00 0. -1.
       22    1    1    2    0    0 -0.10650802938E+03 -0.28970204020E+04  0.58177254000E+04  0.65000000000E+04  0.00000000000E+00 0.  1.
</event>
<event>
 4   1  0.3671700E-05  0.8062258E+02  0.7546771E-02  0.1202337E+00
      -11   -1    0    0    0    0  0.00000000000E+00  0.00000000000E+00  0.65000000000E+04  0.65000000000E+04  0.00000000000E+00 0.  1.
       11   -1    0    0    0    0 -0.00000000000E+00 -0.00000000000E+00 -0.65000000000E+04  0.65000000000E+04  0.00000000000E+00 0. -1.
       22    1    1    2    0    0  0.12696595290E+04 -0.10031030855E+04 -0.62953751977E+04  0.65000000000E+04  0.00000000000E+00 0. -1.
       22    1    1    2    0    0 -0.12696595290E+04  0.10031030855E+04  0.62953751977E+04  0.65000000000E+04  0.00000000000E+00 0.  1.
</event>
<event>
 4   1  0.3671700E-05  0.8062258E+02  0.7546771E-02  0.1202337E+00
      -11   -1    0    0    0    0  0.00000000000E+00  0.00000000000E+00  0.65000000000E+04  0.65000000000E+04  0.00000000000E+00 0. -1.
       11   -1    0    0    0    0 -0.00000000000E+00 -0.00000000000E+00 -0.65000000000E+04  0.65000000000E+04  0.00000000000E+00 0.  1.
       22    1    1    2    0    0 -0.46254593016E+03 -0.13597196235E+04  0.63393385939E+04  0.65000000000E+04  0.00000000000E+00 0. -1.
       22    1    1    2    0    0  0.46254593016E+03  0.13597196235E+04 -0.63393385939E+04  0.65000000000E+04  0.00000000000E+00 0.  1.
</event>
<event>
 4   1  0.3671700E-05  0.8062258E+02  0.7546771E-02  0.1202337E+00
      -11   -1    0    0    0    0  0.00000000000E+00  0.00000000000E+00  0.65000000000E+04  0.65000000000E+04  0.00000000000E+00 0. -1.
       11   -1    0    0    0    0 -0.00000000000E+00 -0.00000000000E+00 -0.65000000000E+04  0.65000000000E+04  0.00000000000E+00 0.  1.
       22    1    1    2    0    0 -0.21257025440E+04 -0.15438044319E+04  0.59454231616E+04  0.65000000000E+04  0.00000000000E+00 0. -1.
       22    1    1    2    0    0  0.21257025440E+04  0.15438044319E+04 -0.59454231616E+04  0.65000000000E+04  0.00000000000E+00 0.  1.
</event>
<event>
 4   1  0.3671700E-05  0.8062258E+02  0.7546771E-02  0.1202337E+00
      -11   -1    0    0    0    0  0.00000000000E+00  0.00000000000E+00  0.65000000000E+04  0.65000000000E+04  0.00000000000E+00 0.  1.
       11   -1    0    0    0    0 -0.00000000000E+00 -0.00000000000E+00 -0.65000000000E+04  0.65000000000E+04  0.00000000000E+00 0. -1.
       22    1    1    2    0    0 -0.40047622876E+03 -0.13908157485E+04  0.63368170515E+04  0.65000000000E+04  0.00000000000E+00 0.  1.
       22    1    1    2    0    0  0.40047622876E+03  0.13908157485E+04 -0.63368170515E+04  0.65000000000E+04  0.00000000000E+00 0. -1.
</event>
<event>
 4   1  0.3671700E-05  0.8062258E+02  0.7546771E-02  0.1202337E+00
      -11   -1    0    0    0    0  0.00000000000E+00  0.00000000000E+00  0.65000000000E+04  0.65000000000E+04  0.00000000000E+00 0. -1.
       11   -1    0    0    0    0 -0.00000000000E+00 -0.00000000000E+00 -0.65000000000E+04  0.65000000000E+04  0.00000000000E+00 0.  1.
       22    1    1    2    0    0  0.29734939774E+04 -0.70091451318E+03 -0.57373384432E+04  0.65000000000E+04  0.00000000000E+00 0.  1.
       22    1    1    2    0    0 -0.29734939774E+04  0.70091451318E+03  0.57373384432E+04  0.65000000000E+04  0.00000000000E+00 0. -1.
</event>
<event>
 5   2  0.3671700E-05  0.8036217E+02  0.7546771E-02  0.1202936E+00
      -11   -1    0    0    0    0  0.00000000000E+00  0.00000000000E+00  0.65000000000E+04  0.65000000000E+04  0.00000000000E+00 0.  1.
       11   -1    0    0    0    0 -0.00000000000E+00 -0.00000000000E+00 -0.65000000000E+04  0.65000000000E+04  0.00000000000E+00 0. -1.
       22    1    1    2    0    0 -0.11961643373E+04 -0.39693900538E+04  0.49857867951E+04  0.64842066968E+04  0.00000000000E+00 0.  1.
       22    1    1    2    0    0 -0.33156259014E+02 -0.89806439221E+00 -0.76708393596E+02  0.83572254245E+02  0.00000000000E+00 0.  1.
       22    1    1    2    0    0  0.12293205963E+04  0.39702881182E+04 -0.49090784015E+04  0.64322210489E+04  0.00000000000E+00 0. -1.
</event>
<event>
 4   1  0.3671700E-05  0.8062258E+02  0.7546771E-02  0.1202337E+00
      -11   -1    0    0    0    0  0.00000000000E+00  0.00000000000E+00  0.65000000000E+04  0.65000000000E+04  0.00000000000E+00 0. -1.
       11   -1    0    0    0    0 -0.00000000000E+00 -0.00000000000E+00 -0.65000000000E+04  0.65000000000E+04  0.00000000000E+00 0.  1.
       22    1    1    2    0    0 -0.11921450647E+03 -0.11289829805E+04  0.64000926033E+04  0.65000000000E+04  0.00000000000E+00 0. -1.
       22    1    1    2    0    0  0.11921450647E+03  0.11289829805E+04 -0.64000926033E+04  0.65000000000E+04  0.00000000000E+00 0.  1.
</event>
<event>
 4   1  0.3671700E-05  0.8062258E+02  0.7546771E-02  0.1202337E+00
      -11   -1    0    0    0    0  0.00000000000E+00  0.00000000000E+00  0.65000000000E+04  0.65000000000E+04  0.00000000000E+00 0. -1.
       11   -1    0    0    0    0 -0.00000000000E+00 -0.00000000000E+00 -0.65000000000E+04  0.65000000000E+04  0.00000000000E+00 0.  1.
       22    1    1    2    0    0  0.96677468531E+01 -0.13607671917E+04  0.63559593442E+04  0.65000000000E+04  0.00000000000E+00 0. -1.
       22    1    1    2    0    0 -0.96677468531E+01  0.13607671917E+04 -0.63559593442E+04  0.65000000000E+04  0.00000000000E+00 0.  1.
</event>
<event>
 4   1  0.3671700E-05  0.8062258E+02  0.7546771E-02  0.1202337E+00
      -11   -1    0    0    0    0  0.00000000000E+00  0.00000000000E+00  0.65000000000E+04  0.65000000000E+04  0.00000000000E+00 0. -1.
       11   -1    0    0    0    0 -0.00000000000E+00 -0.00000000000E+00 -0.65000000000E+04  0.65000000000E+04  0.00000000000E+00 0.  1.
       22    1    1    2    0    0  0.19787460429E+04 -0.16256699870E+04  0.59742582126E+04  0.65000000000E+04  0.00000000000E+00 0. -1.
       22    1    1    2    0    0 -0.19787460429E+04  0.16256699870E+04 -0.59742582126E+04  0.65000000000E+04  0.00000000000E+00 0.  1.
</event>
<event>
 4   1  0.3671700E-05  0.8062258E+02  0.7546771E-02  0.1202337E+00
      -11   -1    0    0    0    0  0.00000000000E+00  0.00000000000E+00  0.65000000000E+04  0.65000000000E+04  0.00000000000E+00 0.  1.
       11   -1    0    0    0    0 -0.00000000000E+00 -0.00000000000E+00 -0.65000000000E+04  0.65000000000E+04  0.00000000000E+00 0. -1.
       22    1    1    2    0    0 -0.27336350315E+04 -0.58051963627E+04  0.10377546459E+04  0.65000000000E+04  0.00000000000E+00 0.  1.
       22    1    1    2    0    0  0.27336350315E+04  0.58051963627E+04 -0.10377546459E+04  0.65000000000E+04  0.00000000000E+00 0. -1.
</event>
<event>
 5   2  0.3671700E-05  0.7909413E+02  0.7546771E-02  0.1205887E+00
      -11   -1    0    0    0    0  0.00000000000E+00  0.00000000000E+00  0.65000000000E+04  0.65000000000E+04  0.00000000000E+00 0. -1.
       11   -1    0    0    0    0 -0.00000000000E+00 -0.00000000000E+00 -0.65000000000E+04  0.65000000000E+04  0.00000000000E+00 0.  1.
       22    1    1    2    0    0 -0.33780092110E+04  0.33794845006E+04 -0.42429366210E+04  0.63901778449E+04  0.00000000000E+00 0.  1.
       22    1    1    2    0    0 -0.13274587856E+03 -0.77572298732E+02  0.45372676060E+03  0.47906878743E+03  0.00000000000E+00 0.  1.
       22    1    1    2    0    0  0.35107550896E+04 -0.33019122019E+04  0.37892098604E+04  0.61307533676E+04  0.00000000000E+00 0. -1.
</event>
<event>
 5   2  0.3671700E-05  0.8033229E+02  0.7546771E-02  0.1203005E+00
      -11   -1    0    0    0    0  0.00000000000E+00  0.00000000000E+00  0.65000000000E+04  0.65000000000E+04  0.00000000000E+00 0.  1.
       11   -1    0    0    0    0 -0.00000000000E+00 -0.00000000000E+00 -0.65000000000E+04  0.65000000000E+04  0.00000000000E+00 0. -1.
       22    1    1    2    0    0 -0.58682968345E+04 -0.26378018245E+04 -0.65684112796E+03  0.64673291605E+04  0.00000000000E+00 0. -1.
       22    1    1    2    0    0  0.58441580228E+02 -0.67198981297E+02  0.27178181564E+02  0.93111626235E+02  0.00000000000E+00 0.  1.
       22    1    1    2    0    0  0.58098552543E+04  0.27050008058E+04  0.62966294639E+03  0.64395592132E+04  0.00000000000E+00 0.  1.
</event>
<event>
 4   1  0.3671700E-05  0.8062258E+02  0.7546771E-02  0.1202337E+00
      -11   -1    0    0    0    0  0.00000000000E+00  0.00000000000E+00  0.65000000000E+04  0.65000000000E+04  0.00000000000E+00 0.  1.
       11   -1    0    0    0    0 -0.00000000000E+00 -0.00000000000E+00 -0.65000000000E+04  0.65000000000E+04  0.00000000000E+00 0. -1.
       22    1    1    2    0    0 -0.20025383208E+04 -0.11656790203E+04 -0.60729756047E+04  0.65000000000E+04  0.00000000000E+00 0. -1.
       22    1    1    2    0    0  0.20025383208E+04  0.11656790203E+04  0.60729756047E+04  0.65000000000E+04  0.00000000000E+00 0.  1.
</event>
<event>
 4   1  0.3671700E-05  0.8062258E+02  0.7546771E-02  0.1202337E+00
      -11   -1    0    0    0    0  0.00000000000E+00  0.00000000000E+00  0.65000000000E+04  0.65000000000E+04  0.00000000000E+00 0. -1.
       11   -1    0    0    0    0 -0.00000000000E+00 -0.00000000000E+00 -0.65000000000E+04  0.65000000000E+04  0.00000000000E+00 0.  1.
       22    1    1    2    0    0 -0.35908981664E+04  0.12085774133E+04  0.52815519494E+04  0.65000000000E+04  0.00000000000E+00 0. -1.
       22    1    1    2    0    0  0.35908981664E+04 -0.12085774133E+04 -0.52815519494E+04  0.65000000000E+04  0.00000000000E+00 0.  1.
</event>
<event>
 4   1  0.3671700E-05  0.8062258E+02  0.7546771E-02  0.1202337E+00
      -11   -1    0    0    0    0  0.00000000000E+00  0.00000000000E+00  0.65000000000E+04  0.65000000000E+04  0.00000000000E+00 0.  1.
       11   -1    0    0    0    0 -0.00000000000E+00 -0.00000000000E+00 -0.65000000000E+04  0.65000000000E+04  0.00000000000E+00 0. -1.
       22    1    1    2    0    0  0.20977617194E+04  0.71093389483E+03 -0.61109711803E+04  0.65000000000E+04  0.00000000000E+00 0. -1.
       22    1    1    2    0    0 -0.20977617194E+04 -0.71093389483E+03  0.61109711803E+04  0.65000000000E+04  0.00000000000E+00 0.  1.
</event>
<event>
 4   1  0.3671700E-05  0.8062258E+02  0.7546771E-02  0.1202337E+00
      -11   -1    0    0    0    0  0.00000000000E+00  0.00000000000E+00  0.65000000000E+04  0.65000000000E+04  0.00000000000E+00 0. -1.
       11   -1    0    0    0    0 -0.00000000000E+00 -0.00000000000E+00 -0.65000000000E+04  0.65000000000E+04  0.00000000000E+00 0.  1.
       22    1    1    2    0    0 -0.21563357119E+03  0.14051930673E+04 -0.63426283674E+04  0.65000000000E+04  0.00000000000E+00 0.  1.
       22    1    1    2    0    0  0.21563357119E+03 -0.14051930673E+04  0.63426283674E+04  0.65000000000E+04  0.00000000000E+00 0. -1.
</event>
<event>
 4   1  0.3671700E-05  0.8062258E+02  0.7546771E-02  0.1202337E+00
      -11   -1    0    0    0    0  0.00000000000E+00  0.00000000000E+00  0.65000000000E+04  0.65000000000E+04  0.00000000000E+00 0.  1.
       11   -1    0    0    0    0 -0.00000000000E+00 -0.00000000000E+00 -0.65000000000E+04  0.65000000000E+04  0.00000000000E+00 0. -1.
       22    1    1    2    0    0 -0.13089454342E+04  0.24655500501E+04 -0.58700702552E+04  0.65000000000E+04  0.00000000000E+00 0. -1.
       22    1    1    2    0    0  0.13089454342E+04 -0.24655500501E+04  0.58700702552E+04  0.65000000000E+04  0.00000000000E+00 0.  1.
</event>
<event>
 4   1  0.3671700E-05  0.8062258E+02  0.7546771E-02  0.1202337E+00
      -11   -1    0    0    0    0  0.00000000000E+00  0.00000000000E+00  0.65000000000E+04  0.65000000000E+04  0.00000000000E+00 0. -1.
       11   -1    0    0    0    0 -0.00000000000E+00 -0.00000000000E+00 -0.65000000000E+04  0.65000000000E+04  0.00000000000E+00 0.  1.
       22    1    1    2    0    0  0.32686464547E+04  0.14186330854E+04 -0.54363066988E+04  0.65000000000E+04  0.00000000000E+00 0.  1.
       22    1    1    2    0    0 -0.32686464547E+04 -0.14186330854E+04  0.54363066988E+04  0.65000000000E+04  0.00000000000E+00 0. -1.
</event>
<event>
 4   1  0.3671700E-05  0.8062258E+02  0.7546771E-02  0.1202337E+00
      -11   -1    0    0    0    0  0.00000000000E+00  0.00000000000E+00  0.65000000000E+04  0.65000000000E+04  0.00000000000E+00 0. -1.
       11   -1    0    0    0    0 -0.00000000000E+00 -0.00000000000E+00 -0.65000000000E+04  0.65000000000E+04  0.00000000000E+00 0.  1.
       22    1    1    2    0    0  0.17946661344E+04 -0.16387341835E+04 -0.60285755981E+04  0.65000000000E+04  0.00000000000E+00 0.  1.
       22    1    1    2    0    0 -0.17946661344E+04  0.16387341835E+04  0.60285755981E+04  0.65000000000E+04  0.00000000000E+00 0. -1.
</event>
<event>
 4   1  0.3671700E-05  0.8062258E+02  0.7546771E-02  0.1202337E+00
      -11   -1    0    0    0    0  0.00000000000E+00  0.00000000000E+00  0.65000000000E+04  0.65000000000E+04  0.00000000000E+00 0.  1.
       11   -1    0    0    0    0 -0.00000000000E+00 -0.00000000000E+00 -0.65000000000E+04  0.65000000000E+04  0.00000000000E+00 0. -1.
       22    1    1    2    0    0 -0.60080783432E+04  0.22796409757E+04  0.97787097523E+03  0.65000000000E+04  0.00000000000E+00 0.  1.
       22    1    1    2    0    0  0.60080783432E+04 -0.22796409757E+04 -0.97787097523E+03  0.65000000000E+04  0.00000000000E+00 0. -1.
</event>
<event>
 4   1  0.3671700E-05  0.8062258E+02  0.7546771E-02  0.1202337E+00
      -11   -1    0    0    0    0  0.00000000000E+00  0.00000000000E+00  0.65000000000E+04  0.65000000000E+04  0.00000000000E+00 0.  1.
       11   -1    0    0    0    0 -0.00000000000E+00 -0.00000000000E+00 -0.65000000000E+04  0.65000000000E+04  0.00000000000E+00 0. -1.
       22    1    1    2    0    0  0.45255069263E+04 -0.46658061412E+04 -0.63335029271E+01  0.65000000000E+04  0.00000000000E+00 0.  1.
       22    1    1    2    0    0 -0.45255069263E+04  0.46658061412E+04  0.63335029271E+01  0.65000000000E+04  0.00000000000E+00 0. -1.
</event>
<event>
 4   1  0.3671700E-05  0.8062258E+02  0.7546771E-02  0.1202337E+00
      -11   -1    0    0    0    0  0.00000000000E+00  0.00000000000E+00  0.65000000000E+04  0.65000000000E+04  0.00000000000E+00 0. -1.
       11   -1    0    0    0    0 -0.00000000000E+00 -0.00000000000E+00 -0.65000000000E+04  0.65000000000E+04  0.00000000000E+00 0.  1.
       22    1    1    2    0    0 -0.50504985788E+04  0.14506718913E+04  0.38259659133E+04  0.65000000000E+04  0.00000000000E+00 0. -1.
       22    1    1    2    0    0  0.50504985788E+04 -0.14506718913E+04 -0.38259659133E+04  0.65000000000E+04  0.00000000000E+00 0.  1.
</event>
<event>
 4   1  0.3671700E-05  0.8062258E+02  0.7546771E-02  0.1202337E+00
      -11   -1    0    0    0    0  0.00000000000E+00  0.00000000000E+00  0.65000000000E+04  0.65000000000E+04  0.00000000000E+00 0.  1.
       11   -1    0    0    0    0 -0.00000000000E+00 -0.00000000000E+00 -0.65000000000E+04  0.65000000000E+04  0.00000000000E+00 0. -1.
       22    1    1    2    0    0  0.43630881161E+04  0.24235495821E+04  0.41641168949E+04  0.65000000000E+04  0.00000000000E+00 0. -1.
       22    1    1    2    0    0 -0.43630881161E+04 -0.24235495821E+04 -0.41641168949E+04  0.65000000000E+04  0.00000000000E+00 0.  1.
</event>
<event>
 4   1  0.3671700E-05  0.8062258E+02  0.7546771E-02  0.1202337E+00
      -11   -1    0    0    0    0  0.00000000000E+00  0.00000000000E+00  0.65000000000E+04  0.65000000000E+04  0.00000000000E+00 0.  1.
       11   -1    0    0    0    0 -0.00000000000E+00 -0.00000000000E+00 -0.65000000000E+04  0.65000000000E+04  0.00000000000E+00 0. -1.
       22    1    1    2    0    0  0.23756952074E+04  0.36055523516E+04 -0.48586072614E+04  0.65000000000E+04  0.00000000000E+00 0. -1.
       22    1    1    2    0    0 -0.23756952074E+04 -0.36055523516E+04  0.48586072614E+04  0.65000000000E+04  0.00000000000E+00 0.  1.
</event>
<event>
 4   1  0.3671700E-05  0.8062258E+02  0.7546771E-02  0.1202337E+00
      -11   -1    0    0    0    0  0.00000000000E+00  0.00000000000E+00  0.65000000000E+04  0.65000000000E+04  0.00000000000E+00 0.  1.
       11   -1    0    0    0    0 -0.00000000000E+00 -0.00000000000E+00 -0.65000000000E+04  0.65000000000E+04  0.00000000000E+00 0. -1.
       22    1    1    2    0    0  0.10840536783E+04  0.47841870183E+04  0.42645494717E+04  0.65000000000E+04  0.00000000000E+00 0.  1.
       22    1    1    2    0    0 -0.10840536783E+04 -0.47841870183E+04 -0.42645494717E+04  0.65000000000E+04  0.00000000000E+00 0. -1.
</event>
<event>
 4   1  0.3671700E-05  0.8062258E+02  0.7546771E-02  0.1202337E+00
      -11   -1    0    0    0    0  0.00000000000E+00  0.00000000000E+00  0.65000000000E+04  0.65000000000E+04  0.00000000000E+00 0. -1.
       11   -1    0    0    0    0 -0.00000000000E+00 -0.00000000000E+00 -0.65000000000E+04  0.65000000000E+04  0.00000000000E+00 0.  1.
       22    1    1    2    0    0  0.26314427699E+04 -0.61585468485E+03 -0.59115338074E+04  0.65000000000E+04  0.00000000000E+00 0.  1.
       22    1    1    2    0    0 -0.26314427699E+04  0.61585468485E+03  0.59115338074E+04  0.65000000000E+04  0.00000000000E+00 0. -1.
</event>
<event>
 4   1  0.3671700E-05  0.8062258E+02  0.7546771E-02  0.1202337E+00
      -11   -1    0    0    0    0  0.00000000000E+00  0.00000000000E+00  0.65000000000E+04  0.65000000000E+04  0.00000000000E+00 0. -1.
       11   -1    0    0    0    0 -0.00000000000E+00 -0.00000000000E+00 -0.65000000000E+04  0.65000000000E+04  0.00000000000E+00 0.  1.
       22    1    1    2    0    0  0.18567294297E+04 -0.59463496128E+03  0.62007229488E+04  0.65000000000E+04  0.00000000000E+00 0. -1.
       22    1    1    2    0    0 -0.18567294297E+04  0.59463496128E+03 -0.62007229488E+04  0.65000000000E+04  0.00000000000E+00 0.  1.
</event>
<event>
 5   2  0.3671700E-05  0.7689148E+02  0.7546771E-02  0.1211165E+00
      -11   -1    0    0    0    0  0.00000000000E+00  0.00000000000E+00  0.65000000000E+04  0.65000000000E+04  0.00000000000E+00 0.  1.
       11   -1    0    0    0    0 -0.00000000000E+00 -0.00000000000E+00 -0.65000000000E+04  0.65000000000E+04  0.00000000000E+00 0. -1.
       22    1    1    2    0    0  0.44062642754E+04  0.36463673624E+04 -0.28595594991E+04  0.63943913186E+04  0.00000000000E+00 0. -1.
       22    1    1    2    0    0 -0.35323105864E+04 -0.29524764986E+04  0.29787128620E+04  0.54833444054E+04  0.00000000000E+00 0.  1.
       22    1    1    2    0    0 -0.87395368900E+03 -0.69389086376E+03 -0.11915336292E+03  0.11222642760E+04  0.00000000000E+00 0.  1.
</event>
<event>
 4   1  0.3671700E-05  0.8062258E+02  0.7546771E-02  0.1202337E+00
      -11   -1    0    0    0    0  0.00000000000E+00  0.00000000000E+00  0.65000000000E+04  0.65000000000E+04  0.00000000000E+00 0. -1.
       11   -1    0    0    0    0 -0.00000000000E+00 -0.00000000000E+00 -0.65000000000E+04  0.65000000000E+04  0.00000000000E+00 0.  1.
       22    1    1    2    0    0 -0.36551665111E+04 -0.32776066454E+04  0.42599357335E+04  0.65000000000E+04  0.00000000000E+00 0. -1.
       22    1    1    2    0    0  0.36551665111E+04  0.32776066454E+04 -0.42599357335E+04  0.65000000000E+04  0.00000000000E+00 0.  1.
</event>
<event>
 4   1  0.3671700E-05  0.8062258E+02  0.7546771E-02  0.1202337E+00
      -11   -1    0    0    0    0  0.00000000000E+00  0.00000000000E+00  0.65000000000E+04  0.65000000000E+04  0.00000000000E+00 0.  1.
       11   -1    0    0    0    0 -0.00000000000E+00 -0.00000000000E+00 -0.65000000000E+04  0.65000000000E+04  0.00000000000E+00 0. -1.
       22    1    1    2    0    0  0.34176965641E+04 -0.16586473992E+04 -0.52742998588E+04  0.65000000000E+04  0.00000000000E+00 0. -1.
       22    1    1    2    0    0 -0.34176965641E+04  0.16586473992E+04  0.52742998588E+04  0.65000000000E+04  0.00000000000E+00 0.  1.
</event>
<event>
 4   1  0.3671700E-05  0.8062258E+02  0.7546771E-02  0.1202337E+00
      -11   -1    0    0    0    0  0.00000000000E+00  0.00000000000E+00  0.65000000000E+04  0.65000000000E+04  0.00000000000E+00 0.  1.
       11   -1    0    0    0    0 -0.00000000000E+00 -0.00000000000E+00 -0.65000000000E+04  0.65000000000E+04  0.00000000000E+00 0. -1.
       22    1    1    2    0    0  0.37014566560E+03 -0.19154007217E+04  0.62003413020E+04  0.65000000000E+04  0.00000000000E+00 0.  1.
       22    1    1    2    0    0 -0.37014566560E+03  0.19154007217E+04 -0.62003413020E+04  0.65000000000E+04  0.00000000000E+00 0. -1.
</event>
<event>
 4   1  0.3671700E-05  0.8062258E+02  0.7546771E-02  0.1202337E+00
      -11   -1    0    0    0    0  0.00000000000E+00  0.00000000000E+00  0.65000000000E+04  0.65000000000E+04  0.00000000000E+00 0. -1.
       11   -1    0    0    0    0 -0.00000000000E+00 -0.00000000000E+00 -0.65000000000E+04  0.65000000000E+04  0.00000000000E+00 0.  1.
       22    1    1    2    0    0  0.13711172921E+04  0.10097168902E+04 -0.62729984197E+04  0.65000000000E+04  0.00000000000E+00 0.  1.
       22    1    1    2    0    0 -0.13711172921E+04 -0.10097168902E+04  0.62729984197E+04  0.65000000000E+04  0.00000000000E+00 0. -1.
</event>
<event>
 4   1  0.3671700E-05  0.8062258E+02  0.7546771E-02  0.1202337E+00
      -11   -1    0    0    0    0  0.00000000000E+00  0.00000000000E+00  0.65000000000E+04  0.65000000000E+04  0.00000000000E+00 0. -1.
       11   -1    0    0    0    0 -0.00000000000E+00 -0.00000000000E+00 -0.65000000000E+04  0.65000000000E+04  0.00000000000E+00 0.  1.
       22    1    1    2    0    0  0.33008673508E+04 -0.31179699712E+04 -0.46510792286E+04  0.65000000000E+04  0.00000000000E+00 0.  1.
       22    1    1    2    0    0 -0.33008673508E+04  0.31179699712E+04  0.46510792286E+04  0.65000000000E+04  0.00000000000E+00 0. -1.
</event>
<event>
 4   1  0.3671700E-05  0.8062258E+02  0.7546771E-02  0.1202337E+00
      -11   -1    0    0    0    0  0.00000000000E+00  0.00000000000E+00  0.65000000000E+04  0.65000000000E+04  0.00000000000E+00 0. -1.
       11   -1    0    0    0    0 -0.00000000000E+00 -0.00000000000E+00 -0.65000000000E+04  0.65000000000E+04  0.00000000000E+00 0.  1.
       22    1    1    2    0    0 -0.61905863542E+04  0.84000594075E+03  0.17947229901E+04  0.65000000000E+04  0.00000000000E+00 0.  1.
       22    1    1    2    0    0  0.61905863542E+04 -0.84000594075E+03 -0.17947229901E+04  0.65000000000E+04  0.00000000000E+00 0. -1.
</event>
<event>
 4   1  0.3671700E-05  0.8062258E+02  0.7546771E-02  0.1202337E+00
      -11   -1    0    0    0    0  0.00000000000E+00  0.00000000000E+00  0.65000000000E+04  0.65000000000E+04  0.00000000000E+00 0. -1.
       11   -1    0    0    0    0 -0.00000000000E+00 -0.00000000000E+00 -0.65000000000E+04  0.65000000000E+04  0.00000000000E+00 0.  1.
       22    1    1    2    0    0  0.25272543607E+04 -0.24446137291E+04  0.54668866013E+04  0.65000000000E+04  0.00000000000E+00 0. -1.
       22    1    1    2    0    0 -0.25272543607E+04  0.24446137291E+04 -0.54668866013E+04  0.65000000000E+04  0.00000000000E+00 0.  1.
</event>
<event>
 4   1  0.3671700E-05  0.8062258E+02  0.7546771E-02  0.1202337E+00
      -11   -1    0    0    0    0  0.00000000000E+00  0.00000000000E+00  0.65000000000E+04  0.65000000000E+04  0.00000000000E+00 0. -1.
       11   -1    0    0    0    0 -0.00000000000E+00 -0.00000000000E+00 -0.65000000000E+04  0.65000000000E+04  0.00000000000E+00 0.  1.
       22    1    1    2    0    0  0.10749085980E+04 -0.89630146977E+03  0.63475361505E+04  0.65000000000E+04  0.00000000000E+00 0. -1.
       22    1    1    2    0    0 -0.10749085980E+04  0.89630146977E+03 -0.63475361505E+04  0.65000000000E+04  0.00000000000E+00 0.  1.
</event>
<event>
 4   1  0.3671700E-05  0.8062258E+02  0.7546771E-02  0.1202337E+00
      -11   -1    0    0    0    0  0.00000000000E+00  0.00000000000E+00  0.65000000000E+04  0.65000000000E+04  0.00000000000E+00 0.  1.
       11   -1    0    0    0    0 -0.00000000000E+00 -0.00000000000E+00 -0.65000000000E+04  0.65000000000E+04  0.00000000000E+00 0. -1.
       22    1    1    2    0    0  0.43193953971E+04  0.15662943679E+04  0.45977761316E+04  0.65000000000E+04  0.00000000000E+00 0.  1.
       22    1    1    2    0    0 -0.43193953971E+04 -0.15662943679E+04 -0.45977761316E+04  0.65000000000E+04  0.00000000000E+00 0. -1.
</event>
<event>
 5   2  0.3671700E-05  0.8057316E+02  0.7546771E-02  0.1202451E+00
      -11   -1    0    0    0    0  0.00000000000E+00  0.00000000000E+00  0.65000000000E+04  0.65000000000E+04  0.00000000000E+00 0.  1.
       11   -1    0    0    0    0 -0.00000000000E+00 -0.00000000000E+00 -0.65000000000E+04  0.65000000000E+04  0.00000000000E+00 0. -1.
       22    1    1    2    0    0 -0.33102095352E+03  0.16662042134E+04  0.62681088103E+04  0.64942281613E+04  0.00000000000E+00 0.  1.
       22    1    1    2    0    0  0.33016328416E+03 -0.16503080140E+04 -0.62678248630E+04  0.64898499866E+04  0.00000000000E+00 0. -1.
       22    1    1    2    0    0  0.85766936449E+00 -0.15896199347E+02 -0.28394737084E+00  0.15921852170E+02  0.00000000000E+00 0. -1.
</event>
<event>
 4   1  0.3671700E-05  0.8062258E+02  0.7546771E-02  0.1202337E+00
      -11   -1    0    0    0    0  0.00000000000E+00  0.00000000000E+00  0.65000000000E+04  0.65000000000E+04  0.00000000000E+00 0. -1.
       11   -1    0    0    0    0 -0.00000000000E+00 -0.00000000000E+00 -0.65000000000E+04  0.65000000000E+04  0.00000000000E+00 0.  1.
       22    1    1    2    0    0  0.46812039557E+04  0.16139144233E+04 -0.42108918010E+04  0.65000000000E+04  0.00000000000E+00 0.  1.
       22    1    1    2    0    0 -0.46812039557E+04 -0.16139144233E+04  0.42108918010E+04  0.65000000000E+04  0.00000000000E+00 0. -1.
</event>
<event>
 4   1  0.3671700E-05  0.8062258E+02  0.7546771E-02  0.1202337E+00
      -11   -1    0    0    0    0  0.00000000000E+00  0.00000000000E+00  0.65000000000E+04  0.65000000000E+04  0.00000000000E+00 0.  1.
       11   -1    0    0    0    0 -0.00000000000E+00 -0.00000000000E+00 -0.65000000000E+04  0.65000000000E+04  0.00000000000E+00 0. -1.
       22    1    1    2    0    0 -0.44134188984E+04 -0.31219152916E+04  0.36090689297E+04  0.65000000000E+04  0.00000000000E+00 0.  1.
       22    1    1    2    0    0  0.44134188984E+04  0.31219152916E+04 -0.36090689297E+04  0.65000000000E+04  0.00000000000E+00 0. -1.
</event>
<event>
 4   1  0.3671700E-05  0.8062258E+02  0.7546771E-02  0.1202337E+00
      -11   -1    0    0    0    0  0.00000000000E+00  0.00000000000E+00  0.65000000000E+04  0.65000000000E+04  0.00000000000E+00 0.  1.
       11   -1    0    0    0    0 -0.00000000000E+00 -0.00000000000E+00 -0.65000000000E+04  0.65000000000E+04  0.00000000000E+00 0. -1.
       22    1    1    2    0    0 -0.19565353736E+02 -0.27639013698E+04  0.58830660726E+04  0.65000000000E+04  0.00000000000E+00 0.  1.
       22    1    1    2    0    0  0.19565353736E+02  0.27639013698E+04 -0.58830660726E+04  0.65000000000E+04  0.00000000000E+00 0. -1.
</event>
<event>
 4   1  0.3671700E-05  0.8062258E+02  0.7546771E-02  0.1202337E+00
      -11   -1    0    0    0    0  0.00000000000E+00  0.00000000000E+00  0.65000000000E+04  0.65000000000E+04  0.00000000000E+00 0.  1.
       11   -1    0    0    0    0 -0.00000000000E+00 -0.00000000000E+00 -0.65000000000E+04  0.65000000000E+04  0.00000000000E+00 0. -1.
       22    1    1    2    0    0 -0.17161881768E+04  0.49195652623E+04  0.38862032592E+04  0.65000000000E+04  0.00000000000E+00 0.  1.
       22    1    1    2    0    0  0.17161881768E+04 -0.49195652623E+04 -0.38862032592E+04  0.65000000000E+04  0.00000000000E+00 0. -1.
</event>
<event>
 4   1  0.3671700E-05  0.8062258E+02  0.7546771E-02  0.1202337E+00
      -11   -1    0    0    0    0  0.00000000000E+00  0.00000000000E+00  0.65000000000E+04  0.65000000000E+04  0.00000000000E+00 0.  1.
       11   -1    0    0    0    0 -0.00000000000E+00 -0.00000000000E+00 -0.65000000000E+04  0.65000000000E+04  0.00000000000E+00 0. -1.
       22    1    1    2    0    0  0.78080686776E+03 -0.27993397272E+04  0.58141239862E+04  0.65000000000E+04  0.00000000000E+00 0.  1.
       22    1    1    2    0    0 -0.78080686776E+03  0.27993397272E+04 -0.58141239862E+04  0.65000000000E+04  0.00000000000E+00 0. -1.
</event>
<event>
 5   2  0.3671700E-05  0.7601687E+02  0.7546771E-02  0.1213316E+00
      -11   -1    0    0    0    0  0.00000000000E+00  0.00000000000E+00  0.65000000000E+04  0.65000000000E+04  0.00000000000E+00 0. -1.
       11   -1    0    0    0    0 -0.00000000000E+00 -0.00000000000E+00 -0.65000000000E+04  0.65000000000E+04  0.00000000000E+00 0.  1.
       22    1    1    2    0    0 -0.23056816537E+03  0.30224742244E+03 -0.13087029196E+04  0.13627980463E+04  0.00000000000E+00 0.  1.
       22    1    1    2    0    0  0.39024437819E+03 -0.24267908038E+04  0.60004523779E+04  0.64843683593E+04  0.00000000000E+00 0. -1.
       22    1    1    2    0    0 -0.15967621282E+03  0.21245433814E+04 -0.46917494583E+04  0.51528335944E+04  0.00000000000E+00 0.  1.
</event>
<event>
 4   1  0.3671700E-05  0.8062258E+02  0.7546771E-02  0.1202337E+00
      -11   -1    0    0    0    0  0.00000000000E+00  0.00000000000E+00  0.65000000000E+04  0.65000000000E+04  0.00000000000E+00 0. -1.
       11   -1    0    0    0    0 -0.00000000000E+00 -0.00000000000E+00 -0.65000000000E+04  0.65000000000E+04  0.00000000000E+00 0.  1.
       22    1    1    2    0    0 -0.40387050977E+03  0.36017506988E+04 -0.53957650537E+04  0.65000000000E+04  0.00000000000E+00 0.  1.
       22    1    1    2    0    0  0.40387050977E+03 -0.36017506988E+04  0.53957650537E+04  0.65000000000E+04  0.00000000000E+00 0. -1.
</event>
<event>
 4   1  0.3671700E-05  0.8062258E+02  0.7546771E-02  0.1202337E+00
      -11   -1    0    0    0    0  0.00000000000E+00  0.00000000000E+00  0.65000000000E+04  0.65000000000E+04  0.00000000000E+00 0.  1.
       11   -1    0    0    0    0 -0.00000000000E+00 -0.00000000000E+00 -0.65000000000E+04  0.65000000000E+04  0.00000000000E+00 0. -1.
       22    1    1    2    0    0 -0.27295109191E+04 -0.19395103887E+04  0.55711820644E+04  0.65000000000E+04  0.00000000000E+00 0.  1.
       22    1    1    2    0    0  0.27295109191E+04  0.19395103887E+04 -0.55711820644E+04  0.65000000000E+04  0.00000000000E+00 0. -1.
</event>
<event>
 4   1  0.3671700E-05  0.8062258E+02  0.7546771E-02  0.1202337E+00
      -11   -1    0    0    0    0  0.00000000000E+00  0.00000000000E+00  0.65000000000E+04  0.65000000000E+04  0.00000000000E+00 0. -1.
       11   -1    0    0    0    0 -0.00000000000E+00 -0.00000000000E+00 -0.65000000000E+04  0.65000000000E+04  0.00000000000E+00 0.  1.
       22    1    1    2    0    0  0.41679188093E+04 -0.27892000571E+04 -0.41350714432E+04  0.65000000000E+04  0.00000000000E+00 0.  1.
       22    1    1    2    0    0 -0.41679188093E+04  0.27892000571E+04  0.41350714432E+04  0.65000000000E+04  0.00000000000E+00 0. -1.
</event>
<event>
 5   2  0.3671700E-05  0.7163019E+02  0.7546771E-02  0.1224619E+00
      -11   -1    0    0    0    0  0.00000000000E+00  0.00000000000E+00  0.65000000000E+04  0.65000000000E+04  0.00000000000E+00 0.  1.
       11   -1    0    0    0    0 -0.00000000000E+00 -0.00000000000E+00 -0.65000000000E+04  0.65000000000E+04  0.00000000000E+00 0. -1.
       22    1    1    2    0    0  0.59322604507E+04 -0.12650843667E+04 -0.12170562479E+04  0.61865481830E+04  0.00000000000E+00 0. -1.
       22    1    1    2    0    0 -0.36508150771E+04  0.21433549058E+04  0.10576376154E+04  0.43636015292E+04  0.00000000000E+00 0.  1.
       22    1    1    2    0    0 -0.22814453736E+04 -0.87827053907E+03  0.15941863254E+03  0.24498502878E+04  0.00000000000E+00 0.  1.
</event>
<event>
 4   1  0.3671700E-05  0.8062258E+02  0.7546771E-02  0.1202337E+00
      -11   -1    0    0    0    0  0.00000000000E+00  0.00000000000E+00  0.65000000000E+04  0.65000000000E+04  0.00000000000E+00 0. -1.
       11   -1    0    0    0    0 -0.00000000000E+00 -0.00000000000E+00 -0.65000000000E+04  0.65000000000E+04  0.00000000000E+00 0.  1.
       22    1    1    2    0    0 -0.56109007820E+04 -0.11570871091E+03  0.32793907832E+04  0.65000000000E+04  0.00000000000E+00 0. -1.
       22    1    1    2    0    0  0.56109007820E+04  0.11570871091E+03 -0.32793907832E+04  0.65000000000E+04  0.00000000000E+00 0.  1.
</event>
<event>
 4   1  0.3671700E-05  0.8062258E+02  0.7546771E-02  0.1202337E+00
      -11   -1    0    0    0    0  0.00000000000E+00  0.00000000000E+00  0.65000000000E+04  0.65000000000E+04  0.00000000000E+00 0. -1.
       11   -1    0    0    0    0 -0.00000000000E+00 -0.00000000000E+00 -0.65000000000E+04  0.65000000000E+04  0.00000000000E+00 0.  1.
       22    1    1    2    0    0  0.76078982919E+03  0.10845408221E+04  0.63635658275E+04  0.65000000000E+04  0.00000000000E+00 0. -1.
       22    1    1    2    0    0 -0.76078982919E+03 -0.10845408221E+04 -0.63635658275E+04  0.65000000000E+04  0.00000000000E+00 0.  1.
</event>
<event>
 4   1  0.3671700E-05  0.8062258E+02  0.7546771E-02  0.1202337E+00
      -11   -1    0    0    0    0  0.00000000000E+00  0.00000000000E+00  0.65000000000E+04  0.65000000000E+04  0.00000000000E+00 0. -1.
       11   -1    0    0    0    0 -0.00000000000E+00 -0.00000000000E+00 -0.65000000000E+04  0.65000000000E+04  0.00000000000E+00 0.  1.
       22    1    1    2    0    0  0.92478984383E+03 -0.31861813221E+04  0.55895449124E+04  0.65000000000E+04  0.00000000000E+00 0. -1.
       22    1    1    2    0    0 -0.92478984383E+03  0.31861813221E+04 -0.55895449124E+04  0.65000000000E+04  0.00000000000E+00 0.  1.
</event>
<event>
 4   1  0.3671700E-05  0.8062258E+02  0.7546771E-02  0.1202337E+00
      -11   -1    0    0    0    0  0.00000000000E+00  0.00000000000E+00  0.65000000000E+04  0.65000000000E+04  0.00000000000E+00 0. -1.
       11   -1    0    0    0    0 -0.00000000000E+00 -0.00000000000E+00 -0.65000000000E+04  0.65000000000E+04  0.00000000000E+00 0.  1.
       22    1    1    2    0    0  0.37523401337E+03 -0.11509160228E+04  0.63862815271E+04  0.65000000000E+04  0.00000000000E+00 0. -1.
       22    1    1    2    0    0 -0.37523401337E+03  0.11509160228E+04 -0.63862815271E+04  0.65000000000E+04  0.00000000000E+00 0.  1.
</event>
<event>
 4   1  0.3671700E-05  0.8062258E+02  0.7546771E-02  0.1202337E+00
      -11   -1    0    0    0    0  0.00000000000E+00  0.00000000000E+00  0.65000000000E+04  0.65000000000E+04  0.00000000000E+00 0.  1.
       11   -1    0    0    0    0 -0.00000000000E+00 -0.00000000000E+00 -0.65000000000E+04  0.65000000000E+04  0.00000000000E+00 0. -1.
       22    1    1    2    0    0 -0.24329991986E+04  0.27668797024E+04 -0.53548941738E+04  0.65000000000E+04  0.00000000000E+00 0. -1.
       22    1    1    2    0    0  0.24329991986E+04 -0.27668797024E+04  0.53548941738E+04  0.65000000000E+04  0.00000000000E+00 0.  1.
</event>
<event>
 4   1  0.3671700E-05  0.8062258E+02  0.7546771E-02  0.1202337E+00
      -11   -1    0    0    0    0  0.00000000000E+00  0.00000000000E+00  0.65000000000E+04  0.65000000000E+04  0.00000000000E+00 0. -1.
       11   -1    0    0    0    0 -0.00000000000E+00 -0.00000000000E+00 -0.65000000000E+04  0.65000000000E+04  0.00000000000E+00 0.  1.
       22    1    1    2    0    0  0.36073418467E+04  0.49646849367E+03  0.53842923245E+04  0.65000000000E+04  0.00000000000E+00 0. -1.
       22    1    1    2    0    0 -0.36073418467E+04 -0.49646849367E+03 -0.53842923245E+04  0.65000000000E+04  0.00000000000E+00 0.  1.
</event>
<event>
 4   1  0.3671700E-05  0.8062258E+02  0.7546771E-02  0.1202337E+00
      -11   -1    0    0    0    0  0.00000000000E+00  0.00000000000E+00  0.65000000000E+04  0.65000000000E+04  0.00000000000E+00 0.  1.
       11   -1    0    0    0    0 -0.00000000000E+00 -0.00000000000E+00 -0.65000000000E+04  0.65000000000E+04  0.00000000000E+00 0. -1.
       22    1    1    2    0    0 -0.72178713700E+03 -0.32588965586E+04 -0.55775098879E+04  0.65000000000E+04  0.00000000000E+00 0. -1.
       22    1    1    2    0    0  0.72178713700E+03  0.32588965586E+04  0.55775098879E+04  0.65000000000E+04  0.00000000000E+00 0.  1.
</event>
<event>
 4   1  0.3671700E-05  0.8062258E+02  0.7546771E-02  0.1202337E+00
      -11   -1    0    0    0    0  0.00000000000E+00  0.00000000000E+00  0.65000000000E+04  0.65000000000E+04  0.00000000000E+00 0. -1.
       11   -1    0    0    0    0 -0.00000000000E+00 -0.00000000000E+00 -0.65000000000E+04  0.65000000000E+04  0.00000000000E+00 0.  1.
       22    1    1    2    0    0 -0.63283394232E+03  0.27763522949E+04 -0.58430633349E+04  0.65000000000E+04  0.00000000000E+00 0.  1.
       22    1    1    2    0    0  0.63283394232E+03 -0.27763522949E+04  0.58430633349E+04  0.65000000000E+04  0.00000000000E+00 0. -1.
</event>
<event>
 5   2  0.3671700E-05  0.8011300E+02  0.7546771E-02  0.1203511E+00
      -11   -1    0    0    0    0  0.00000000000E+00  0.00000000000E+00  0.65000000000E+04  0.65000000000E+04  0.00000000000E+00 0. -1.
       11   -1    0    0    0    0 -0.00000000000E+00 -0.00000000000E+00 -0.65000000000E+04  0.65000000000E+04  0.00000000000E+00 0.  1.
       22    1    1    2    0    0  0.11570658783E+03 -0.84693229304E+02 -0.77052195222E+02  0.16278205781E+03  0.00000000000E+00 0.  1.
       22    1    1    2    0    0  0.59293900774E+04 -0.14502880089E+04 -0.17285091346E+04  0.63441899268E+04  0.00000000000E+00 0.  1.
       22    1    1    2    0    0 -0.60450966652E+04  0.15349812382E+04  0.18055613298E+04  0.64930280154E+04  0.00000000000E+00 0. -1.
</event>
<event>
 4   1  0.3671700E-05  0.8062258E+02  0.7546771E-02  0.1202337E+00
      -11   -1    0    0    0    0  0.00000000000E+00  0.00000000000E+00  0.65000000000E+04  0.65000000000E+04  0.00000000000E+00 0.  1.
       11   -1    0    0    0    0 -0.00000000000E+00 -0.00000000000E+00 -0.65000000000E+04  0.65000000000E+04  0.00000000000E+00 0. -1.
       22    1    1    2    0    0 -0.86125603800E+03 -0.10000160296E+04 -0.63646057205E+04  0.65000000000E+04  0.00000000000E+00 0. -1.
       22    1    1    2    0    0  0.86125603800E+03  0.10000160296E+04  0.63646057205E+04  0.65000000000E+04  0.00000000000E+00 0.  1.
</event>
<event>
 5   2  0.3671700E-05  0.8004131E+02  0.7546771E-02  0.1203677E+00
      -11   -1    0    0    0    0  0.00000000000E+00  0.00000000000E+00  0.65000000000E+04  0.65000000000E+04  0.00000000000E+00 0.  1.
       11   -1    0    0    0    0 -0.00000000000E+00 -0.00000000000E+00 -0.65000000000E+04  0.65000000000E+04  0.00000000000E+00 0. -1.
       22    1    1    2    0    0 -0.50292733288E+02 -0.17132291250E+03 -0.50057724454E+02  0.18543644503E+03  0.00000000000E+00 0. -1.
       22    1    1    2    0    0 -0.34174109758E+04  0.19158371474E+03  0.54270954724E+04  0.64162892207E+04  0.00000000000E+00 0. -1.
       22    1    1    2    0    0  0.34677037091E+04 -0.20260802240E+02 -0.53770377479E+04  0.63982743343E+04  0.00000000000E+00 0.  1.
</event>
<event>
 4   1  0.3671700E-05  0.8062258E+02  0.7546771E-02  0.1202337E+00
      -11   -1    0    0    0    0  0.00000000000E+00  0.00000000000E+00  0.65000000000E+04  0.65000000000E+04  0.00000000000E+00 0. -1.
       11   -1    0    0    0    0 -0.00000000000E+00 -0.00000000000E+00 -0.65000000000E+04  0.65000000000E+04  0.00000000000E+00 0.  1.
       22    1    1    2    0    0 -0.33798887252E+04 -0.19920872116E+04 -0.51824647367E+04  0.65000000000E+04  0.00000000000E+00 0.  1.
       22    1    1    2    0    0  0.33798887252E+04  0.19920872116E+04  0.51824647367E+04  0.65000000000E+04  0.00000000000E+00 0. -1.
</event>
<event>
 4   1  0.3671700E-05  0.8062258E+02  0.7546771E-02  0.1202337E+00
      -11   -1    0    0    0    0  0.00000000000E+00  0.00000000000E+00  0.65000000000E+04  0.65000000000E+04  0.00000000000E+00 0. -1.
       11   -1    0    0    0    0 -0.00000000000E+00 -0.00000000000E+00 -0.65000000000E+04  0.65000000000E+04  0.00000000000E+00 0.  1.
       22    1    1    2    0    0 -0.11919378434E+04  0.11820389343E+04  0.62794958504E+04  0.65000000000E+04  0.00000000000E+00 0. -1.
       22    1    1    2    0    0  0.11919378434E+04 -0.11820389343E+04 -0.62794958504E+04  0.65000000000E+04  0.00000000000E+00 0.  1.
</event>
<event>
 4   1  0.3671700E-05  0.8062258E+02  0.7546771E-02  0.1202337E+00
      -11   -1    0    0    0    0  0.00000000000E+00  0.00000000000E+00  0.65000000000E+04  0.65000000000E+04  0.00000000000E+00 0.  1.
       11   -1    0    0    0    0 -0.00000000000E+00 -0.00000000000E+00 -0.65000000000E+04  0.65000000000E+04  0.00000000000E+00 0. -1.
       22    1    1    2    0    0  0.93310394601E+03 -0.79985742028E+03 -0.63827537265E+04  0.65000000000E+04  0.00000000000E+00 0. -1.
       22    1    1    2    0    0 -0.93310394601E+03  0.79985742028E+03  0.63827537265E+04  0.65000000000E+04  0.00000000000E+00 0.  1.
</event>
<event>
 4   1  0.3671700E-05  0.8062258E+02  0.7546771E-02  0.1202337E+00
      -11   -1    0    0    0    0  0.00000000000E+00  0.00000000000E+00  0.65000000000E+04  0.65000000000E+04  0.00000000000E+00 0. -1.
       11   -1    0    0    0    0 -0.00000000000E+00 -0.00000000000E+00 -0.65000000000E+04  0.65000000000E+04  0.00000000000E+00 0.  1.
       22    1    1    2    0    0 -0.11589952245E+04  0.15024529301E+03 -0.63940719750E+04  0.65000000000E+04  0.00000000000E+00 0.  1.
       22    1    1    2    0    0  0.11589952245E+04 -0.15024529301E+03  0.63940719750E+04  0.65000000000E+04  0.00000000000E+00 0. -1.
</event>
<event>
 4   1  0.3671700E-05  0.8062258E+02  0.7546771E-02  0.1202337E+00
      -11   -1    0    0    0    0  0.00000000000E+00  0.00000000000E+00  0.65000000000E+04  0.65000000000E+04  0.00000000000E+00 0. -1.
       11   -1    0    0    0    0 -0.00000000000E+00 -0.00000000000E+00 -0.65000000000E+04  0.65000000000E+04  0.00000000000E+00 0.  1.
       22    1    1    2    0    0 -0.99629130799E+03  0.11029085234E+04  0.63277955418E+04  0.65000000000E+04  0.00000000000E+00 0. -1.
       22    1    1    2    0    0  0.99629130799E+03 -0.11029085234E+04 -0.63277955418E+04  0.65000000000E+04  0.00000000000E+00 0.  1.
</event>
<event>
 4   1  0.3671700E-05  0.8062258E+02  0.7546771E-02  0.1202337E+00
      -11   -1    0    0    0    0  0.00000000000E+00  0.00000000000E+00  0.65000000000E+04  0.65000000000E+04  0.00000000000E+00 0.  1.
       11   -1    0    0    0    0 -0.00000000000E+00 -0.00000000000E+00 -0.65000000000E+04  0.65000000000E+04  0.00000000000E+00 0. -1.
       22    1    1    2    0    0 -0.24068593372E+04  0.16001161557E+04  0.58220835119E+04  0.65000000000E+04  0.00000000000E+00 0.  1.
       22    1    1    2    0    0  0.24068593372E+04 -0.16001161557E+04 -0.58220835119E+04  0.65000000000E+04  0.00000000000E+00 0. -1.
</event>
<event>
 4   1  0.3671700E-05  0.8062258E+02  0.7546771E-02  0.1202337E+00
      -11   -1    0    0    0    0  0.00000000000E+00  0.00000000000E+00  0.65000000000E+04  0.65000000000E+04  0.00000000000E+00 0.  1.
       11   -1    0    0    0    0 -0.00000000000E+00 -0.00000000000E+00 -0.65000000000E+04  0.65000000000E+04  0.00000000000E+00 0. -1.
       22    1    1    2    0    0 -0.97365875521E+03  0.93284521765E+03  0.63585995650E+04  0.65000000000E+04  0.00000000000E+00 0.  1.
       22    1    1    2    0    0  0.97365875521E+03 -0.93284521765E+03 -0.63585995650E+04  0.65000000000E+04  0.00000000000E+00 0. -1.
</event>
<event>
 4   1  0.3671700E-05  0.8062258E+02  0.7546771E-02  0.1202337E+00
      -11   -1    0    0    0    0  0.00000000000E+00  0.00000000000E+00  0.65000000000E+04  0.65000000000E+04  0.00000000000E+00 0.  1.
       11   -1    0    0    0    0 -0.00000000000E+00 -0.00000000000E+00 -0.65000000000E+04  0.65000000000E+04  0.00000000000E+00 0. -1.
       22    1    1    2    0    0  0.50407191331E+04 -0.36461749669E+04 -0.18832309291E+04  0.65000000000E+04  0.00000000000E+00 0. -1.
       22    1    1    2    0    0 -0.50407191331E+04  0.36461749669E+04  0.18832309291E+04  0.65000000000E+04  0.00000000000E+00 0.  1.
</event>
<event>
 4   1  0.3671700E-05  0.8062258E+02  0.7546771E-02  0.1202337E+00
      -11   -1    0    0    0    0  0.00000000000E+00  0.00000000000E+00  0.65000000000E+04  0.65000000000E+04  0.00000000000E+00 0. -1.
       11   -1    0    0    0    0 -0.00000000000E+00 -0.00000000000E+00 -0.65000000000E+04  0.65000000000E+04  0.00000000000E+00 0.  1.
       22    1    1    2    0    0  0.48673902566E+04  0.35123369356E+04 -0.24943939827E+04  0.65000000000E+04  0.00000000000E+00 0.  1.
       22    1    1    2    0    0 -0.48673902566E+04 -0.35123369356E+04  0.24943939827E+04  0.65000000000E+04  0.00000000000E+00 0. -1.
</event>
<event>
 4   1  0.3671700E-05  0.8062258E+02  0.7546771E-02  0.1202337E+00
      -11   -1    0    0    0    0  0.00000000000E+00  0.00000000000E+00  0.65000000000E+04  0.65000000000E+04  0.00000000000E+00 0.  1.
       11   -1    0    0    0    0 -0.00000000000E+00 -0.00000000000E+00 -0.65000000000E+04  0.65000000000E+04  0.00000000000E+00 0. -1.
       22    1    1    2    0    0 -0.36896788820E+03  0.47041381517E+04  0.44704526557E+04  0.65000000000E+04  0.00000000000E+00 0.  1.
       22    1    1    2    0    0  0.36896788820E+03 -0.47041381517E+04 -0.44704526557E+04  0.65000000000E+04  0.00000000000E+00 0. -1.
</event>
<event>
 4   1  0.3671700E-05  0.8062258E+02  0.7546771E-02  0.1202337E+00
      -11   -1    0    0    0    0  0.00000000000E+00  0.00000000000E+00  0.65000000000E+04  0.65000000000E+04  0.00000000000E+00 0. -1.
       11   -1    0    0    0    0 -0.00000000000E+00 -0.00000000000E+00 -0.65000000000E+04  0.65000000000E+04  0.00000000000E+00 0.  1.
       22    1    1    2    0    0  0.29744522544E+04  0.28105440642E+04  0.50500966178E+04  0.65000000000E+04  0.00000000000E+00 0. -1.
       22    1    1    2    0    0 -0.29744522544E+04 -0.28105440642E+04 -0.50500966178E+04  0.65000000000E+04  0.00000000000E+00 0.  1.
</event>
<event>
 4   1  0.3671700E-05  0.8062258E+02  0.7546771E-02  0.1202337E+00
      -11   -1    0    0    0    0  0.00000000000E+00  0.00000000000E+00  0.65000000000E+04  0.65000000000E+04  0.00000000000E+00 0.  1.
       11   -1    0    0    0    0 -0.00000000000E+00 -0.00000000000E+00 -0.65000000000E+04  0.65000000000E+04  0.00000000000E+00 0. -1.
       22    1    1    2    0    0 -0.23971200761E+04  0.47488004159E+04 -0.37353326426E+04  0.65000000000E+04  0.00000000000E+00 0. -1.
       22    1    1    2    0    0  0.23971200761E+04 -0.47488004159E+04  0.37353326426E+04  0.65000000000E+04  0.00000000000E+00 0.  1.
</event>
<event>
 4   1  0.3671700E-05  0.8062258E+02  0.7546771E-02  0.1202337E+00
      -11   -1    0    0    0    0  0.00000000000E+00  0.00000000000E+00  0.65000000000E+04  0.65000000000E+04  0.00000000000E+00 0.  1.
       11   -1    0    0    0    0 -0.00000000000E+00 -0.00000000000E+00 -0.65000000000E+04  0.65000000000E+04  0.00000000000E+00 0. -1.
       22    1    1    2    0    0  0.46840523880E+03  0.45362478305E+04 -0.46317439645E+04  0.65000000000E+04  0.00000000000E+00 0. -1.
       22    1    1    2    0    0 -0.46840523880E+03 -0.45362478305E+04  0.46317439645E+04  0.65000000000E+04  0.00000000000E+00 0.  1.
</event>
<event>
 5   2  0.3671700E-05  0.7925521E+02  0.7546771E-02  0.1205509E+00
      -11   -1    0    0    0    0  0.00000000000E+00  0.00000000000E+00  0.65000000000E+04  0.65000000000E+04  0.00000000000E+00 0. -1.
       11   -1    0    0    0    0 -0.00000000000E+00 -0.00000000000E+00 -0.65000000000E+04  0.65000000000E+04  0.00000000000E+00 0.  1.
       22    1    1    2    0    0  0.36690099036E+02  0.20803003750E+03 -0.37438630569E+03  0.42986947526E+03  0.00000000000E+00 0. -1.
       22    1    1    2    0    0 -0.16396472775E+04 -0.77818304596E+03 -0.58460113156E+04  0.61212629702E+04  0.00000000000E+00 0.  1.
       22    1    1    2    0    0  0.16029571785E+04  0.57015300845E+03  0.62203976213E+04  0.64488675546E+04  0.00000000000E+00 0. -1.
</event>
<event>
 4   1  0.3671700E-05  0.8062258E+02  0.7546771E-02  0.1202337E+00
      -11   -1    0    0    0    0  0.00000000000E+00  0.00000000000E+00  0.65000000000E+04  0.65000000000E+04  0.00000000000E+00 0. -1.
       11   -1    0    0    0    0 -0.00000000000E+00 -0.00000000000E+00 -0.65000000000E+04  0.65000000000E+04  0.00000000000E+00 0.  1.
       22    1    1    2    0    0 -0.25078906106E+04  0.26714278874E+04  0.53687948115E+04  0.65000000000E+04  0.00000000000E+00 0. -1.
       22    1    1    2    0    0  0.25078906106E+04 -0.26714278874E+04 -0.53687948115E+04  0.65000000000E+04  0.00000000000E+00 0.  1.
</event>
<event>
 4   1  0.3671700E-05  0.8062258E+02  0.7546771E-02  0.1202337E+00
      -11   -1    0    0    0    0  0.00000000000E+00  0.00000000000E+00  0.65000000000E+04  0.65000000000E+04  0.00000000000E+00 0. -1.
       11   -1    0    0    0    0 -0.00000000000E+00 -0.00000000000E+00 -0.65000000000E+04  0.65000000000E+04  0.00000000000E+00 0.  1.
       22    1    1    2    0    0  0.19918549199E+04  0.11426932484E+04 -0.60808524171E+04  0.65000000000E+04  0.00000000000E+00 0.  1.
       22    1    1    2    0    0 -0.19918549199E+04 -0.11426932484E+04  0.60808524171E+04  0.65000000000E+04  0.00000000000E+00 0. -1.
</event>
<event>
 4   1  0.3671700E-05  0.8062258E+02  0.7546771E-02  0.1202337E+00
      -11   -1    0    0    0    0  0.00000000000E+00  0.00000000000E+00  0.65000000000E+04  0.65000000000E+04  0.00000000000E+00 0. -1.
       11   -1    0    0    0    0 -0.00000000000E+00 -0.00000000000E+00 -0.65000000000E+04  0.65000000000E+04  0.00000000000E+00 0.  1.
       22    1    1    2    0    0  0.19232117010E+04 -0.22624353245E+04  0.57820967784E+04  0.65000000000E+04  0.00000000000E+00 0. -1.
       22    1    1    2    0    0 -0.19232117010E+04  0.22624353245E+04 -0.57820967784E+04  0.65000000000E+04  0.00000000000E+00 0.  1.
</event>
<event>
 4   1  0.3671700E-05  0.8062258E+02  0.7546771E-02  0.1202337E+00
      -11   -1    0    0    0    0  0.00000000000E+00  0.00000000000E+00  0.65000000000E+04  0.65000000000E+04  0.00000000000E+00 0. -1.
       11   -1    0    0    0    0 -0.00000000000E+00 -0.00000000000E+00 -0.65000000000E+04  0.65000000000E+04  0.00000000000E+00 0.  1.
       22    1    1    2    0    0  0.32909442752E+04 -0.20175417841E+04  0.52296473043E+04  0.65000000000E+04  0.00000000000E+00 0. -1.
       22    1    1    2    0    0 -0.32909442752E+04  0.20175417841E+04 -0.52296473043E+04  0.65000000000E+04  0.00000000000E+00 0.  1.
</event>
<event>
 4   1  0.3671700E-05  0.8062258E+02  0.7546771E-02  0.1202337E+00
      -11   -1    0    0    0    0  0.00000000000E+00  0.00000000000E+00  0.65000000000E+04  0.65000000000E+04  0.00000000000E+00 0. -1.
       11   -1    0    0    0    0 -0.00000000000E+00 -0.00000000000E+00 -0.65000000000E+04  0.65000000000E+04  0.00000000000E+00 0.  1.
       22    1    1    2    0    0  0.23525489940E+04 -0.49099826491E+04 -0.35507159301E+04  0.65000000000E+04  0.00000000000E+00 0.  1.
       22    1    1    2    0    0 -0.23525489940E+04  0.49099826491E+04  0.35507159301E+04  0.65000000000E+04  0.00000000000E+00 0. -1.
</event>
<event>
 4   1  0.3671700E-05  0.8062258E+02  0.7546771E-02  0.1202337E+00
      -11   -1    0    0    0    0  0.00000000000E+00  0.00000000000E+00  0.65000000000E+04  0.65000000000E+04  0.00000000000E+00 0.  1.
       11   -1    0    0    0    0 -0.00000000000E+00 -0.00000000000E+00 -0.65000000000E+04  0.65000000000E+04  0.00000000000E+00 0. -1.
       22    1    1    2    0    0 -0.63395498290E+04 -0.55108493312E+03 -0.13252974618E+04  0.65000000000E+04  0.00000000000E+00 0.  1.
       22    1    1    2    0    0  0.63395498290E+04  0.55108493312E+03  0.13252974618E+04  0.65000000000E+04  0.00000000000E+00 0. -1.
</event>
<event>
 4   1  0.3671700E-05  0.8062258E+02  0.7546771E-02  0.1202337E+00
      -11   -1    0    0    0    0  0.00000000000E+00  0.00000000000E+00  0.65000000000E+04  0.65000000000E+04  0.00000000000E+00 0.  1.
       11   -1    0    0    0    0 -0.00000000000E+00 -0.00000000000E+00 -0.65000000000E+04  0.65000000000E+04  0.00000000000E+00 0. -1.
       22    1    1    2    0    0 -0.46011006602E+04 -0.30425655059E+04 -0.34384106586E+04  0.65000000000E+04  0.00000000000E+00 0. -1.
       22    1    1    2    0    0  0.46011006602E+04  0.30425655059E+04  0.34384106586E+04  0.65000000000E+04  0.00000000000E+00 0.  1.
</event>
<event>
 4   1  0.3671700E-05  0.8062258E+02  0.7546771E-02  0.1202337E+00
      -11   -1    0    0    0    0  0.00000000000E+00  0.00000000000E+00  0.65000000000E+04  0.65000000000E+04  0.00000000000E+00 0.  1.
       11   -1    0    0    0    0 -0.00000000000E+00 -0.00000000000E+00 -0.65000000000E+04  0.65000000000E+04  0.00000000000E+00 0. -1.
       22    1    1    2    0    0  0.16176805789E+04 -0.14696135730E+03 -0.62937677034E+04  0.65000000000E+04  0.00000000000E+00 0. -1.
       22    1    1    2    0    0 -0.16176805789E+04  0.14696135730E+03  0.62937677034E+04  0.65000000000E+04  0.00000000000E+00 0.  1.
</event>
<event>
 4   1  0.3671700E-05  0.8062258E+02  0.7546771E-02  0.1202337E+00
      -11   -1    0    0    0    0  0.00000000000E+00  0.00000000000E+00  0.65000000000E+04  0.65000000000E+04  0.00000000000E+00 0.  1.
       11   -1    0    0    0    0 -0.00000000000E+00 -0.00000000000E+00 -0.65000000000E+04  0.65000000000E+04  0.00000000000E+00 0. -1.
       22    1    1    2    0    0  0.26671942065E+04 -0.16428188947E+04 -0.56953683941E+04  0.65000000000E+04  0.00000000000E+00 0. -1.
       22    1    1    2    0    0 -0.26671942065E+04  0.16428188947E+04  0.56953683941E+04  0.65000000000E+04  0.00000000000E+00 0.  1.
</event>
<event>
 4   1  0.3671700E-05  0.8062258E+02  0.7546771E-02  0.1202337E+00
      -11   -1    0    0    0    0  0.00000000000E+00  0.00000000000E+00  0.65000000000E+04  0.65000000000E+04  0.00000000000E+00 0.  1.
       11   -1    0    0    0    0 -0.00000000000E+00 -0.00000000000E+00 -0.65000000000E+04  0.65000000000E+04  0.00000000000E+00 0. -1.
       22    1    1    2    0    0 -0.17820701425E+03 -0.11007031937E+04 -0.64036469874E+04  0.65000000000E+04  0.00000000000E+00 0. -1.
       22    1    1    2    0    0  0.17820701425E+03  0.11007031937E+04  0.64036469874E+04  0.65000000000E+04  0.00000000000E+00 0.  1.
</event>
<event>
 4   1  0.3671700E-05  0.8062258E+02  0.7546771E-02  0.1202337E+00
      -11   -1    0    0    0    0  0.00000000000E+00  0.00000000000E+00  0.65000000000E+04  0.65000000000E+04  0.00000000000E+00 0.  1.
       11   -1    0    0    0    0 -0.00000000000E+00 -0.00000000000E+00 -0.65000000000E+04  0.65000000000E+04  0.00000000000E+00 0. -1.
       22    1    1    2    0    0  0.24313939387E+04 -0.18084761552E+04  0.57504554177E+04  0.65000000000E+04  0.00000000000E+00 0.  1.
       22    1    1    2    0    0 -0.24313939387E+04  0.18084761552E+04 -0.57504554177E+04  0.65000000000E+04  0.00000000000E+00 0. -1.
</event>
<event>
 4   1  0.3671700E-05  0.8062258E+02  0.7546771E-02  0.1202337E+00
      -11   -1    0    0    0    0  0.00000000000E+00  0.00000000000E+00  0.65000000000E+04  0.65000000000E+04  0.00000000000E+00 0. -1.
       11   -1    0    0    0    0 -0.00000000000E+00 -0.00000000000E+00 -0.65000000000E+04  0.65000000000E+04  0.00000000000E+00 0.  1.
       22    1    1    2    0    0  0.28598096562E+03 -0.14371152956E+04 -0.63326862005E+04  0.65000000000E+04  0.00000000000E+00 0.  1.
       22    1    1    2    0    0 -0.28598096562E+03  0.14371152956E+04  0.63326862005E+04  0.65000000000E+04  0.00000000000E+00 0. -1.
</event>
<event>
 4   1  0.3671700E-05  0.8062258E+02  0.7546771E-02  0.1202337E+00
      -11   -1    0    0    0    0  0.00000000000E+00  0.00000000000E+00  0.65000000000E+04  0.65000000000E+04  0.00000000000E+00 0.  1.
       11   -1    0    0    0    0 -0.00000000000E+00 -0.00000000000E+00 -0.65000000000E+04  0.65000000000E+04  0.00000000000E+00 0. -1.
       22    1    1    2    0    0  0.35220016000E+04  0.17562411887E+03  0.54602802948E+04  0.65000000000E+04  0.00000000000E+00 0.  1.
       22    1    1    2    0    0 -0.35220016000E+04 -0.17562411887E+03 -0.54602802948E+04  0.65000000000E+04  0.00000000000E+00 0. -1.
</event>
<event>
 4   1  0.3671700E-05  0.8062258E+02  0.7546771E-02  0.1202337E+00
      -11   -1    0    0    0    0  0.00000000000E+00  0.00000000000E+00  0.65000000000E+04  0.65000000000E+04  0.00000000000E+00 0. -1.
       11   -1    0    0    0    0 -0.00000000000E+00 -0.00000000000E+00 -0.65000000000E+04  0.65000000000E+04  0.00000000000E+00 0.  1.
       22    1    1    2    0    0  0.17170147764E+03  0.10754768512E+04 -0.64081095610E+04  0.65000000000E+04  0.00000000000E+00 0.  1.
       22    1    1    2    0    0 -0.17170147764E+03 -0.10754768512E+04  0.64081095610E+04  0.65000000000E+04  0.00000000000E+00 0. -1.
</event>
<event>
 4   1  0.3671700E-05  0.8062258E+02  0.7546771E-02  0.1202337E+00
      -11   -1    0    0    0    0  0.00000000000E+00  0.00000000000E+00  0.65000000000E+04  0.65000000000E+04  0.00000000000E+00 0. -1.
       11   -1    0    0    0    0 -0.00000000000E+00 -0.00000000000E+00 -0.65000000000E+04  0.65000000000E+04  0.00000000000E+00 0.  1.
       22    1    1    2    0    0  0.31905652629E+04 -0.19004048994E+03  0.56598743727E+04  0.65000000000E+04  0.00000000000E+00 0. -1.
       22    1    1    2    0    0 -0.31905652629E+04  0.19004048994E+03 -0.56598743727E+04  0.65000000000E+04  0.00000000000E+00 0.  1.
</event>
<event>
 4   1  0.3671700E-05  0.8062258E+02  0.7546771E-02  0.1202337E+00
      -11   -1    0    0    0    0  0.00000000000E+00  0.00000000000E+00  0.65000000000E+04  0.65000000000E+04  0.00000000000E+00 0. -1.
       11   -1    0    0    0    0 -0.00000000000E+00 -0.00000000000E+00 -0.65000000000E+04  0.65000000000E+04  0.00000000000E+00 0.  1.
       22    1    1    2    0    0  0.96407323036E+03  0.15615785856E+04 -0.62355460970E+04  0.65000000000E+04  0.00000000000E+00 0.  1.
       22    1    1    2    0    0 -0.96407323036E+03 -0.15615785856E+04  0.62355460970E+04  0.65000000000E+04  0.00000000000E+00 0. -1.
</event>
<event>
 4   1  0.3671700E-05  0.8062258E+02  0.7546771E-02  0.1202337E+00
      -11   -1    0    0    0    0  0.00000000000E+00  0.00000000000E+00  0.65000000000E+04  0.65000000000E+04  0.00000000000E+00 0.  1.
       11   -1    0    0    0    0 -0.00000000000E+00 -0.00000000000E+00 -0.65000000000E+04  0.65000000000E+04  0.00000000000E+00 0. -1.
       22    1    1    2    0    0 -0.22286022197E+04  0.54444529181E+04  0.27642837352E+04  0.65000000000E+04  0.00000000000E+00 0.  1.
       22    1    1    2    0    0  0.22286022197E+04 -0.54444529181E+04 -0.27642837352E+04  0.65000000000E+04  0.00000000000E+00 0. -1.
</event>
<event>
 4   1  0.3671700E-05  0.8062258E+02  0.7546771E-02  0.1202337E+00
      -11   -1    0    0    0    0  0.00000000000E+00  0.00000000000E+00  0.65000000000E+04  0.65000000000E+04  0.00000000000E+00 0. -1.
       11   -1    0    0    0    0 -0.00000000000E+00 -0.00000000000E+00 -0.65000000000E+04  0.65000000000E+04  0.00000000000E+00 0.  1.
       22    1    1    2    0    0 -0.56504628369E+04 -0.65004611658E+03  0.31463804244E+04  0.65000000000E+04  0.00000000000E+00 0. -1.
       22    1    1    2    0    0  0.56504628369E+04  0.65004611658E+03 -0.31463804244E+04  0.65000000000E+04  0.00000000000E+00 0.  1.
</event>
<event>
 4   1  0.3671700E-05  0.8062258E+02  0.7546771E-02  0.1202337E+00
      -11   -1    0    0    0    0  0.00000000000E+00  0.00000000000E+00  0.65000000000E+04  0.65000000000E+04  0.00000000000E+00 0.  1.
       11   -1    0    0    0    0 -0.00000000000E+00 -0.00000000000E+00 -0.65000000000E+04  0.65000000000E+04  0.00000000000E+00 0. -1.
       22    1    1    2    0    0  0.62649498956E+04  0.13094751357E+04 -0.11338772751E+04  0.65000000000E+04  0.00000000000E+00 0. -1.
       22    1    1    2    0    0 -0.62649498956E+04 -0.13094751357E+04  0.11338772751E+04  0.65000000000E+04  0.00000000000E+00 0.  1.
</event>
<event>
 4   1  0.3671700E-05  0.8062258E+02  0.7546771E-02  0.1202337E+00
      -11   -1    0    0    0    0  0.00000000000E+00  0.00000000000E+00  0.65000000000E+04  0.65000000000E+04  0.00000000000E+00 0. -1.
       11   -1    0    0    0    0 -0.00000000000E+00 -0.00000000000E+00 -0.65000000000E+04  0.65000000000E+04  0.00000000000E+00 0.  1.
       22    1    1    2    0    0  0.27603323656E+04 -0.27132068776E+03  0.58785159960E+04  0.65000000000E+04  0.00000000000E+00 0. -1.
       22    1    1    2    0    0 -0.27603323656E+04  0.27132068776E+03 -0.58785159960E+04  0.65000000000E+04  0.00000000000E+00 0.  1.
</event>
<event>
 4   1  0.3671700E-05  0.8062258E+02  0.7546771E-02  0.1202337E+00
      -11   -1    0    0    0    0  0.00000000000E+00  0.00000000000E+00  0.65000000000E+04  0.65000000000E+04  0.00000000000E+00 0. -1.
       11   -1    0    0    0    0 -0.00000000000E+00 -0.00000000000E+00 -0.65000000000E+04  0.65000000000E+04  0.00000000000E+00 0.  1.
       22    1    1    2    0    0  0.14062651332E+04  0.69734391417E+02  0.63456721858E+04  0.65000000000E+04  0.00000000000E+00 0. -1.
       22    1    1    2    0    0 -0.14062651332E+04 -0.69734391417E+02 -0.63456721858E+04  0.65000000000E+04  0.00000000000E+00 0.  1.
</event>
<event>
 5   2  0.3671700E-05  0.7776347E+02  0.7546771E-02  0.1209052E+00
      -11   -1    0    0    0    0  0.00000000000E+00  0.00000000000E+00  0.65000000000E+04  0.65000000000E+04  0.00000000000E+00 0.  1.
       11   -1    0    0    0    0 -0.00000000000E+00 -0.00000000000E+00 -0.65000000000E+04  0.65000000000E+04  0.00000000000E+00 0. -1.
       22    1    1    2    0    0  0.16317574420E+03  0.83293859517E+03  0.20904766205E+03  0.87413611745E+03  0.00000000000E+00 0.  1.
       22    1    1    2    0    0  0.52783007580E+04 -0.19769893180E+04  0.22202366929E+04  0.60579201569E+04  0.00000000000E+00 0.  1.
       22    1    1    2    0    0 -0.54414765022E+04  0.11440507228E+04 -0.24292843549E+04  0.60679437256E+04  0.00000000000E+00 0. -1.
</event>
<event>
 4   1  0.3671700E-05  0.8062258E+02  0.7546771E-02  0.1202337E+00
      -11   -1    0    0    0    0  0.00000000000E+00  0.00000000000E+00  0.65000000000E+04  0.65000000000E+04  0.00000000000E+00 0.  1.
       11   -1    0    0    0    0 -0.00000000000E+00 -0.00000000000E+00 -0.65000000000E+04  0.65000000000E+04  0.00000000000E+00 0. -1.
       22    1    1    2    0    0  0.13325915036E+04 -0.86269341139E+03 -0.63031706278E+04  0.65000000000E+04  0.00000000000E+00 0. -1.
       22    1    1    2    0    0 -0.13325915036E+04  0.86269341139E+03  0.63031706278E+04  0.65000000000E+04  0.00000000000E+00 0.  1.
</event>
<event>
 4   1  0.3671700E-05  0.8062258E+02  0.7546771E-02  0.1202337E+00
      -11   -1    0    0    0    0  0.00000000000E+00  0.00000000000E+00  0.65000000000E+04  0.65000000000E+04  0.00000000000E+00 0.  1.
       11   -1    0    0    0    0 -0.00000000000E+00 -0.00000000000E+00 -0.65000000000E+04  0.65000000000E+04  0.00000000000E+00 0. -1.
       22    1    1    2    0    0 -0.48514051248E+03  0.14090771360E+04  0.63268586445E+04  0.65000000000E+04  0.00000000000E+00 0.  1.
       22    1    1    2    0    0  0.48514051248E+03 -0.14090771360E+04 -0.63268586445E+04  0.65000000000E+04  0.00000000000E+00 0. -1.
</event>
<event>
 4   1  0.3671700E-05  0.8062258E+02  0.7546771E-02  0.1202337E+00
      -11   -1    0    0    0    0  0.00000000000E+00  0.00000000000E+00  0.65000000000E+04  0.65000000000E+04  0.00000000000E+00 0.  1.
       11   -1    0    0    0    0 -0.00000000000E+00 -0.00000000000E+00 -0.65000000000E+04  0.65000000000E+04  0.00000000000E+00 0. -1.
       22    1    1    2    0    0 -0.11402743888E+04 -0.58153914352E+02 -0.63989368211E+04  0.65000000000E+04  0.00000000000E+00 0. -1.
       22    1    1    2    0    0  0.11402743888E+04  0.58153914352E+02  0.63989368211E+04  0.65000000000E+04  0.00000000000E+00 0.  1.
</event>
<event>
 4   1  0.3671700E-05  0.8062258E+02  0.7546771E-02  0.1202337E+00
      -11   -1    0    0    0    0  0.00000000000E+00  0.00000000000E+00  0.65000000000E+04  0.65000000000E+04  0.00000000000E+00 0. -1.
       11   -1    0    0    0    0 -0.00000000000E+00 -0.00000000000E+00 -0.65000000000E+04  0.65000000000E+04  0.00000000000E+00 0.  1.
       22    1    1    2    0    0  0.28227674228E+04  0.13541769945E+04 -0.56963311653E+04  0.65000000000E+04  0.00000000000E+00 0.  1.
       22    1    1    2    0    0 -0.28227674228E+04 -0.13541769945E+04  0.56963311653E+04  0.65000000000E+04  0.00000000000E+00 0. -1.
</event>
<event>
 4   1  0.3671700E-05  0.8062258E+02  0.7546771E-02  0.1202337E+00
      -11   -1    0    0    0    0  0.00000000000E+00  0.00000000000E+00  0.65000000000E+04  0.65000000000E+04  0.00000000000E+00 0. -1.
       11   -1    0    0    0    0 -0.00000000000E+00 -0.00000000000E+00 -0.65000000000E+04  0.65000000000E+04  0.00000000000E+00 0.  1.
       22    1    1    2    0    0 -0.11985684794E+04 -0.50853659845E+04 -0.38668445022E+04  0.65000000000E+04  0.00000000000E+00 0.  1.
       22    1    1    2    0    0  0.11985684794E+04  0.50853659845E+04  0.38668445022E+04  0.65000000000E+04  0.00000000000E+00 0. -1.
</event>
<event>
 4   1  0.3671700E-05  0.8062258E+02  0.7546771E-02  0.1202337E+00
      -11   -1    0    0    0    0  0.00000000000E+00  0.00000000000E+00  0.65000000000E+04  0.65000000000E+04  0.00000000000E+00 0.  1.
       11   -1    0    0    0    0 -0.00000000000E+00 -0.00000000000E+00 -0.65000000000E+04  0.65000000000E+04  0.00000000000E+00 0. -1.
       22    1    1    2    0    0  0.14794630956E+04 -0.17121122876E+04  0.60934276449E+04  0.65000000000E+04  0.00000000000E+00 0.  1.
       22    1    1    2    0    0 -0.14794630956E+04  0.17121122876E+04 -0.60934276449E+04  0.65000000000E+04  0.00000000000E+00 0. -1.
</event>
<event>
 4   1  0.3671700E-05  0.8062258E+02  0.7546771E-02  0.1202337E+00
      -11   -1    0    0    0    0  0.00000000000E+00  0.00000000000E+00  0.65000000000E+04  0.65000000000E+04  0.00000000000E+00 0.  1.
       11   -1    0    0    0    0 -0.00000000000E+00 -0.00000000000E+00 -0.65000000000E+04  0.65000000000E+04  0.00000000000E+00 0. -1.
       22    1    1    2    0    0 -0.62096894716E+04  0.16314049745E+04 -0.10140386952E+04  0.65000000000E+04  0.00000000000E+00 0. -1.
       22    1    1    2    0    0  0.62096894716E+04 -0.16314049745E+04  0.10140386952E+04  0.65000000000E+04  0.00000000000E+00 0.  1.
</event>
<event>
 4   1  0.3671700E-05  0.8062258E+02  0.7546771E-02  0.1202337E+00
      -11   -1    0    0    0    0  0.00000000000E+00  0.00000000000E+00  0.65000000000E+04  0.65000000000E+04  0.00000000000E+00 0. -1.
       11   -1    0    0    0    0 -0.00000000000E+00 -0.00000000000E+00 -0.65000000000E+04  0.65000000000E+04  0.00000000000E+00 0.  1.
       22    1    1    2    0    0  0.27493247391E+04 -0.34216406623E+04  0.47941202172E+04  0.65000000000E+04  0.00000000000E+00 0. -1.
       22    1    1    2    0    0 -0.27493247391E+04  0.34216406623E+04 -0.47941202172E+04  0.65000000000E+04  0.00000000000E+00 0.  1.
</event>
<event>
 4   1  0.3671700E-05  0.8062258E+02  0.7546771E-02  0.1202337E+00
      -11   -1    0    0    0    0  0.00000000000E+00  0.00000000000E+00  0.65000000000E+04  0.65000000000E+04  0.00000000000E+00 0. -1.
       11   -1    0    0    0    0 -0.00000000000E+00 -0.00000000000E+00 -0.65000000000E+04  0.65000000000E+04  0.00000000000E+00 0.  1.
       22    1    1    2    0    0 -0.26349338664E+04  0.54535850943E+03  0.59169001695E+04  0.65000000000E+04  0.00000000000E+00 0. -1.
       22    1    1    2    0    0  0.26349338664E+04 -0.54535850943E+03 -0.59169001695E+04  0.65000000000E+04  0.00000000000E+00 0.  1.
</event>
<event>
 5   2  0.3671700E-05  0.8053160E+02  0.7546771E-02  0.1202546E+00
      -11   -1    0    0    0    0  0.00000000000E+00  0.00000000000E+00  0.65000000000E+04  0.65000000000E+04  0.00000000000E+00 0. -1.
       11   -1    0    0    0    0 -0.00000000000E+00 -0.00000000000E+00 -0.65000000000E+04  0.65000000000E+04  0.00000000000E+00 0.  1.
       22    1    1    2    0    0 -0.19257647158E+02 -0.20718176082E+02 -0.75985700977E+01  0.29288872661E+02  0.00000000000E+00 0. -1.
       22    1    1    2    0    0 -0.40281637839E+04  0.31000319636E+04  0.40299359439E+04  0.64866544040E+04  0.00000000000E+00 0. -1.
       22    1    1    2    0    0  0.40474214311E+04 -0.30793137875E+04 -0.40223373738E+04  0.64840567233E+04  0.00000000000E+00 0.  1.
</event>
<event>
 4   1  0.3671700E-05  0.8062258E+02  0.7546771E-02  0.1202337E+00
      -11   -1    0    0    0    0  0.00000000000E+00  0.00000000000E+00  0.65000000000E+04  0.65000000000E+04  0.00000000000E+00 0. -1.
       11   -1    0    0    0    0 -0.00000000000E+00 -0.00000000000E+00 -0.65000000000E+04  0.65000000000E+04  0.00000000000E+00 0.  1.
       22    1    1    2    0    0 -0.70857440016E+03 -0.16637879073E+04  0.62433750583E+04  0.65000000000E+04  0.00000000000E+00 0. -1.
       22    1    1    2    0    0  0.70857440016E+03  0.16637879073E+04 -0.62433750583E+04  0.65000000000E+04  0.00000000000E+00 0.  1.
</event>
<event>
 4   1  0.3671700E-05  0.8062258E+02  0.7546771E-02  0.1202337E+00
      -11   -1    0    0    0    0  0.00000000000E+00  0.00000000000E+00  0.65000000000E+04  0.65000000000E+04  0.00000000000E+00 0.  1.
       11   -1    0    0    0    0 -0.00000000000E+00 -0.00000000000E+00 -0.65000000000E+04  0.65000000000E+04  0.00000000000E+00 0. -1.
       22    1    1    2    0    0 -0.15285394683E+04 -0.15916534513E+04 -0.61139354253E+04  0.65000000000E+04  0.00000000000E+00 0. -1.
       22    1    1    2    0    0  0.15285394683E+04  0.15916534513E+04  0.61139354253E+04  0.65000000000E+04  0.00000000000E+00 0.  1.
</event>
<event>
 4   1  0.3671700E-05  0.8062258E+02  0.7546771E-02  0.1202337E+00
      -11   -1    0    0    0    0  0.00000000000E+00  0.00000000000E+00  0.65000000000E+04  0.65000000000E+04  0.00000000000E+00 0.  1.
       11   -1    0    0    0    0 -0.00000000000E+00 -0.00000000000E+00 -0.65000000000E+04  0.65000000000E+04  0.00000000000E+00 0. -1.
       22    1    1    2    0    0  0.41686692945E+03 -0.16769831961E+04 -0.62660952213E+04  0.65000000000E+04  0.00000000000E+00 0. -1.
       22    1    1    2    0    0 -0.41686692945E+03  0.16769831961E+04  0.62660952213E+04  0.65000000000E+04  0.00000000000E+00 0.  1.
</event>
<event>
 4   1  0.3671700E-05  0.8062258E+02  0.7546771E-02  0.1202337E+00
      -11   -1    0    0    0    0  0.00000000000E+00  0.00000000000E+00  0.65000000000E+04  0.65000000000E+04  0.00000000000E+00 0. -1.
       11   -1    0    0    0    0 -0.00000000000E+00 -0.00000000000E+00 -0.65000000000E+04  0.65000000000E+04  0.00000000000E+00 0.  1.
       22    1    1    2    0    0  0.27563816737E+04 -0.16909887217E+04 -0.56385208355E+04  0.65000000000E+04  0.00000000000E+00 0.  1.
       22    1    1    2    0    0 -0.27563816737E+04  0.16909887217E+04  0.56385208355E+04  0.65000000000E+04  0.00000000000E+00 0. -1.
</event>
<event>
 4   1  0.3671700E-05  0.8062258E+02  0.7546771E-02  0.1202337E+00
      -11   -1    0    0    0    0  0.00000000000E+00  0.00000000000E+00  0.65000000000E+04  0.65000000000E+04  0.00000000000E+00 0.  1.
       11   -1    0    0    0    0 -0.00000000000E+00 -0.00000000000E+00 -0.65000000000E+04  0.65000000000E+04  0.00000000000E+00 0. -1.
       22    1    1    2    0    0 -0.33710386300E+04  0.16611742448E+04  0.53034515821E+04  0.65000000000E+04  0.00000000000E+00 0.  1.
       22    1    1    2    0    0  0.33710386300E+04 -0.16611742448E+04 -0.53034515821E+04  0.65000000000E+04  0.00000000000E+00 0. -1.
</event>
<event>
 4   1  0.3671700E-05  0.8062258E+02  0.7546771E-02  0.1202337E+00
      -11   -1    0    0    0    0  0.00000000000E+00  0.00000000000E+00  0.65000000000E+04  0.65000000000E+04  0.00000000000E+00 0.  1.
       11   -1    0    0    0    0 -0.00000000000E+00 -0.00000000000E+00 -0.65000000000E+04  0.65000000000E+04  0.00000000000E+00 0. -1.
       22    1    1    2    0    0 -0.63685792248E+04 -0.12987016029E+04 -0.67622514207E+02  0.65000000000E+04  0.00000000000E+00 0. -1.
       22    1    1    2    0    0  0.63685792248E+04  0.12987016029E+04  0.67622514207E+02  0.65000000000E+04  0.00000000000E+00 0.  1.
</event>
<event>
 4   1  0.3671700E-05  0.8062258E+02  0.7546771E-02  0.1202337E+00
      -11   -1    0    0    0    0  0.00000000000E+00  0.00000000000E+00  0.65000000000E+04  0.65000000000E+04  0.00000000000E+00 0. -1.
       11   -1    0    0    0    0 -0.00000000000E+00 -0.00000000000E+00 -0.65000000000E+04  0.65000000000E+04  0.00000000000E+00 0.  1.
       22    1    1    2    0    0 -0.95564567379E+03 -0.49299847844E+03  0.64104363226E+04  0.65000000000E+04  0.00000000000E+00 0. -1.
       22    1    1    2    0    0  0.95564567379E+03  0.49299847844E+03 -0.64104363226E+04  0.65000000000E+04  0.00000000000E+00 0.  1.
</event>
<event>
 4   1  0.3671700E-05  0.8062258E+02  0.7546771E-02  0.1202337E+00
      -11   -1    0    0    0    0  0.00000000000E+00  0.00000000000E+00  0.65000000000E+04  0.65000000000E+04  0.00000000000E+00 0.  1.
       11   -1    0    0    0    0 -0.00000000000E+00 -0.00000000000E+00 -0.65000000000E+04  0.65000000000E+04  0.00000000000E+00 0. -1.
       22    1    1    2    0    0 -0.46589141561E+03  0.12850892129E+04 -0.63546432554E+04  0.65000000000E+04  0.00000000000E+00 0. -1.
       22    1    1    2    0    0  0.46589141561E+03 -0.12850892129E+04  0.63546432554E+04  0.65000000000E+04  0.00000000000E+00 0.  1.
</event>
<event>
 5   2  0.3671700E-05  0.7006548E+02  0.7546771E-02  0.1228874E+00
      -11   -1    0    0    0    0  0.00000000000E+00  0.00000000000E+00  0.65000000000E+04  0.65000000000E+04  0.00000000000E+00 0. -1.
       11   -1    0    0    0    0 -0.00000000000E+00 -0.00000000000E+00 -0.65000000000E+04  0.65000000000E+04  0.00000000000E+00 0.  1.
       22    1    1    2    0    0  0.17219817597E+04  0.47202615664E+04  0.34182692285E+04  0.60770597294E+04  0.00000000000E+00 0. -1.
       22    1    1    2    0    0 -0.25033751076E+04 -0.22382721372E+04 -0.24052726936E+04  0.41306277755E+04  0.00000000000E+00 0.  1.
       22    1    1    2    0    0  0.78139334786E+03 -0.24819894292E+04 -0.10129965349E+04  0.27923124951E+04  0.00000000000E+00 0.  1.
</event>
<event>
 4   1  0.3671700E-05  0.8062258E+02  0.7546771E-02  0.1202337E+00
      -11   -1    0    0    0    0  0.00000000000E+00  0.00000000000E+00  0.65000000000E+04  0.65000000000E+04  0.00000000000E+00 0. -1.
       11   -1    0    0    0    0 -0.00000000000E+00 -0.00000000000E+00 -0.65000000000E+04  0.65000000000E+04  0.00000000000E+00 0.  1.
       22    1    1    2    0    0  0.88291996793E+03  0.95861174688E+03  0.63680072118E+04  0.65000000000E+04  0.00000000000E+00 0. -1.
       22    1    1    2    0    0 -0.88291996793E+03 -0.95861174688E+03 -0.63680072118E+04  0.65000000000E+04  0.00000000000E+00 0.  1.
</event>
<event>
 4   1  0.3671700E-05  0.8062258E+02  0.7546771E-02  0.1202337E+00
      -11   -1    0    0    0    0  0.00000000000E+00  0.00000000000E+00  0.65000000000E+04  0.65000000000E+04  0.00000000000E+00 0. -1.
       11   -1    0    0    0    0 -0.00000000000E+00 -0.00000000000E+00 -0.65000000000E+04  0.65000000000E+04  0.00000000000E+00 0.  1.
       22    1    1    2    0    0  0.27648208932E+04 -0.57791776910E+01  0.58826636849E+04  0.65000000000E+04  0.00000000000E+00 0. -1.
       22    1    1    2    0    0 -0.27648208932E+04  0.57791776910E+01 -0.58826636849E+04  0.65000000000E+04  0.00000000000E+00 0.  1.
</event>
<event>
 4   1  0.3671700E-05  0.8062258E+02  0.7546771E-02  0.1202337E+00
      -11   -1    0    0    0    0  0.00000000000E+00  0.00000000000E+00  0.65000000000E+04  0.65000000000E+04  0.00000000000E+00 0. -1.
       11   -1    0    0    0    0 -0.00000000000E+00 -0.00000000000E+00 -0.65000000000E+04  0.65000000000E+04  0.00000000000E+00 0.  1.
       22    1    1    2    0    0 -0.86684953983E+03  0.11658048425E+04 -0.63355718719E+04  0.65000000000E+04  0.00000000000E+00 0.  1.
       22    1    1    2    0    0  0.86684953983E+03 -0.11658048425E+04  0.63355718719E+04  0.65000000000E+04  0.00000000000E+00 0. -1.
</event>
<event>
 4   1  0.3671700E-05  0.8062258E+02  0.7546771E-02  0.1202337E+00
      -11   -1    0    0    0    0  0.00000000000E+00  0.00000000000E+00  0.65000000000E+04  0.65000000000E+04  0.00000000000E+00 0.  1.
       11   -1    0    0    0    0 -0.00000000000E+00 -0.00000000000E+00 -0.65000000000E+04  0.65000000000E+04  0.00000000000E+00 0. -1.
       22    1    1    2    0    0  0.48222254518E+03  0.15924096610E+04  0.62834459406E+04  0.65000000000E+04  0.00000000000E+00 0.  1.
       22    1    1    2    0    0 -0.48222254518E+03 -0.15924096610E+04 -0.62834459406E+04  0.65000000000E+04  0.00000000000E+00 0. -1.
</event>
<event>
 4   1  0.3671700E-05  0.8062258E+02  0.7546771E-02  0.1202337E+00
      -11   -1    0    0    0    0  0.00000000000E+00  0.00000000000E+00  0.65000000000E+04  0.65000000000E+04  0.00000000000E+00 0. -1.
       11   -1    0    0    0    0 -0.00000000000E+00 -0.00000000000E+00 -0.65000000000E+04  0.65000000000E+04  0.00000000000E+00 0.  1.
       22    1    1    2    0    0 -0.89660621512E+02 -0.42521379498E+04 -0.49154128849E+04  0.65000000000E+04  0.00000000000E+00 0.  1.
       22    1    1    2    0    0  0.89660621512E+02  0.42521379498E+04  0.49154128849E+04  0.65000000000E+04  0.00000000000E+00 0. -1.
</event>
<event>
 4   1  0.3671700E-05  0.8062258E+02  0.7546771E-02  0.1202337E+00
      -11   -1    0    0    0    0  0.00000000000E+00  0.00000000000E+00  0.65000000000E+04  0.65000000000E+04  0.00000000000E+00 0.  1.
       11   -1    0    0    0    0 -0.00000000000E+00 -0.00000000000E+00 -0.65000000000E+04  0.65000000000E+04  0.00000000000E+00 0. -1.
       22    1    1    2    0    0  0.23146196697E+04  0.95811424891E+03  0.59978790310E+04  0.65000000000E+04  0.00000000000E+00 0.  1.
       22    1    1    2    0    0 -0.23146196697E+04 -0.95811424891E+03 -0.59978790310E+04  0.65000000000E+04  0.00000000000E+00 0. -1.
</event>
<event>
 4   1  0.3671700E-05  0.8062258E+02  0.7546771E-02  0.1202337E+00
      -11   -1    0    0    0    0  0.00000000000E+00  0.00000000000E+00  0.65000000000E+04  0.65000000000E+04  0.00000000000E+00 0.  1.
       11   -1    0    0    0    0 -0.00000000000E+00 -0.00000000000E+00 -0.65000000000E+04  0.65000000000E+04  0.00000000000E+00 0. -1.
       22    1    1    2    0    0 -0.58996079384E+04  0.26868353789E+04  0.47491243320E+03  0.65000000000E+04  0.00000000000E+00 0.  1.
       22    1    1    2    0    0  0.58996079384E+04 -0.26868353789E+04 -0.47491243320E+03  0.65000000000E+04  0.00000000000E+00 0. -1.
</event>
<event>
 5   2  0.3671700E-05  0.7830222E+02  0.7546771E-02  0.1207762E+00
      -11   -1    0    0    0    0  0.00000000000E+00  0.00000000000E+00  0.65000000000E+04  0.65000000000E+04  0.00000000000E+00 0. -1.
       11   -1    0    0    0    0 -0.00000000000E+00 -0.00000000000E+00 -0.65000000000E+04  0.65000000000E+04  0.00000000000E+00 0.  1.
       22    1    1    2    0    0 -0.97665259399E+02  0.12086359527E+04 -0.63405656552E+04  0.64554714930E+04  0.00000000000E+00 0.  1.
       22    1    1    2    0    0  0.21379825814E+03  0.13426528420E+03  0.67065994118E+03  0.71660422719E+03  0.00000000000E+00 0. -1.
       22    1    1    2    0    0 -0.11613299874E+03 -0.13429012369E+04  0.56699057140E+04  0.58279242798E+04  0.00000000000E+00 0. -1.
</event>
<event>
 4   1  0.3671700E-05  0.8062258E+02  0.7546771E-02  0.1202337E+00
      -11   -1    0    0    0    0  0.00000000000E+00  0.00000000000E+00  0.65000000000E+04  0.65000000000E+04  0.00000000000E+00 0.  1.
       11   -1    0    0    0    0 -0.00000000000E+00 -0.00000000000E+00 -0.65000000000E+04  0.65000000000E+04  0.00000000000E+00 0. -1.
       22    1    1    2    0    0  0.22053325638E+04  0.17010887568E+04  0.58730575789E+04  0.65000000000E+04  0.00000000000E+00 0.  1.
       22    1    1    2    0    0 -0.22053325638E+04 -0.17010887568E+04 -0.58730575789E+04  0.65000000000E+04  0.00000000000E+00 0. -1.
</event>
<event>
 4   1  0.3671700E-05  0.8062258E+02  0.7546771E-02  0.1202337E+00
      -11   -1    0    0    0    0  0.00000000000E+00  0.00000000000E+00  0.65000000000E+04  0.65000000000E+04  0.00000000000E+00 0.  1.
       11   -1    0    0    0    0 -0.00000000000E+00 -0.00000000000E+00 -0.65000000000E+04  0.65000000000E+04  0.00000000000E+00 0. -1.
       22    1    1    2    0    0  0.12562502348E+03  0.22040380945E+04 -0.61136269457E+04  0.65000000000E+04  0.00000000000E+00 0. -1.
       22    1    1    2    0    0 -0.12562502348E+03 -0.22040380945E+04  0.61136269457E+04  0.65000000000E+04  0.00000000000E+00 0.  1.
</event>
<event>
 4   1  0.3671700E-05  0.8062258E+02  0.7546771E-02  0.1202337E+00
      -11   -1    0    0    0    0  0.00000000000E+00  0.00000000000E+00  0.65000000000E+04  0.65000000000E+04  0.00000000000E+00 0.  1.
       11   -1    0    0    0    0 -0.00000000000E+00 -0.00000000000E+00 -0.65000000000E+04  0.65000000000E+04  0.00000000000E+00 0. -1.
       22    1    1    2    0    0 -0.21033416866E+04 -0.89626772404E+03  0.60846247145E+04  0.65000000000E+04  0.00000000000E+00 0.  1.
       22    1    1    2    0    0  0.21033416866E+04  0.89626772404E+03 -0.60846247145E+04  0.65000000000E+04  0.00000000000E+00 0. -1.
</event>
<event>
 4   1  0.3671700E-05  0.8062258E+02  0.7546771E-02  0.1202337E+00
      -11   -1    0    0    0    0  0.00000000000E+00  0.00000000000E+00  0.65000000000E+04  0.65000000000E+04  0.00000000000E+00 0.  1.
       11   -1    0    0    0    0 -0.00000000000E+00 -0.00000000000E+00 -0.65000000000E+04  0.65000000000E+04  0.00000000000E+00 0. -1.
       22    1    1    2    0    0  0.19389694187E+04 -0.23125036113E+04  0.57569718291E+04  0.65000000000E+04  0.00000000000E+00 0.  1.
       22    1    1    2    0    0 -0.19389694187E+04  0.23125036113E+04 -0.57569718291E+04  0.65000000000E+04  0.00000000000E+00 0. -1.
</event>
<event>
 4   1  0.3671700E-05  0.8062258E+02  0.7546771E-02  0.1202337E+00
      -11   -1    0    0    0    0  0.00000000000E+00  0.00000000000E+00  0.65000000000E+04  0.65000000000E+04  0.00000000000E+00 0.  1.
       11   -1    0    0    0    0 -0.00000000000E+00 -0.00000000000E+00 -0.65000000000E+04  0.65000000000E+04  0.00000000000E+00 0. -1.
       22    1    1    2    0    0  0.25978812313E+03 -0.28179622857E+04 -0.58516321388E+04  0.65000000000E+04  0.00000000000E+00 0. -1.
       22    1    1    2    0    0 -0.25978812313E+03  0.28179622857E+04  0.58516321388E+04  0.65000000000E+04  0.00000000000E+00 0.  1.
</event>
<event>
 4   1  0.3671700E-05  0.8062258E+02  0.7546771E-02  0.1202337E+00
      -11   -1    0    0    0    0  0.00000000000E+00  0.00000000000E+00  0.65000000000E+04  0.65000000000E+04  0.00000000000E+00 0. -1.
       11   -1    0    0    0    0 -0.00000000000E+00 -0.00000000000E+00 -0.65000000000E+04  0.65000000000E+04  0.00000000000E+00 0.  1.
       22    1    1    2    0    0  0.31065184036E+04  0.56718182367E+04 -0.65576009146E+03  0.65000000000E+04  0.00000000000E+00 0. -1.
       22    1    1    2    0    0 -0.31065184036E+04 -0.56718182367E+04  0.65576009146E+03  0.65000000000E+04  0.00000000000E+00 0.  1.
</event>
<event>
 4   1  0.3671700E-05  0.8062258E+02  0.7546771E-02  0.1202337E+00
      -11   -1    0    0    0    0  0.00000000000E+00  0.00000000000E+00  0.65000000000E+04  0.65000000000E+04  0.00000000000E+00 0.  1.
       11   -1    0    0    0    0 -0.00000000000E+00 -0.00000000000E+00 -0.65000000000E+04  0.65000000000E+04  0.00000000000E+00 0. -1.
       22    1    1    2    0    0  0.30658863876E+04  0.22938593886E+04 -0.52524803439E+04  0.65000000000E+04  0.00000000000E+00 0. -1.
       22    1    1    2    0    0 -0.30658863876E+04 -0.22938593886E+04  0.52524803439E+04  0.65000000000E+04  0.00000000000E+00 0.  1.
</event>
<event>
 4   1  0.3671700E-05  0.8062258E+02  0.7546771E-02  0.1202337E+00
      -11   -1    0    0    0    0  0.00000000000E+00  0.00000000000E+00  0.65000000000E+04  0.65000000000E+04  0.00000000000E+00 0. -1.
       11   -1    0    0    0    0 -0.00000000000E+00 -0.00000000000E+00 -0.65000000000E+04  0.65000000000E+04  0.00000000000E+00 0.  1.
       22    1    1    2    0    0  0.14376683676E+04  0.86105680653E+02 -0.63384300483E+04  0.65000000000E+04  0.00000000000E+00 0.  1.
       22    1    1    2    0    0 -0.14376683676E+04 -0.86105680653E+02  0.63384300483E+04  0.65000000000E+04  0.00000000000E+00 0. -1.
</event>
<event>
 4   1  0.3671700E-05  0.8062258E+02  0.7546771E-02  0.1202337E+00
      -11   -1    0    0    0    0  0.00000000000E+00  0.00000000000E+00  0.65000000000E+04  0.65000000000E+04  0.00000000000E+00 0. -1.
       11   -1    0    0    0    0 -0.00000000000E+00 -0.00000000000E+00 -0.65000000000E+04  0.65000000000E+04  0.00000000000E+00 0.  1.
       22    1    1    2    0    0 -0.10056903378E+04  0.22724462892E+04  0.60062113522E+04  0.65000000000E+04  0.00000000000E+00 0. -1.
       22    1    1    2    0    0  0.10056903378E+04 -0.22724462892E+04 -0.60062113522E+04  0.65000000000E+04  0.00000000000E+00 0.  1.
</event>
<event>
 4   1  0.3671700E-05  0.8062258E+02  0.7546771E-02  0.1202337E+00
      -11   -1    0    0    0    0  0.00000000000E+00  0.00000000000E+00  0.65000000000E+04  0.65000000000E+04  0.00000000000E+00 0. -1.
       11   -1    0    0    0    0 -0.00000000000E+00 -0.00000000000E+00 -0.65000000000E+04  0.65000000000E+04  0.00000000000E+00 0.  1.
       22    1    1    2    0    0 -0.12962303441E+04  0.16257763571E+04 -0.61584606950E+04  0.65000000000E+04  0.00000000000E+00 0.  1.
       22    1    1    2    0    0  0.12962303441E+04 -0.16257763571E+04  0.61584606950E+04  0.65000000000E+04  0.00000000000E+00 0. -1.
</event>
<event>
 4   1  0.3671700E-05  0.8062258E+02  0.7546771E-02  0.1202337E+00
      -11   -1    0    0    0    0  0.00000000000E+00  0.00000000000E+00  0.65000000000E+04  0.65000000000E+04  0.00000000000E+00 0. -1.
       11   -1    0    0    0    0 -0.00000000000E+00 -0.00000000000E+00 -0.65000000000E+04  0.65000000000E+04  0.00000000000E+00 0.  1.
       22    1    1    2    0    0  0.17257248404E+04  0.18520498080E+04 -0.59868009224E+04  0.65000000000E+04  0.00000000000E+00 0.  1.
       22    1    1    2    0    0 -0.17257248404E+04 -0.18520498080E+04  0.59868009224E+04  0.65000000000E+04  0.00000000000E+00 0. -1.
</event>
<event>
 4   1  0.3671700E-05  0.8062258E+02  0.7546771E-02  0.1202337E+00
      -11   -1    0    0    0    0  0.00000000000E+00  0.00000000000E+00  0.65000000000E+04  0.65000000000E+04  0.00000000000E+00 0.  1.
       11   -1    0    0    0    0 -0.00000000000E+00 -0.00000000000E+00 -0.65000000000E+04  0.65000000000E+04  0.00000000000E+00 0. -1.
       22    1    1    2    0    0 -0.14288787771E+03 -0.15316549247E+04 -0.63153476742E+04  0.65000000000E+04  0.00000000000E+00 0. -1.
       22    1    1    2    0    0  0.14288787771E+03  0.15316549247E+04  0.63153476742E+04  0.65000000000E+04  0.00000000000E+00 0.  1.
</event>
<event>
 4   1  0.3671700E-05  0.8062258E+02  0.7546771E-02  0.1202337E+00
      -11   -1    0    0    0    0  0.00000000000E+00  0.00000000000E+00  0.65000000000E+04  0.65000000000E+04  0.00000000000E+00 0.  1.
       11   -1    0    0    0    0 -0.00000000000E+00 -0.00000000000E+00 -0.65000000000E+04  0.65000000000E+04  0.00000000000E+00 0. -1.
       22    1    1    2    0    0  0.19906231108E+01 -0.63932947615E+04 -0.11729356887E+04  0.65000000000E+04  0.00000000000E+00 0.  1.
       22    1    1    2    0    0 -0.19906231108E+01  0.63932947615E+04  0.11729356887E+04  0.65000000000E+04  0.00000000000E+00 0. -1.
</event>
<event>
 4   1  0.3671700E-05  0.8062258E+02  0.7546771E-02  0.1202337E+00
      -11   -1    0    0    0    0  0.00000000000E+00  0.00000000000E+00  0.65000000000E+04  0.65000000000E+04  0.00000000000E+00 0. -1.
       11   -1    0    0    0    0 -0.00000000000E+00 -0.00000000000E+00 -0.65000000000E+04  0.65000000000E+04  0.00000000000E+00 0.  1.
       22    1    1    2    0    0 -0.73700102500E+03  0.35966100784E+04 -0.53638815641E+04  0.65000000000E+04  0.00000000000E+00 0.  1.
       22    1    1    2    0    0  0.73700102500E+03 -0.35966100784E+04  0.53638815641E+04  0.65000000000E+04  0.00000000000E+00 0. -1.
</event>
<event>
 4   1  0.3671700E-05  0.8062258E+02  0.7546771E-02  0.1202337E+00
      -11   -1    0    0    0    0  0.00000000000E+00  0.00000000000E+00  0.65000000000E+04  0.65000000000E+04  0.00000000000E+00 0.  1.
       11   -1    0    0    0    0 -0.00000000000E+00 -0.00000000000E+00 -0.65000000000E+04  0.65000000000E+04  0.00000000000E+00 0. -1.
       22    1    1    2    0    0  0.36118639210E+04 -0.10353670113E+04 -0.53040035980E+04  0.65000000000E+04  0.00000000000E+00 0. -1.
       22    1    1    2    0    0 -0.36118639210E+04  0.10353670113E+04  0.53040035980E+04  0.65000000000E+04  0.00000000000E+00 0.  1.
</event>
<event>
 4   1  0.3671700E-05  0.8062258E+02  0.7546771E-02  0.1202337E+00
      -11   -1    0    0    0    0  0.00000000000E+00  0.00000000000E+00  0.65000000000E+04  0.65000000000E+04  0.00000000000E+00 0. -1.
       11   -1    0    0    0    0 -0.00000000000E+00 -0.00000000000E+00 -0.65000000000E+04  0.65000000000E+04  0.00000000000E+00 0.  1.
       22    1    1    2    0    0 -0.17062369777E+04 -0.14034609586E+04  0.61130232057E+04  0.65000000000E+04  0.00000000000E+00 0. -1.
       22    1    1    2    0    0  0.17062369777E+04  0.14034609586E+04 -0.61130232057E+04  0.65000000000E+04  0.00000000000E+00 0.  1.
</event>
<event>
 4   1  0.3671700E-05  0.8062258E+02  0.7546771E-02  0.1202337E+00
      -11   -1    0    0    0    0  0.00000000000E+00  0.00000000000E+00  0.65000000000E+04  0.65000000000E+04  0.00000000000E+00 0.  1.
       11   -1    0    0    0    0 -0.00000000000E+00 -0.00000000000E+00 -0.65000000000E+04  0.65000000000E+04  0.00000000000E+00 0. -1.
       22    1    1    2    0    0 -0.33596259702E+04 -0.24424116439E+04  0.49997538641E+04  0.65000000000E+04  0.00000000000E+00 0.  1.
       22    1    1    2    0    0  0.33596259702E+04  0.24424116439E+04 -0.49997538641E+04  0.65000000000E+04  0.00000000000E+00 0. -1.
</event>
<event>
 5   2  0.3671700E-05  0.8029582E+02  0.7546771E-02  0.1203089E+00
      -11   -1    0    0    0    0  0.00000000000E+00  0.00000000000E+00  0.65000000000E+04  0.65000000000E+04  0.00000000000E+00 0. -1.
       11   -1    0    0    0    0 -0.00000000000E+00 -0.00000000000E+00 -0.65000000000E+04  0.65000000000E+04  0.00000000000E+00 0.  1.
       22    1    1    2    0    0  0.11260514289E+04  0.78867693138E+03  0.62567843960E+04  0.64060404386E+04  0.00000000000E+00 0. -1.
       22    1    1    2    0    0 -0.10813986919E+04 -0.77835387311E+03 -0.63509633275E+04  0.64892212991E+04  0.00000000000E+00 0.  1.
       22    1    1    2    0    0 -0.44652737028E+02 -0.10323058271E+02  0.94178931408E+02  0.10473826224E+03  0.00000000000E+00 0. -1.
</event>
<event>
 4   1  0.3671700E-05  0.8062258E+02  0.7546771E-02  0.1202337E+00
      -11   -1    0    0    0    0  0.00000000000E+00  0.00000000000E+00  0.65000000000E+04  0.65000000000E+04  0.00000000000E+00 0. -1.
       11   -1    0    0    0    0 -0.00000000000E+00 -0.00000000000E+00 -0.65000000000E+04  0.65000000000E+04  0.00000000000E+00 0.  1.
       22    1    1    2    0    0  0.19757698136E+04 -0.22299965981E+04 -0.57769757500E+04  0.65000000000E+04  0.00000000000E+00 0.  1.
       22    1    1    2    0    0 -0.19757698136E+04  0.22299965981E+04  0.57769757500E+04  0.65000000000E+04  0.00000000000E+00 0. -1.
</event>
<event>
 4   1  0.3671700E-05  0.8062258E+02  0.7546771E-02  0.1202337E+00
      -11   -1    0    0    0    0  0.00000000000E+00  0.00000000000E+00  0.65000000000E+04  0.65000000000E+04  0.00000000000E+00 0.  1.
       11   -1    0    0    0    0 -0.00000000000E+00 -0.00000000000E+00 -0.65000000000E+04  0.65000000000E+04  0.00000000000E+00 0. -1.
       22    1    1    2    0    0 -0.17454875124E+04 -0.61974065818E+04  0.89186602392E+03  0.65000000000E+04  0.00000000000E+00 0.  1.
       22    1    1    2    0    0  0.17454875124E+04  0.61974065818E+04 -0.89186602392E+03  0.65000000000E+04  0.00000000000E+00 0. -1.
</event>
<event>
 4   1  0.3671700E-05  0.8062258E+02  0.7546771E-02  0.1202337E+00
      -11   -1    0    0    0    0  0.00000000000E+00  0.00000000000E+00  0.65000000000E+04  0.65000000000E+04  0.00000000000E+00 0.  1.
       11   -1    0    0    0    0 -0.00000000000E+00 -0.00000000000E+00 -0.65000000000E+04  0.65000000000E+04  0.00000000000E+00 0. -1.
       22    1    1    2    0    0 -0.31716977234E+04 -0.56698872519E+04  0.20666906573E+03  0.65000000000E+04  0.00000000000E+00 0. -1.
       22    1    1    2    0    0  0.31716977234E+04  0.56698872519E+04 -0.20666906573E+03  0.65000000000E+04  0.00000000000E+00 0.  1.
</event>
<event>
 4   1  0.3671700E-05  0.8062258E+02  0.7546771E-02  0.1202337E+00
      -11   -1    0    0    0    0  0.00000000000E+00  0.00000000000E+00  0.65000000000E+04  0.65000000000E+04  0.00000000000E+00 0. -1.
       11   -1    0    0    0    0 -0.00000000000E+00 -0.00000000000E+00 -0.65000000000E+04  0.65000000000E+04  0.00000000000E+00 0.  1.
       22    1    1    2    0    0  0.98718266168E+03 -0.13312186934E+04 -0.62851672359E+04  0.65000000000E+04  0.00000000000E+00 0.  1.
       22    1    1    2    0    0 -0.98718266168E+03  0.13312186934E+04  0.62851672359E+04  0.65000000000E+04  0.00000000000E+00 0. -1.
</event>
<event>
 4   1  0.3671700E-05  0.8062258E+02  0.7546771E-02  0.1202337E+00
      -11   -1    0    0    0    0  0.00000000000E+00  0.00000000000E+00  0.65000000000E+04  0.65000000000E+04  0.00000000000E+00 0.  1.
       11   -1    0    0    0    0 -0.00000000000E+00 -0.00000000000E+00 -0.65000000000E+04  0.65000000000E+04  0.00000000000E+00 0. -1.
       22    1    1    2    0    0 -0.17600153972E+04 -0.12827387184E+04 -0.61242899329E+04  0.65000000000E+04  0.00000000000E+00 0. -1.
       22    1    1    2    0    0  0.17600153972E+04  0.12827387184E+04  0.61242899329E+04  0.65000000000E+04  0.00000000000E+00 0.  1.
</event>
<event>
 4   1  0.3671700E-05  0.8062258E+02  0.7546771E-02  0.1202337E+00
      -11   -1    0    0    0    0  0.00000000000E+00  0.00000000000E+00  0.65000000000E+04  0.65000000000E+04  0.00000000000E+00 0.  1.
       11   -1    0    0    0    0 -0.00000000000E+00 -0.00000000000E+00 -0.65000000000E+04  0.65000000000E+04  0.00000000000E+00 0. -1.
       22    1    1    2    0    0 -0.20022486330E+04 -0.29119431661E+03  0.61770710115E+04  0.65000000000E+04  0.00000000000E+00 0.  1.
       22    1    1    2    0    0  0.20022486330E+04  0.29119431661E+03 -0.61770710115E+04  0.65000000000E+04  0.00000000000E+00 0. -1.
</event>
<event>
 4   1  0.3671700E-05  0.8062258E+02  0.7546771E-02  0.1202337E+00
      -11   -1    0    0    0    0  0.00000000000E+00  0.00000000000E+00  0.65000000000E+04  0.65000000000E+04  0.00000000000E+00 0. -1.
       11   -1    0    0    0    0 -0.00000000000E+00 -0.00000000000E+00 -0.65000000000E+04  0.65000000000E+04  0.00000000000E+00 0.  1.
       22    1    1    2    0    0 -0.37353872099E+04 -0.58977349153E+03  0.52866860717E+04  0.65000000000E+04  0.00000000000E+00 0. -1.
       22    1    1    2    0    0  0.37353872099E+04  0.58977349153E+03 -0.52866860717E+04  0.65000000000E+04  0.00000000000E+00 0.  1.
</event>
<event>
 4   1  0.3671700E-05  0.8062258E+02  0.7546771E-02  0.1202337E+00
      -11   -1    0    0    0    0  0.00000000000E+00  0.00000000000E+00  0.65000000000E+04  0.65000000000E+04  0.00000000000E+00 0.  1.
       11   -1    0    0    0    0 -0.00000000000E+00 -0.00000000000E+00 -0.65000000000E+04  0.65000000000E+04  0.00000000000E+00 0. -1.
       22    1    1    2    0    0  0.77581090379E+02 -0.31871189026E+04  0.56644729918E+04  0.65000000000E+04  0.00000000000E+00 0.  1.
       22    1    1    2    0    0 -0.77581090379E+02  0.31871189026E+04 -0.56644729918E+04  0.65000000000E+04  0.00000000000E+00 0. -1.
</event>
<event>
 4   1  0.3671700E-05  0.8062258E+02  0.7546771E-02  0.1202337E+00
      -11   -1    0    0    0    0  0.00000000000E+00  0.00000000000E+00  0.65000000000E+04  0.65000000000E+04  0.00000000000E+00 0. -1.
       11   -1    0    0    0    0 -0.00000000000E+00 -0.00000000000E+00 -0.65000000000E+04  0.65000000000E+04  0.00000000000E+00 0.  1.
       22    1    1    2    0    0  0.24157013182E+04 -0.26891900776E+04  0.54020962475E+04  0.65000000000E+04  0.00000000000E+00 0. -1.
       22    1    1    2    0    0 -0.24157013182E+04  0.26891900776E+04 -0.54020962475E+04  0.65000000000E+04  0.00000000000E+00 0.  1.
</event>
<event>
 4   1  0.3671700E-05  0.8062258E+02  0.7546771E-02  0.1202337E+00
      -11   -1    0    0    0    0  0.00000000000E+00  0.00000000000E+00  0.65000000000E+04  0.65000000000E+04  0.00000000000E+00 0. -1.
       11   -1    0    0    0    0 -0.00000000000E+00 -0.00000000000E+00 -0.65000000000E+04  0.65000000000E+04  0.00000000000E+00 0.  1.
       22    1    1    2    0    0  0.12683170056E+04 -0.27137546889E+02 -0.63750008256E+04  0.65000000000E+04  0.00000000000E+00 0.  1.
       22    1    1    2    0    0 -0.12683170056E+04  0.27137546889E+02  0.63750008256E+04  0.65000000000E+04  0.00000000000E+00 0. -1.
</event>
<event>
 4   1  0.3671700E-05  0.8062258E+02  0.7546771E-02  0.1202337E+00
      -11   -1    0    0    0    0  0.00000000000E+00  0.00000000000E+00  0.65000000000E+04  0.65000000000E+04  0.00000000000E+00 0. -1.
       11   -1    0    0    0    0 -0.00000000000E+00 -0.00000000000E+00 -0.65000000000E+04  0.65000000000E+04  0.00000000000E+00 0.  1.
       22    1    1    2    0    0  0.16226363718E+04  0.90805553293E+03 -0.62283614502E+04  0.65000000000E+04  0.00000000000E+00 0.  1.
       22    1    1    2    0    0 -0.16226363718E+04 -0.90805553293E+03  0.62283614502E+04  0.65000000000E+04  0.00000000000E+00 0. -1.
</event>
<event>
 4   1  0.3671700E-05  0.8062258E+02  0.7546771E-02  0.1202337E+00
      -11   -1    0    0    0    0  0.00000000000E+00  0.00000000000E+00  0.65000000000E+04  0.65000000000E+04  0.00000000000E+00 0. -1.
       11   -1    0    0    0    0 -0.00000000000E+00 -0.00000000000E+00 -0.65000000000E+04  0.65000000000E+04  0.00000000000E+00 0.  1.
       22    1    1    2    0    0  0.34722737133E+04 -0.55170122097E+03  0.54670779236E+04  0.65000000000E+04  0.00000000000E+00 0. -1.
       22    1    1    2    0    0 -0.34722737133E+04  0.55170122097E+03 -0.54670779236E+04  0.65000000000E+04  0.00000000000E+00 0.  1.
</event>
<event>
 4   1  0.3671700E-05  0.8062258E+02  0.7546771E-02  0.1202337E+00
      -11   -1    0    0    0    0  0.00000000000E+00  0.00000000000E+00  0.65000000000E+04  0.65000000000E+04  0.00000000000E+00 0. -1.
       11   -1    0    0    0    0 -0.00000000000E+00 -0.00000000000E+00 -0.65000000000E+04  0.65000000000E+04  0.00000000000E+00 0.  1.
       22    1    1    2    0    0  0.22468552948E+04  0.68422353176E+03  0.60608150807E+04  0.65000000000E+04  0.00000000000E+00 0. -1.
       22    1    1    2    0    0 -0.22468552948E+04 -0.68422353176E+03 -0.60608150807E+04  0.65000000000E+04  0.00000000000E+00 0.  1.
</event>
<event>
 4   1  0.3671700E-05  0.8062258E+02  0.7546771E-02  0.1202337E+00
      -11   -1    0    0    0    0  0.00000000000E+00  0.00000000000E+00  0.65000000000E+04  0.65000000000E+04  0.00000000000E+00 0. -1.
       11   -1    0    0    0    0 -0.00000000000E+00 -0.00000000000E+00 -0.65000000000E+04  0.65000000000E+04  0.00000000000E+00 0.  1.
       22    1    1    2    0    0  0.31719422260E+03  0.11500254440E+04  0.63895875691E+04  0.65000000000E+04  0.00000000000E+00 0. -1.
       22    1    1    2    0    0 -0.31719422260E+03 -0.11500254440E+04 -0.63895875691E+04  0.65000000000E+04  0.00000000000E+00 0.  1.
</event>
<event>
 4   1  0.3671700E-05  0.8062258E+02  0.7546771E-02  0.1202337E+00
      -11   -1    0    0    0    0  0.00000000000E+00  0.00000000000E+00  0.65000000000E+04  0.65000000000E+04  0.00000000000E+00 0.  1.
       11   -1    0    0    0    0 -0.00000000000E+00 -0.00000000000E+00 -0.65000000000E+04  0.65000000000E+04  0.00000000000E+00 0. -1.
       22    1    1    2    0    0  0.14075789192E+04  0.53477730223E+03 -0.63231902409E+04  0.65000000000E+04  0.00000000000E+00 0. -1.
       22    1    1    2    0    0 -0.14075789192E+04 -0.53477730223E+03  0.63231902409E+04  0.65000000000E+04  0.00000000000E+00 0.  1.
</event>
<event>
 4   1  0.3671700E-05  0.8062258E+02  0.7546771E-02  0.1202337E+00
      -11   -1    0    0    0    0  0.00000000000E+00  0.00000000000E+00  0.65000000000E+04  0.65000000000E+04  0.00000000000E+00 0. -1.
       11   -1    0    0    0    0 -0.00000000000E+00 -0.00000000000E+00 -0.65000000000E+04  0.65000000000E+04  0.00000000000E+00 0.  1.
       22    1    1    2    0    0 -0.42152213155E+03 -0.12945790305E+04 -0.63558149931E+04  0.65000000000E+04  0.00000000000E+00 0.  1.
       22    1    1    2    0    0  0.42152213155E+03  0.12945790305E+04  0.63558149931E+04  0.65000000000E+04  0.00000000000E+00 0. -1.
</event>
<event>
 4   1  0.3671700E-05  0.8062258E+02  0.7546771E-02  0.1202337E+00
      -11   -1    0    0    0    0  0.00000000000E+00  0.00000000000E+00  0.65000000000E+04  0.65000000000E+04  0.00000000000E+00 0.  1.
       11   -1    0    0    0    0 -0.00000000000E+00 -0.00000000000E+00 -0.65000000000E+04  0.65000000000E+04  0.00000000000E+00 0. -1.
       22    1    1    2    0    0 -0.97469210524E+03 -0.54190299052E+03  0.64036174502E+04  0.65000000000E+04  0.00000000000E+00 0.  1.
       22    1    1    2    0    0  0.97469210524E+03  0.54190299052E+03 -0.64036174502E+04  0.65000000000E+04  0.00000000000E+00 0. -1.
</event>
<event>
 5   2  0.3671700E-05  0.7357942E+02  0.7546771E-02  0.1219487E+00
      -11   -1    0    0    0    0  0.00000000000E+00  0.00000000000E+00  0.65000000000E+04  0.65000000000E+04  0.00000000000E+00 0.  1.
       11   -1    0    0    0    0 -0.00000000000E+00 -0.00000000000E+00 -0.65000000000E+04  0.65000000000E+04  0.00000000000E+00 0. -1.
       22    1    1    2    0    0 -0.24349464466E+03  0.12770488177E+04  0.44230790248E+04  0.46101812746E+04  0.00000000000E+00 0.  1.
       22    1    1    2    0    0 -0.66916088596E+03 -0.15652081364E+04 -0.61685854584E+04  0.63991483308E+04  0.00000000000E+00 0. -1.
       22    1    1    2    0    0  0.91265553061E+03  0.28815931876E+03  0.17455064336E+04  0.19906703947E+04  0.00000000000E+00 0.  1.
</event>
<event>
 4   1  0.3671700E-05  0.8062258E+02  0.7546771E-02  0.1202337E+00
      -11   -1    0    0    0    0  0.00000000000E+00  0.00000000000E+00  0.65000000000E+04  0.65000000000E+04  0.00000000000E+00 0. -1.
       11   -1    0    0    0    0 -0.00000000000E+00 -0.00000000000E+00 -0.65000000000E+04  0.65000000000E+04  0.00000000000E+00 0.  1.
       22    1    1    2    0    0 -0.48322763902E+04  0.32902372545E+04 -0.28413805971E+04  0.65000000000E+04  0.00000000000E+00 0.  1.
       22    1    1    2    0    0  0.48322763902E+04 -0.32902372545E+04  0.28413805971E+04  0.65000000000E+04  0.00000000000E+00 0. -1.
</event>
<event>
 5   2  0.3671700E-05  0.7531484E+02  0.7546771E-02  0.1215066E+00
      -11   -1    0    0    0    0  0.00000000000E+00  0.00000000000E+00  0.65000000000E+04  0.65000000000E+04  0.00000000000E+00 0.  1.
       11   -1    0    0    0    0 -0.00000000000E+00 -0.00000000000E+00 -0.65000000000E+04  0.65000000000E+04  0.00000000000E+00 0. -1.
       22    1    1    2    0    0  0.47362840053E+03  0.37891230991E+04 -0.34290640098E+04  0.51322760745E+04  0.00000000000E+00 0. -1.
       22    1    1    2    0    0 -0.84816050078E+03  0.49495089447E+03 -0.11991745485E+04  0.15499587804E+04  0.00000000000E+00 0. -1.
       22    1    1    2    0    0  0.37453210025E+03 -0.42840739936E+04  0.46282385583E+04  0.63177651451E+04  0.00000000000E+00 0.  1.
</event>
<event>
 4   1  0.3671700E-05  0.8062258E+02  0.7546771E-02  0.1202337E+00
      -11   -1    0    0    0    0  0.00000000000E+00  0.00000000000E+00  0.65000000000E+04  0.65000000000E+04  0.00000000000E+00 0.  1.
       11   -1    0    0    0    0 -0.00000000000E+00 -0.00000000000E+00 -0.65000000000E+04  0.65000000000E+04  0.00000000000E+00 0. -1.
       22    1    1    2    0    0  0.24717172570E+04 -0.88771511299E+03  0.59458031989E+04  0.65000000000E+04  0.00000000000E+00 0.  1.
       22    1    1    2    0    0 -0.24717172570E+04  0.88771511299E+03 -0.59458031989E+04  0.65000000000E+04  0.00000000000E+00 0. -1.
</event>
<event>
 4   1  0.3671700E-05  0.8062258E+02  0.7546771E-02  0.1202337E+00
      -11   -1    0    0    0    0  0.00000000000E+00  0.00000000000E+00  0.65000000000E+04  0.65000000000E+04  0.00000000000E+00 0.  1.
       11   -1    0    0    0    0 -0.00000000000E+00 -0.00000000000E+00 -0.65000000000E+04  0.65000000000E+04  0.00000000000E+00 0. -1.
       22    1    1    2    0    0  0.29493782290E+04 -0.52195800507E+04  0.25114044192E+04  0.65000000000E+04  0.00000000000E+00 0.  1.
       22    1    1    2    0    0 -0.29493782290E+04  0.52195800507E+04 -0.25114044192E+04  0.65000000000E+04  0.00000000000E+00 0. -1.
</event>
<event>
 5   2  0.3671700E-05  0.7204512E+02  0.7546771E-02  0.1223511E+00
      -11   -1    0    0    0    0  0.00000000000E+00  0.00000000000E+00  0.65000000000E+04  0.65000000000E+04  0.00000000000E+00 0. -1.
       11   -1    0    0    0    0 -0.00000000000E+00 -0.00000000000E+00 -0.65000000000E+04  0.65000000000E+04  0.00000000000E+00 0.  1.
       22    1    1    2    0    0 -0.44790019522E+04 -0.55294606224E+03 -0.25775933620E+04  0.51972295865E+04  0.00000000000E+00 0.  1.
       22    1    1    2    0    0 -0.90011017188E+03 -0.20375170501E+03  0.21668401472E+04  0.23551877425E+04  0.00000000000E+00 0. -1.
       22    1    1    2    0    0  0.53791121240E+04  0.75669776725E+03  0.41075321484E+03  0.54475826710E+04  0.00000000000E+00 0. -1.
</event>
<event>
 5   2  0.3671700E-05  0.7999918E+02  0.7546771E-02  0.1203774E+00
      -11   -1    0    0    0    0  0.00000000000E+00  0.00000000000E+00  0.65000000000E+04  0.65000000000E+04  0.00000000000E+00 0.  1.
       11   -1    0    0    0    0 -0.00000000000E+00 -0.00000000000E+00 -0.65000000000E+04  0.65000000000E+04  0.00000000000E+00 0. -1.
       22    1    1    2    0    0  0.95879017238E+02 -0.11806543804E+03  0.12789517709E+03  0.19871942514E+03  0.00000000000E+00 0. -1.
       22    1    1    2    0    0 -0.68615668788E+03 -0.87748981778E+03 -0.63629489327E+04  0.64597150480E+04  0.00000000000E+00 0. -1.
       22    1    1    2    0    0  0.59027767064E+03  0.99555525581E+03  0.62350537556E+04  0.63415655269E+04  0.00000000000E+00 0.  1.
</event>
<event>
 4   1  0.3671700E-05  0.8062258E+02  0.7546771E-02  0.1202337E+00
      -11   -1    0    0    0    0  0.00000000000E+00  0.00000000000E+00  0.65000000000E+04  0.65000000000E+04  0.00000000000E+00 0. -1.
       11   -1    0    0    0    0 -0.00000000000E+00 -0.00000000000E+00 -0.65000000000E+04  0.65000000000E+04  0.00000000000E+00 0.  1.
       22    1    1    2    0    0 -0.44885848298E+04  0.33974228159E+04 -0.32496345079E+04  0.65000000000E+04  0.00000000000E+00 0.  1.
       22    1    1    2    0    0  0.44885848298E+04 -0.33974228159E+04  0.32496345079E+04  0.65000000000E+04  0.00000000000E+00 0. -1.
</event>
<event>
 5   2  0.3671700E-05  0.7979941E+02  0.7546771E-02  0.1204238E+00
      -11   -1    0    0    0    0  0.00000000000E+00  0.00000000000E+00  0.65000000000E+04  0.65000000000E+04  0.00000000000E+00 0. -1.
       11   -1    0    0    0    0 -0.00000000000E+00 -0.00000000000E+00 -0.65000000000E+04  0.65000000000E+04  0.00000000000E+00 0.  1.
       22    1    1    2    0    0  0.45108888722E+04  0.37999423389E+04 -0.22644760717E+04  0.63178740155E+04  0.00000000000E+00 0.  1.
       22    1    1    2    0    0  0.13008040661E+03  0.12261832908E+03  0.19075291679E+03  0.26142463938E+03  0.00000000000E+00 0.  1.
       22    1    1    2    0    0 -0.46409692788E+04 -0.39225606680E+04  0.20737231549E+04  0.64207013452E+04  0.00000000000E+00 0. -1.
</event>
<event>
 5   2  0.3671700E-05  0.6852731E+02  0.7546771E-02  0.1233182E+00
      -11   -1    0    0    0    0  0.00000000000E+00  0.00000000000E+00  0.65000000000E+04  0.65000000000E+04  0.00000000000E+00 0. -1.
       11   -1    0    0    0    0 -0.00000000000E+00 -0.00000000000E+00 -0.65000000000E+04  0.65000000000E+04  0.00000000000E+00 0.  1.
       22    1    1    2    0    0  0.23471098473E+03 -0.22037615578E+04  0.54696975057E+04  0.59016307114E+04  0.00000000000E+00 0. -1.
       22    1    1    2    0    0 -0.10903052506E+04  0.24441600021E+04 -0.15788688015E+04  0.31073317087E+04  0.00000000000E+00 0. -1.
       22    1    1    2    0    0  0.85559426582E+03 -0.24039844428E+03 -0.38908287041E+04  0.39910375799E+04  0.00000000000E+00 0.  1.
</event>
<event>
 4   1  0.3671700E-05  0.8062258E+02  0.7546771E-02  0.1202337E+00
      -11   -1    0    0    0    0  0.00000000000E+00  0.00000000000E+00  0.65000000000E+04  0.65000000000E+04  0.00000000000E+00 0.  1.
       11   -1    0    0    0    0 -0.00000000000E+00 -0.00000000000E+00 -0.65000000000E+04  0.65000000000E+04  0.00000000000E+00 0. -1.
       22    1    1    2    0    0 -0.13017550189E+04 -0.23212197331E+03  0.63640830652E+04  0.65000000000E+04  0.00000000000E+00 0.  1.
       22    1    1    2    0    0  0.13017550189E+04  0.23212197331E+03 -0.63640830652E+04  0.65000000000E+04  0.00000000000E+00 0. -1.
</event>
<event>
 4   1  0.3671700E-05  0.8062258E+02  0.7546771E-02  0.1202337E+00
      -11   -1    0    0    0    0  0.00000000000E+00  0.00000000000E+00  0.65000000000E+04  0.65000000000E+04  0.00000000000E+00 0. -1.
       11   -1    0    0    0    0 -0.00000000000E+00 -0.00000000000E+00 -0.65000000000E+04  0.65000000000E+04  0.00000000000E+00 0.  1.
       22    1    1    2    0    0 -0.64759001835E+04  0.54300340137E+03 -0.13365672425E+03  0.65000000000E+04  0.00000000000E+00 0.  1.
       22    1    1    2    0    0  0.64759001835E+04 -0.54300340137E+03  0.13365672425E+03  0.65000000000E+04  0.00000000000E+00 0. -1.
</event>
<event>
 4   1  0.3671700E-05  0.8062258E+02  0.7546771E-02  0.1202337E+00
      -11   -1    0    0    0    0  0.00000000000E+00  0.00000000000E+00  0.65000000000E+04  0.65000000000E+04  0.00000000000E+00 0. -1.
       11   -1    0    0    0    0 -0.00000000000E+00 -0.00000000000E+00 -0.65000000000E+04  0.65000000000E+04  0.00000000000E+00 0.  1.
       22    1    1    2    0    0 -0.31392531654E+04 -0.91366182840E+03 -0.56178564975E+04  0.65000000000E+04  0.00000000000E+00 0.  1.
       22    1    1    2    0    0  0.31392531654E+04  0.91366182840E+03  0.56178564975E+04  0.65000000000E+04  0.00000000000E+00 0. -1.
</event>
<event>
 4   1  0.3671700E-05  0.8062258E+02  0.7546771E-02  0.1202337E+00
      -11   -1    0    0    0    0  0.00000000000E+00  0.00000000000E+00  0.65000000000E+04  0.65000000000E+04  0.00000000000E+00 0.  1.
       11   -1    0    0    0    0 -0.00000000000E+00 -0.00000000000E+00 -0.65000000000E+04  0.65000000000E+04  0.00000000000E+00 0. -1.
       22    1    1    2    0    0  0.44739465725E+03  0.25519494607E+04 -0.59613246826E+04  0.65000000000E+04  0.00000000000E+00 0. -1.
       22    1    1    2    0    0 -0.44739465725E+03 -0.25519494607E+04  0.59613246826E+04  0.65000000000E+04  0.00000000000E+00 0.  1.
</event>
<event>
 5   2  0.3671700E-05  0.8014003E+02  0.7546771E-02  0.1203448E+00
      -11   -1    0    0    0    0  0.00000000000E+00  0.00000000000E+00  0.65000000000E+04  0.65000000000E+04  0.00000000000E+00 0.  1.
       11   -1    0    0    0    0 -0.00000000000E+00 -0.00000000000E+00 -0.65000000000E+04  0.65000000000E+04  0.00000000000E+00 0. -1.
       22    1    1    2    0    0  0.65386143810E+03 -0.25361407623E+04 -0.59060604761E+04  0.64607348726E+04  0.00000000000E+00 0. -1.
       22    1    1    2    0    0 -0.59117993514E+03  0.26198632225E+04  0.57927160287E+04  0.63850400163E+04  0.00000000000E+00 0.  1.
       22    1    1    2    0    0 -0.62681502965E+02 -0.83722460145E+02  0.11334444739E+03  0.15422511113E+03  0.00000000000E+00 0.  1.
</event>
<event>
 4   1  0.3671700E-05  0.8062258E+02  0.7546771E-02  0.1202337E+00
      -11   -1    0    0    0    0  0.00000000000E+00  0.00000000000E+00  0.65000000000E+04  0.65000000000E+04  0.00000000000E+00 0.  1.
       11   -1    0    0    0    0 -0.00000000000E+00 -0.00000000000E+00 -0.65000000000E+04  0.65000000000E+04  0.00000000000E+00 0. -1.
       22    1    1    2    0    0 -0.81743216856E+03  0.15139313218E+04  0.62681589484E+04  0.65000000000E+04  0.00000000000E+00 0.  1.
       22    1    1    2    0    0  0.81743216856E+03 -0.15139313218E+04 -0.62681589484E+04  0.65000000000E+04  0.00000000000E+00 0. -1.
</event>
<event>
 4   1  0.3671700E-05  0.8062258E+02  0.7546771E-02  0.1202337E+00
      -11   -1    0    0    0    0  0.00000000000E+00  0.00000000000E+00  0.65000000000E+04  0.65000000000E+04  0.00000000000E+00 0.  1.
       11   -1    0    0    0    0 -0.00000000000E+00 -0.00000000000E+00 -0.65000000000E+04  0.65000000000E+04  0.00000000000E+00 0. -1.
       22    1    1    2    0    0 -0.19678868973E+04  0.17426350106E+04  0.59447997762E+04  0.65000000000E+04  0.00000000000E+00 0.  1.
       22    1    1    2    0    0  0.19678868973E+04 -0.17426350106E+04 -0.59447997762E+04  0.65000000000E+04  0.00000000000E+00 0. -1.
</event>
<event>
 4   1  0.3671700E-05  0.8062258E+02  0.7546771E-02  0.1202337E+00
      -11   -1    0    0    0    0  0.00000000000E+00  0.00000000000E+00  0.65000000000E+04  0.65000000000E+04  0.00000000000E+00 0. -1.
       11   -1    0    0    0    0 -0.00000000000E+00 -0.00000000000E+00 -0.65000000000E+04  0.65000000000E+04  0.00000000000E+00 0.  1.
       22    1    1    2    0    0  0.59155734357E+04 -0.24903190556E+04  0.10267920568E+04  0.65000000000E+04  0.00000000000E+00 0.  1.
       22    1    1    2    0    0 -0.59155734357E+04  0.24903190556E+04 -0.10267920568E+04  0.65000000000E+04  0.00000000000E+00 0. -1.
</event>
<event>
 4   1  0.3671700E-05  0.8062258E+02  0.7546771E-02  0.1202337E+00
      -11   -1    0    0    0    0  0.00000000000E+00  0.00000000000E+00  0.65000000000E+04  0.65000000000E+04  0.00000000000E+00 0.  1.
       11   -1    0    0    0    0 -0.00000000000E+00 -0.00000000000E+00 -0.65000000000E+04  0.65000000000E+04  0.00000000000E+00 0. -1.
       22    1    1    2    0    0 -0.11398586586E+04  0.90161069982E+03  0.63354416093E+04  0.65000000000E+04  0.00000000000E+00 0.  1.
       22    1    1    2    0    0  0.11398586586E+04 -0.90161069982E+03 -0.63354416093E+04  0.65000000000E+04  0.00000000000E+00 0. -1.
</event>
<event>
 4   1  0.3671700E-05  0.8062258E+02  0.7546771E-02  0.1202337E+00
      -11   -1    0    0    0    0  0.00000000000E+00  0.00000000000E+00  0.65000000000E+04  0.65000000000E+04  0.00000000000E+00 0.  1.
       11   -1    0    0    0    0 -0.00000000000E+00 -0.00000000000E+00 -0.65000000000E+04  0.65000000000E+04  0.00000000000E+00 0. -1.
       22    1    1    2    0    0 -0.18779661681E+04 -0.56626434523E+04 -0.25802542905E+04  0.65000000000E+04  0.00000000000E+00 0. -1.
       22    1    1    2    0    0  0.18779661681E+04  0.56626434523E+04  0.25802542905E+04  0.65000000000E+04  0.00000000000E+00 0.  1.
</event>
<event>
 4   1  0.3671700E-05  0.8062258E+02  0.7546771E-02  0.1202337E+00
      -11   -1    0    0    0    0  0.00000000000E+00  0.00000000000E+00  0.65000000000E+04  0.65000000000E+04  0.00000000000E+00 0. -1.
       11   -1    0    0    0    0 -0.00000000000E+00 -0.00000000000E+00 -0.65000000000E+04  0.65000000000E+04  0.00000000000E+00 0.  1.
       22    1    1    2    0    0  0.32502116115E+04 -0.31287040948E+04  0.46794588542E+04  0.65000000000E+04  0.00000000000E+00 0. -1.
       22    1    1    2    0    0 -0.32502116115E+04  0.31287040948E+04 -0.46794588542E+04  0.65000000000E+04  0.00000000000E+00 0.  1.
</event>
<event>
 4   1  0.3671700E-05  0.8062258E+02  0.7546771E-02  0.1202337E+00
      -11   -1    0    0    0    0  0.00000000000E+00  0.00000000000E+00  0.65000000000E+04  0.65000000000E+04  0.00000000000E+00 0.  1.
       11   -1    0    0    0    0 -0.00000000000E+00 -0.00000000000E+00 -0.65000000000E+04  0.65000000000E+04  0.00000000000E+00 0. -1.
       22    1    1    2    0    0  0.13292716680E+04 -0.17357842501E+04  0.61212817179E+04  0.65000000000E+04  0.00000000000E+00 0.  1.
       22    1    1    2    0    0 -0.13292716680E+04  0.17357842501E+04 -0.61212817179E+04  0.65000000000E+04  0.00000000000E+00 0. -1.
</event>
<event>
 4   1  0.3671700E-05  0.8062258E+02  0.7546771E-02  0.1202337E+00
      -11   -1    0    0    0    0  0.00000000000E+00  0.00000000000E+00  0.65000000000E+04  0.65000000000E+04  0.00000000000E+00 0. -1.
       11   -1    0    0    0    0 -0.00000000000E+00 -0.00000000000E+00 -0.65000000000E+04  0.65000000000E+04  0.00000000000E+00 0.  1.
       22    1    1    2    0    0 -0.18085843555E+04 -0.11357130780E+04 -0.61391512796E+04  0.65000000000E+04  0.00000000000E+00 0.  1.
       22    1    1    2    0    0  0.18085843555E+04  0.11357130780E+04  0.61391512796E+04  0.65000000000E+04  0.00000000000E+00 0. -1.
</event>
<event>
 4   1  0.3671700E-05  0.8062258E+02  0.7546771E-02  0.1202337E+00
      -11   -1    0    0    0    0  0.00000000000E+00  0.00000000000E+00  0.65000000000E+04  0.65000000000E+04  0.00000000000E+00 0. -1.
       11   -1    0    0    0    0 -0.00000000000E+00 -0.00000000000E+00 -0.65000000000E+04  0.65000000000E+04  0.00000000000E+00 0.  1.
       22    1    1    2    0    0  0.52223123603E+04  0.38583830653E+04  0.30055570574E+03  0.65000000000E+04  0.00000000000E+00 0.  1.
       22    1    1    2    0    0 -0.52223123603E+04 -0.38583830653E+04 -0.30055570574E+03  0.65000000000E+04  0.00000000000E+00 0. -1.
</event>
<event>
 5   2  0.3671700E-05  0.8025313E+02  0.7546771E-02  0.1203187E+00
      -11   -1    0    0    0    0  0.00000000000E+00  0.00000000000E+00  0.65000000000E+04  0.65000000000E+04  0.00000000000E+00 0. -1.
       11   -1    0    0    0    0 -0.00000000000E+00 -0.00000000000E+00 -0.65000000000E+04  0.65000000000E+04  0.00000000000E+00 0.  1.
       22    1    1    2    0    0 -0.49569666651E+02 -0.22774523325E+02 -0.10500163306E+03  0.11832655539E+03  0.00000000000E+00 0. -1.
       22    1    1    2    0    0  0.13390461426E+03  0.11345452864E+04 -0.62886280321E+04  0.63915542694E+04  0.00000000000E+00 0.  1.
       22    1    1    2    0    0 -0.84334947608E+02 -0.11117707631E+04  0.63936296652E+04  0.64901191752E+04  0.00000000000E+00 0. -1.
</event>
<event>
 4   1  0.3671700E-05  0.8062258E+02  0.7546771E-02  0.1202337E+00
      -11   -1    0    0    0    0  0.00000000000E+00  0.00000000000E+00  0.65000000000E+04  0.65000000000E+04  0.00000000000E+00 0.  1.
       11   -1    0    0    0    0 -0.00000000000E+00 -0.00000000000E+00 -0.65000000000E+04  0.65000000000E+04  0.00000000000E+00 0. -1.
       22    1    1    2    0    0  0.30662183294E+03 -0.39973582119E+04  0.51163571394E+04  0.65000000000E+04  0.00000000000E+00 0.  1.
       22    1    1    2    0    0 -0.30662183294E+03  0.39973582119E+04 -0.51163571394E+04  0.65000000000E+04  0.00000000000E+00 0. -1.
</event>
<event>
 4   1  0.3671700E-05  0.8062258E+02  0.7546771E-02  0.1202337E+00
      -11   -1    0    0    0    0  0.00000000000E+00  0.00000000000E+00  0.65000000000E+04  0.65000000000E+04  0.00000000000E+00 0.  1.
       11   -1    0    0    0    0 -0.00000000000E+00 -0.00000000000E+00 -0.65000000000E+04  0.65000000000E+04  0.00000000000E+00 0. -1.
       22    1    1    2    0    0 -0.23699361092E+04 -0.26270139897E+04  0.54527241207E+04  0.65000000000E+04  0.00000000000E+00 0.  1.
       22    1    1    2    0    0  0.23699361092E+04  0.26270139897E+04 -0.54527241207E+04  0.65000000000E+04  0.00000000000E+00 0. -1.
</event>
<event>
 4   1  0.3671700E-05  0.8062258E+02  0.7546771E-02  0.1202337E+00
      -11   -1    0    0    0    0  0.00000000000E+00  0.00000000000E+00  0.65000000000E+04  0.65000000000E+04  0.00000000000E+00 0.  1.
       11   -1    0    0    0    0 -0.00000000000E+00 -0.00000000000E+00 -0.65000000000E+04  0.65000000000E+04  0.00000000000E+00 0. -1.
       22    1    1    2    0    0 -0.54887062492E+04  0.24408264679E+04 -0.24832377783E+04  0.65000000000E+04  0.00000000000E+00 0. -1.
       22    1    1    2    0    0  0.54887062492E+04 -0.24408264679E+04  0.24832377783E+04  0.65000000000E+04  0.00000000000E+00 0.  1.
</event>
<event>
 5   2  0.3671700E-05  0.7998208E+02  0.7546771E-02  0.1203814E+00
      -11   -1    0    0    0    0  0.00000000000E+00  0.00000000000E+00  0.65000000000E+04  0.65000000000E+04  0.00000000000E+00 0. -1.
       11   -1    0    0    0    0 -0.00000000000E+00 -0.00000000000E+00 -0.65000000000E+04  0.65000000000E+04  0.00000000000E+00 0.  1.
       22    1    1    2    0    0 -0.29950256316E+02 -0.22419474258E+02  0.20064624913E+03  0.20410430659E+03  0.00000000000E+00 0.  1.
       22    1    1    2    0    0 -0.37606339169E+04  0.45970998078E+04  0.22743679192E+04  0.63599090820E+04  0.00000000000E+00 0. -1.
       22    1    1    2    0    0  0.37905841732E+04 -0.45746803336E+04 -0.24750141684E+04  0.64359866114E+04  0.00000000000E+00 0.  1.
</event>
<event>
 4   1  0.3671700E-05  0.8062258E+02  0.7546771E-02  0.1202337E+00
      -11   -1    0    0    0    0  0.00000000000E+00  0.00000000000E+00  0.65000000000E+04  0.65000000000E+04  0.00000000000E+00 0.  1.
       11   -1    0    0    0    0 -0.00000000000E+00 -0.00000000000E+00 -0.65000000000E+04  0.65000000000E+04  0.00000000000E+00 0. -1.
       22    1    1    2    0    0 -0.21670917101E+04 -0.13851487834E+04  0.59695122387E+04  0.65000000000E+04  0.00000000000E+00 0.  1.
       22    1    1    2    0    0  0.21670917101E+04  0.13851487834E+04 -0.59695122387E+04  0.65000000000E+04  0.00000000000E+00 0. -1.
</event>
<event>
 4   1  0.3671700E-05  0.8062258E+02  0.7546771E-02  0.1202337E+00
      -11   -1    0    0    0    0  0.00000000000E+00  0.00000000000E+00  0.65000000000E+04  0.65000000000E+04  0.00000000000E+00 0. -1.
       11   -1    0    0    0    0 -0.00000000000E+00 -0.00000000000E+00 -0.65000000000E+04  0.65000000000E+04  0.00000000000E+00 0.  1.
       22    1    1    2    0    0 -0.37167361814E+04 -0.71529836436E+02  0.53320498535E+04  0.65000000000E+04  0.00000000000E+00 0. -1.
       22    1    1    2    0    0  0.37167361814E+04  0.71529836436E+02 -0.53320498535E+04  0.65000000000E+04  0.00000000000E+00 0.  1.
</event>
<event>
 5   2  0.3671700E-05  0.8030593E+02  0.7546771E-02  0.1203065E+00
      -11   -1    0    0    0    0  0.00000000000E+00  0.00000000000E+00  0.65000000000E+04  0.65000000000E+04  0.00000000000E+00 0. -1.
       11   -1    0    0    0    0 -0.00000000000E+00 -0.00000000000E+00 -0.65000000000E+04  0.65000000000E+04  0.00000000000E+00 0.  1.
       22    1    1    2    0    0  0.17157373037E+04 -0.22446183080E+04  0.57432188785E+04  0.64005178642E+04  0.00000000000E+00 0. -1.
       22    1    1    2    0    0 -0.17145183934E+04  0.22854056470E+04 -0.58361726723E+04  0.64979661244E+04  0.00000000000E+00 0.  1.
       22    1    1    2    0    0 -0.12189102534E+01 -0.40787339031E+02  0.92953793850E+02  0.10151601134E+03  0.00000000000E+00 0.  1.
</event>
<event>
 5   2  0.3671700E-05  0.7961807E+02  0.7546771E-02  0.1204660E+00
      -11   -1    0    0    0    0  0.00000000000E+00  0.00000000000E+00  0.65000000000E+04  0.65000000000E+04  0.00000000000E+00 0. -1.
       11   -1    0    0    0    0 -0.00000000000E+00 -0.00000000000E+00 -0.65000000000E+04  0.65000000000E+04  0.00000000000E+00 0.  1.
       22    1    1    2    0    0  0.31532825347E+04 -0.18592291591E+04  0.50213733663E+04  0.62140256110E+04  0.00000000000E+00 0. -1.
       22    1    1    2    0    0 -0.31131809650E+04  0.19534190358E+04 -0.53223807997E+04  0.64680351752E+04  0.00000000000E+00 0.  1.
       22    1    1    2    0    0 -0.40101569713E+02 -0.94189876733E+02  0.30100743332E+03  0.31793921383E+03  0.00000000000E+00 0. -1.
</event>
<event>
 4   1  0.3671700E-05  0.8062258E+02  0.7546771E-02  0.1202337E+00
      -11   -1    0    0    0    0  0.00000000000E+00  0.00000000000E+00  0.65000000000E+04  0.65000000000E+04  0.00000000000E+00 0. -1.
       11   -1    0    0    0    0 -0.00000000000E+00 -0.00000000000E+00 -0.65000000000E+04  0.65000000000E+04  0.00000000000E+00 0.  1.
       22    1    1    2    0    0  0.24337376563E+04  0.14445112070E+04  0.58515218869E+04  0.65000000000E+04  0.00000000000E+00 0. -1.
       22    1    1    2    0    0 -0.24337376563E+04 -0.14445112070E+04 -0.58515218869E+04  0.65000000000E+04  0.00000000000E+00 0.  1.
</event>
<event>
 5   2  0.3671700E-05  0.7885059E+02  0.7546771E-02  0.1206461E+00
      -11   -1    0    0    0    0  0.00000000000E+00  0.00000000000E+00  0.65000000000E+04  0.65000000000E+04  0.00000000000E+00 0. -1.
       11   -1    0    0    0    0 -0.00000000000E+00 -0.00000000000E+00 -0.65000000000E+04  0.65000000000E+04  0.00000000000E+00 0.  1.
       22    1    1    2    0    0  0.19593230647E+04 -0.53237015386E+04 -0.24211217292E+04  0.61678663549E+04  0.00000000000E+00 0. -1.
       22    1    1    2    0    0 -0.20242572049E+04  0.51625965485E+04  0.29460100462E+04  0.62792511931E+04  0.00000000000E+00 0.  1.
       22    1    1    2    0    0  0.64934140164E+02  0.16110499013E+03 -0.52488831698E+03  0.55288245198E+03  0.00000000000E+00 0.  1.
</event>
<event>
 4   1  0.3671700E-05  0.8062258E+02  0.7546771E-02  0.1202337E+00
      -11   -1    0    0    0    0  0.00000000000E+00  0.00000000000E+00  0.65000000000E+04  0.65000000000E+04  0.00000000000E+00 0.  1.
       11   -1    0    0    0    0 -0.00000000000E+00 -0.00000000000E+00 -0.65000000000E+04  0.65000000000E+04  0.00000000000E+00 0. -1.
       22    1    1    2    0    0 -0.94308067228E+02  0.16223721575E+04 -0.62935693029E+04  0.65000000000E+04  0.00000000000E+00 0. -1.
       22    1    1    2    0    0  0.94308067228E+02 -0.16223721575E+04  0.62935693029E+04  0.65000000000E+04  0.00000000000E+00 0.  1.
</event>
<event>
 4   1  0.3671700E-05  0.8062258E+02  0.7546771E-02  0.1202337E+00
      -11   -1    0    0    0    0  0.00000000000E+00  0.00000000000E+00  0.65000000000E+04  0.65000000000E+04  0.00000000000E+00 0.  1.
       11   -1    0    0    0    0 -0.00000000000E+00 -0.00000000000E+00 -0.65000000000E+04  0.65000000000E+04  0.00000000000E+00 0. -1.
       22    1    1    2    0    0  0.34480127776E+03  0.16359022625E+04  0.62813164119E+04  0.65000000000E+04  0.00000000000E+00 0.  1.
       22    1    1    2    0    0 -0.34480127776E+03 -0.16359022625E+04 -0.62813164119E+04  0.65000000000E+04  0.00000000000E+00 0. -1.
</event>
<event>
 4   1  0.3671700E-05  0.8062258E+02  0.7546771E-02  0.1202337E+00
      -11   -1    0    0    0    0  0.00000000000E+00  0.00000000000E+00  0.65000000000E+04  0.65000000000E+04  0.00000000000E+00 0. -1.
       11   -1    0    0    0    0 -0.00000000000E+00 -0.00000000000E+00 -0.65000000000E+04  0.65000000000E+04  0.00000000000E+00 0.  1.
       22    1    1    2    0    0 -0.29328408460E+04 -0.42016684386E+03 -0.57854908517E+04  0.65000000000E+04  0.00000000000E+00 0.  1.
       22    1    1    2    0    0  0.29328408460E+04  0.42016684386E+03  0.57854908517E+04  0.65000000000E+04  0.00000000000E+00 0. -1.
</event>
<event>
 4   1  0.3671700E-05  0.8062258E+02  0.7546771E-02  0.1202337E+00
      -11   -1    0    0    0    0  0.00000000000E+00  0.00000000000E+00  0.65000000000E+04  0.65000000000E+04  0.00000000000E+00 0. -1.
       11   -1    0    0    0    0 -0.00000000000E+00 -0.00000000000E+00 -0.65000000000E+04  0.65000000000E+04  0.00000000000E+00 0.  1.
       22    1    1    2    0    0  0.69492082116E+03 -0.84882984095E+03 -0.64067599419E+04  0.65000000000E+04  0.00000000000E+00 0.  1.
       22    1    1    2    0    0 -0.69492082116E+03  0.84882984095E+03  0.64067599419E+04  0.65000000000E+04  0.00000000000E+00 0. -1.
</event>
<event>
 4   1  0.3671700E-05  0.8062258E+02  0.7546771E-02  0.1202337E+00
      -11   -1    0    0    0    0  0.00000000000E+00  0.00000000000E+00  0.65000000000E+04  0.65000000000E+04  0.00000000000E+00 0.  1.
       11   -1    0    0    0    0 -0.00000000000E+00 -0.00000000000E+00 -0.65000000000E+04  0.65000000000E+04  0.00000000000E+00 0. -1.
       22    1    1    2    0    0  0.25125984379E+04 -0.42715511505E+04  0.42060313668E+04  0.65000000000E+04  0.00000000000E+00 0.  1.
       22    1    1    2    0    0 -0.25125984379E+04  0.42715511505E+04 -0.42060313668E+04  0.65000000000E+04  0.00000000000E+00 0. -1.
</event>
<event>
 4   1  0.3671700E-05  0.8062258E+02  0.7546771E-02  0.1202337E+00
      -11   -1    0    0    0    0  0.00000000000E+00  0.00000000000E+00  0.65000000000E+04  0.65000000000E+04  0.00000000000E+00 0.  1.
       11   -1    0    0    0    0 -0.00000000000E+00 -0.00000000000E+00 -0.65000000000E+04  0.65000000000E+04  0.00000000000E+00 0. -1.
       22    1    1    2    0    0  0.49223500416E+04  0.18285442081E+04 -0.38310437411E+04  0.65000000000E+04  0.00000000000E+00 0. -1.
       22    1    1    2    0    0 -0.49223500416E+04 -0.18285442081E+04  0.38310437411E+04  0.65000000000E+04  0.00000000000E+00 0.  1.
</event>
<event>
 4   1  0.3671700E-05  0.8062258E+02  0.7546771E-02  0.1202337E+00
      -11   -1    0    0    0    0  0.00000000000E+00  0.00000000000E+00  0.65000000000E+04  0.65000000000E+04  0.00000000000E+00 0.  1.
       11   -1    0    0    0    0 -0.00000000000E+00 -0.00000000000E+00 -0.65000000000E+04  0.65000000000E+04  0.00000000000E+00 0. -1.
       22    1    1    2    0    0  0.12792378681E+04 -0.28264908217E+03 -0.63666050587E+04  0.65000000000E+04  0.00000000000E+00 0. -1.
       22    1    1    2    0    0 -0.12792378681E+04  0.28264908217E+03  0.63666050587E+04  0.65000000000E+04  0.00000000000E+00 0.  1.
</event>
<event>
 4   1  0.3671700E-05  0.8062258E+02  0.7546771E-02  0.1202337E+00
      -11   -1    0    0    0    0  0.00000000000E+00  0.00000000000E+00  0.65000000000E+04  0.65000000000E+04  0.00000000000E+00 0.  1.
       11   -1    0    0    0    0 -0.00000000000E+00 -0.00000000000E+00 -0.65000000000E+04  0.65000000000E+04  0.00000000000E+00 0. -1.
       22    1    1    2    0    0  0.61355763020E+04 -0.82256228101E+03  0.19819421625E+04  0.65000000000E+04  0.00000000000E+00 0.  1.
       22    1    1    2    0    0 -0.61355763020E+04  0.82256228101E+03 -0.19819421625E+04  0.65000000000E+04  0.00000000000E+00 0. -1.
</event>
<event>
 4   1  0.3671700E-05  0.8062258E+02  0.7546771E-02  0.1202337E+00
      -11   -1    0    0    0    0  0.00000000000E+00  0.00000000000E+00  0.65000000000E+04  0.65000000000E+04  0.00000000000E+00 0. -1.
       11   -1    0    0    0    0 -0.00000000000E+00 -0.00000000000E+00 -0.65000000000E+04  0.65000000000E+04  0.00000000000E+00 0.  1.
       22    1    1    2    0    0 -0.99467933490E+03 -0.39107759264E+03 -0.64115264436E+04  0.65000000000E+04  0.00000000000E+00 0.  1.
       22    1    1    2    0    0  0.99467933490E+03  0.39107759264E+03  0.64115264436E+04  0.65000000000E+04  0.00000000000E+00 0. -1.
</event>
<event>
 4   1  0.3671700E-05  0.8062258E+02  0.7546771E-02  0.1202337E+00
      -11   -1    0    0    0    0  0.00000000000E+00  0.00000000000E+00  0.65000000000E+04  0.65000000000E+04  0.00000000000E+00 0.  1.
       11   -1    0    0    0    0 -0.00000000000E+00 -0.00000000000E+00 -0.65000000000E+04  0.65000000000E+04  0.00000000000E+00 0. -1.
       22    1    1    2    0    0 -0.11814179254E+04  0.14531902278E+04 -0.62243465398E+04  0.65000000000E+04  0.00000000000E+00 0. -1.
       22    1    1    2    0    0  0.11814179254E+04 -0.14531902278E+04  0.62243465398E+04  0.65000000000E+04  0.00000000000E+00 0.  1.
</event>
<event>
 4   1  0.3671700E-05  0.8062258E+02  0.7546771E-02  0.1202337E+00
      -11   -1    0    0    0    0  0.00000000000E+00  0.00000000000E+00  0.65000000000E+04  0.65000000000E+04  0.00000000000E+00 0.  1.
       11   -1    0    0    0    0 -0.00000000000E+00 -0.00000000000E+00 -0.65000000000E+04  0.65000000000E+04  0.00000000000E+00 0. -1.
       22    1    1    2    0    0  0.92831376128E+03 -0.57652889930E+03 -0.64074837486E+04  0.65000000000E+04  0.00000000000E+00 0. -1.
       22    1    1    2    0    0 -0.92831376128E+03  0.57652889930E+03  0.64074837486E+04  0.65000000000E+04  0.00000000000E+00 0.  1.
</event>
<event>
 4   1  0.3671700E-05  0.8062258E+02  0.7546771E-02  0.1202337E+00
      -11   -1    0    0    0    0  0.00000000000E+00  0.00000000000E+00  0.65000000000E+04  0.65000000000E+04  0.00000000000E+00 0.  1.
       11   -1    0    0    0    0 -0.00000000000E+00 -0.00000000000E+00 -0.65000000000E+04  0.65000000000E+04  0.00000000000E+00 0. -1.
       22    1    1    2    0    0 -0.20820815533E+04  0.51132512949E+04 -0.34306847131E+04  0.65000000000E+04  0.00000000000E+00 0. -1.
       22    1    1    2    0    0  0.20820815533E+04 -0.51132512949E+04  0.34306847131E+04  0.65000000000E+04  0.00000000000E+00 0.  1.
</event>
<event>
 4   1  0.3671700E-05  0.8062258E+02  0.7546771E-02  0.1202337E+00
      -11   -1    0    0    0    0  0.00000000000E+00  0.00000000000E+00  0.65000000000E+04  0.65000000000E+04  0.00000000000E+00 0.  1.
       11   -1    0    0    0    0 -0.00000000000E+00 -0.00000000000E+00 -0.65000000000E+04  0.65000000000E+04  0.00000000000E+00 0. -1.
       22    1    1    2    0    0  0.18319919230E+04 -0.50355981185E+03  0.62161268576E+04  0.65000000000E+04  0.00000000000E+00 0.  1.
       22    1    1    2    0    0 -0.18319919230E+04  0.50355981185E+03 -0.62161268576E+04  0.65000000000E+04  0.00000000000E+00 0. -1.
</event>
<event>
 4   1  0.3671700E-05  0.8062258E+02  0.7546771E-02  0.1202337E+00
      -11   -1    0    0    0    0  0.00000000000E+00  0.00000000000E+00  0.65000000000E+04  0.65000000000E+04  0.00000000000E+00 0.  1.
       11   -1    0    0    0    0 -0.00000000000E+00 -0.00000000000E+00 -0.65000000000E+04  0.65000000000E+04  0.00000000000E+00 0. -1.
       22    1    1    2    0    0 -0.25209180668E+04  0.25438065260E+03 -0.59858385030E+04  0.65000000000E+04  0.00000000000E+00 0. -1.
       22    1    1    2    0    0  0.25209180668E+04 -0.25438065260E+03  0.59858385030E+04  0.65000000000E+04  0.00000000000E+00 0.  1.
</event>
<event>
 4   1  0.3671700E-05  0.8062258E+02  0.7546771E-02  0.1202337E+00
      -11   -1    0    0    0    0  0.00000000000E+00  0.00000000000E+00  0.65000000000E+04  0.65000000000E+04  0.00000000000E+00 0. -1.
       11   -1    0    0    0    0 -0.00000000000E+00 -0.00000000000E+00 -0.65000000000E+04  0.65000000000E+04  0.00000000000E+00 0.  1.
       22    1    1    2    0    0 -0.55768105458E+04  0.24622860373E+04 -0.22552896946E+04  0.65000000000E+04  0.00000000000E+00 0.  1.
       22    1    1    2    0    0  0.55768105458E+04 -0.24622860373E+04  0.22552896946E+04  0.65000000000E+04  0.00000000000E+00 0. -1.
</event>
<event>
 4   1  0.3671700E-05  0.8062258E+02  0.7546771E-02  0.1202337E+00
      -11   -1    0    0    0    0  0.00000000000E+00  0.00000000000E+00  0.65000000000E+04  0.65000000000E+04  0.00000000000E+00 0. -1.
       11   -1    0    0    0    0 -0.00000000000E+00 -0.00000000000E+00 -0.65000000000E+04  0.65000000000E+04  0.00000000000E+00 0.  1.
       22    1    1    2    0    0  0.24356901822E+03 -0.51132934080E+04  0.40056091493E+04  0.65000000000E+04  0.00000000000E+00 0. -1.
       22    1    1    2    0    0 -0.24356901822E+03  0.51132934080E+04 -0.40056091493E+04  0.65000000000E+04  0.00000000000E+00 0.  1.
</event>
<event>
 4   1  0.3671700E-05  0.8062258E+02  0.7546771E-02  0.1202337E+00
      -11   -1    0    0    0    0  0.00000000000E+00  0.00000000000E+00  0.65000000000E+04  0.65000000000E+04  0.00000000000E+00 0. -1.
       11   -1    0    0    0    0 -0.00000000000E+00 -0.00000000000E+00 -0.65000000000E+04  0.65000000000E+04  0.00000000000E+00 0.  1.
       22    1    1    2    0    0  0.27441281715E+03 -0.20725070701E+04  0.61546252567E+04  0.65000000000E+04  0.00000000000E+00 0. -1.
       22    1    1    2    0    0 -0.27441281715E+03  0.20725070701E+04 -0.61546252567E+04  0.65000000000E+04  0.00000000000E+00 0.  1.
</event>
<event>
 4   1  0.3671700E-05  0.8062258E+02  0.7546771E-02  0.1202337E+00
      -11   -1    0    0    0    0  0.00000000000E+00  0.00000000000E+00  0.65000000000E+04  0.65000000000E+04  0.00000000000E+00 0.  1.
       11   -1    0    0    0    0 -0.00000000000E+00 -0.00000000000E+00 -0.65000000000E+04  0.65000000000E+04  0.00000000000E+00 0. -1.
       22    1    1    2    0    0  0.60546780312E+03 -0.93613521959E+03  0.64036754751E+04  0.65000000000E+04  0.00000000000E+00 0.  1.
       22    1    1    2    0    0 -0.60546780312E+03  0.93613521959E+03 -0.64036754751E+04  0.65000000000E+04  0.00000000000E+00 0. -1.
</event>
<event>
 4   1  0.3671700E-05  0.8062258E+02  0.7546771E-02  0.1202337E+00
      -11   -1    0    0    0    0  0.00000000000E+00  0.00000000000E+00  0.65000000000E+04  0.65000000000E+04  0.00000000000E+00 0. -1.
       11   -1    0    0    0    0 -0.00000000000E+00 -0.00000000000E+00 -0.65000000000E+04  0.65000000000E+04  0.00000000000E+00 0.  1.
       22    1    1    2    0    0 -0.33551136218E+04 -0.10956042025E+04  0.54582839809E+04  0.65000000000E+04  0.00000000000E+00 0. -1.
       22    1    1    2    0    0  0.33551136218E+04  0.10956042025E+04 -0.54582839809E+04  0.65000000000E+04  0.00000000000E+00 0.  1.
</event>
<event>
 4   1  0.3671700E-05  0.8062258E+02  0.7546771E-02  0.1202337E+00
      -11   -1    0    0    0    0  0.00000000000E+00  0.00000000000E+00  0.65000000000E+04  0.65000000000E+04  0.00000000000E+00 0. -1.
       11   -1    0    0    0    0 -0.00000000000E+00 -0.00000000000E+00 -0.65000000000E+04  0.65000000000E+04  0.00000000000E+00 0.  1.
       22    1    1    2    0    0 -0.16439200778E+04  0.18044484392E+04 -0.60242420775E+04  0.65000000000E+04  0.00000000000E+00 0.  1.
       22    1    1    2    0    0  0.16439200778E+04 -0.18044484392E+04  0.60242420775E+04  0.65000000000E+04  0.00000000000E+00 0. -1.
</event>
<event>
 4   1  0.3671700E-05  0.8062258E+02  0.7546771E-02  0.1202337E+00
      -11   -1    0    0    0    0  0.00000000000E+00  0.00000000000E+00  0.65000000000E+04  0.65000000000E+04  0.00000000000E+00 0.  1.
       11   -1    0    0    0    0 -0.00000000000E+00 -0.00000000000E+00 -0.65000000000E+04  0.65000000000E+04  0.00000000000E+00 0. -1.
       22    1    1    2    0    0  0.13492601754E+04 -0.12527148503E+04 -0.62337951910E+04  0.65000000000E+04  0.00000000000E+00 0. -1.
       22    1    1    2    0    0 -0.13492601754E+04  0.12527148503E+04  0.62337951910E+04  0.65000000000E+04  0.00000000000E+00 0.  1.
</event>
<event>
 4   1  0.3671700E-05  0.8062258E+02  0.7546771E-02  0.1202337E+00
      -11   -1    0    0    0    0  0.00000000000E+00  0.00000000000E+00  0.65000000000E+04  0.65000000000E+04  0.00000000000E+00 0. -1.
       11   -1    0    0    0    0 -0.00000000000E+00 -0.00000000000E+00 -0.65000000000E+04  0.65000000000E+04  0.00000000000E+00 0.  1.
       22    1    1    2    0    0 -0.58936499244E+04  0.12830411740E+04 -0.24225391460E+04  0.65000000000E+04  0.00000000000E+00 0. -1.
       22    1    1    2    0    0  0.58936499244E+04 -0.12830411740E+04  0.24225391460E+04  0.65000000000E+04  0.00000000000E+00 0.  1.
</event>
<event>
 4   1  0.3671700E-05  0.8062258E+02  0.7546771E-02  0.1202337E+00
      -11   -1    0    0    0    0  0.00000000000E+00  0.00000000000E+00  0.65000000000E+04  0.65000000000E+04  0.00000000000E+00 0. -1.
       11   -1    0    0    0    0 -0.00000000000E+00 -0.00000000000E+00 -0.65000000000E+04  0.65000000000E+04  0.00000000000E+00 0.  1.
       22    1    1    2    0    0 -0.89970350150E+03 -0.46298526438E+04 -0.44726947253E+04  0.65000000000E+04  0.00000000000E+00 0.  1.
       22    1    1    2    0    0  0.89970350150E+03  0.46298526438E+04  0.44726947253E+04  0.65000000000E+04  0.00000000000E+00 0. -1.
</event>
<event>
 4   1  0.3671700E-05  0.8062258E+02  0.7546771E-02  0.1202337E+00
      -11   -1    0    0    0    0  0.00000000000E+00  0.00000000000E+00  0.65000000000E+04  0.65000000000E+04  0.00000000000E+00 0.  1.
       11   -1    0    0    0    0 -0.00000000000E+00 -0.00000000000E+00 -0.65000000000E+04  0.65000000000E+04  0.00000000000E+00 0. -1.
       22    1    1    2    0    0 -0.32984885821E+04 -0.49785524680E+04 -0.25659283694E+04  0.65000000000E+04  0.00000000000E+00 0. -1.
       22    1    1    2    0    0  0.32984885821E+04  0.49785524680E+04  0.25659283694E+04  0.65000000000E+04  0.00000000000E+00 0.  1.
</event>
<event>
 4   1  0.3671700E-05  0.8062258E+02  0.7546771E-02  0.1202337E+00
      -11   -1    0    0    0    0  0.00000000000E+00  0.00000000000E+00  0.65000000000E+04  0.65000000000E+04  0.00000000000E+00 0. -1.
       11   -1    0    0    0    0 -0.00000000000E+00 -0.00000000000E+00 -0.65000000000E+04  0.65000000000E+04  0.00000000000E+00 0.  1.
       22    1    1    2    0    0  0.52908097155E+03 -0.22382349787E+04 -0.60795047089E+04  0.65000000000E+04  0.00000000000E+00 0.  1.
       22    1    1    2    0    0 -0.52908097155E+03  0.22382349787E+04  0.60795047089E+04  0.65000000000E+04  0.00000000000E+00 0. -1.
</event>
<event>
 4   1  0.3671700E-05  0.8062258E+02  0.7546771E-02  0.1202337E+00
      -11   -1    0    0    0    0  0.00000000000E+00  0.00000000000E+00  0.65000000000E+04  0.65000000000E+04  0.00000000000E+00 0.  1.
       11   -1    0    0    0    0 -0.00000000000E+00 -0.00000000000E+00 -0.65000000000E+04  0.65000000000E+04  0.00000000000E+00 0. -1.
       22    1    1    2    0    0 -0.89100202127E+03 -0.11126394736E+04 -0.63417780472E+04  0.65000000000E+04  0.00000000000E+00 0. -1.
       22    1    1    2    0    0  0.89100202127E+03  0.11126394736E+04  0.63417780472E+04  0.65000000000E+04  0.00000000000E+00 0.  1.
</event>
<event>
 4   1  0.3671700E-05  0.8062258E+02  0.7546771E-02  0.1202337E+00
      -11   -1    0    0    0    0  0.00000000000E+00  0.00000000000E+00  0.65000000000E+04  0.65000000000E+04  0.00000000000E+00 0.  1.
       11   -1    0    0    0    0 -0.00000000000E+00 -0.00000000000E+00 -0.65000000000E+04  0.65000000000E+04  0.00000000000E+00 0. -1.
       22    1    1    2    0    0 -0.11724537265E+04 -0.86528558342E+03  0.63345586364E+04  0.65000000000E+04  0.00000000000E+00 0.  1.
       22    1    1    2    0    0  0.11724537265E+04  0.86528558342E+03 -0.63345586364E+04  0.65000000000E+04  0.00000000000E+00 0. -1.
</event>
<event>
 4   1  0.3671700E-05  0.8062258E+02  0.7546771E-02  0.1202337E+00
      -11   -1    0    0    0    0  0.00000000000E+00  0.00000000000E+00  0.65000000000E+04  0.65000000000E+04  0.00000000000E+00 0.  1.
       11   -1    0    0    0    0 -0.00000000000E+00 -0.00000000000E+00 -0.65000000000E+04  0.65000000000E+04  0.00000000000E+00 0. -1.
       22    1    1    2    0    0 -0.79533137998E+03 -0.82714315402E+03 -0.63979123313E+04  0.65000000000E+04  0.00000000000E+00 0. -1.
       22    1    1    2    0    0  0.79533137998E+03  0.82714315402E+03  0.63979123313E+04  0.65000000000E+04  0.00000000000E+00 0.  1.
</event>
<event>
 4   1  0.3671700E-05  0.8062258E+02  0.7546771E-02  0.1202337E+00
      -11   -1    0    0    0    0  0.00000000000E+00  0.00000000000E+00  0.65000000000E+04  0.65000000000E+04  0.00000000000E+00 0.  1.
       11   -1    0    0    0    0 -0.00000000000E+00 -0.00000000000E+00 -0.65000000000E+04  0.65000000000E+04  0.00000000000E+00 0. -1.
       22    1    1    2    0    0 -0.22803706605E+04  0.14257502472E+04  0.59175286973E+04  0.65000000000E+04  0.00000000000E+00 0.  1.
       22    1    1    2    0    0  0.22803706605E+04 -0.14257502472E+04 -0.59175286973E+04  0.65000000000E+04  0.00000000000E+00 0. -1.
</event>
<event>
 4   1  0.3671700E-05  0.8062258E+02  0.7546771E-02  0.1202337E+00
      -11   -1    0    0    0    0  0.00000000000E+00  0.00000000000E+00  0.65000000000E+04  0.65000000000E+04  0.00000000000E+00 0.  1.
       11   -1    0    0    0    0 -0.00000000000E+00 -0.00000000000E+00 -0.65000000000E+04  0.65000000000E+04  0.00000000000E+00 0. -1.
       22    1    1    2    0    0 -0.17175403852E+04 -0.52491923035E+04  0.34272489238E+04  0.65000000000E+04  0.00000000000E+00 0.  1.
       22    1    1    2    0    0  0.17175403852E+04  0.52491923035E+04 -0.34272489238E+04  0.65000000000E+04  0.00000000000E+00 0. -1.
</event>
<event>
 4   1  0.3671700E-05  0.8062258E+02  0.7546771E-02  0.1202337E+00
      -11   -1    0    0    0    0  0.00000000000E+00  0.00000000000E+00  0.65000000000E+04  0.65000000000E+04  0.00000000000E+00 0.  1.
       11   -1    0    0    0    0 -0.00000000000E+00 -0.00000000000E+00 -0.65000000000E+04  0.65000000000E+04  0.00000000000E+00 0. -1.
       22    1    1    2    0    0 -0.41235937281E+04 -0.38206854308E+03  0.50099898597E+04  0.65000000000E+04  0.00000000000E+00 0.  1.
       22    1    1    2    0    0  0.41235937281E+04  0.38206854308E+03 -0.50099898597E+04  0.65000000000E+04  0.00000000000E+00 0. -1.
</event>
<event>
 4   1  0.3671700E-05  0.8062258E+02  0.7546771E-02  0.1202337E+00
      -11   -1    0    0    0    0  0.00000000000E+00  0.00000000000E+00  0.65000000000E+04  0.65000000000E+04  0.00000000000E+00 0.  1.
       11   -1    0    0    0    0 -0.00000000000E+00 -0.00000000000E+00 -0.65000000000E+04  0.65000000000E+04  0.00000000000E+00 0. -1.
       22    1    1    2    0    0  0.11374179328E+04 -0.13960557872E+04 -0.62455831341E+04  0.65000000000E+04  0.00000000000E+00 0. -1.
       22    1    1    2    0    0 -0.11374179328E+04  0.13960557872E+04  0.62455831341E+04  0.65000000000E+04  0.00000000000E+00 0.  1.
</event>
<event>
 5   2  0.3671700E-05  0.8056865E+02  0.7546771E-02  0.1202461E+00
      -11   -1    0    0    0    0  0.00000000000E+00  0.00000000000E+00  0.65000000000E+04  0.65000000000E+04  0.00000000000E+00 0. -1.
       11   -1    0    0    0    0 -0.00000000000E+00 -0.00000000000E+00 -0.65000000000E+04  0.65000000000E+04  0.00000000000E+00 0.  1.
       22    1    1    2    0    0 -0.11249557011E+02 -0.23187995571E+01  0.13034866437E+02  0.17373459855E+02  0.00000000000E+00 0.  1.
       22    1    1    2    0    0  0.14929166123E+04 -0.25746858371E+04 -0.57762748522E+04  0.64979349288E+04  0.00000000000E+00 0.  1.
       22    1    1    2    0    0 -0.14816670553E+04  0.25770046367E+04  0.57632399858E+04  0.64846916113E+04  0.00000000000E+00 0. -1.
</event>
<event>
 4   1  0.3671700E-05  0.8062258E+02  0.7546771E-02  0.1202337E+00
      -11   -1    0    0    0    0  0.00000000000E+00  0.00000000000E+00  0.65000000000E+04  0.65000000000E+04  0.00000000000E+00 0.  1.
       11   -1    0    0    0    0 -0.00000000000E+00 -0.00000000000E+00 -0.65000000000E+04  0.65000000000E+04  0.00000000000E+00 0. -1.
       22    1    1    2    0    0 -0.20050033654E+04  0.17111213917E+03 -0.61806700398E+04  0.65000000000E+04  0.00000000000E+00 0. -1.
       22    1    1    2    0    0  0.20050033654E+04 -0.17111213917E+03  0.61806700398E+04  0.65000000000E+04  0.00000000000E+00 0.  1.
</event>
<event>
 4   1  0.3671700E-05  0.8062258E+02  0.7546771E-02  0.1202337E+00
      -11   -1    0    0    0    0  0.00000000000E+00  0.00000000000E+00  0.65000000000E+04  0.65000000000E+04  0.00000000000E+00 0. -1.
       11   -1    0    0    0    0 -0.00000000000E+00 -0.00000000000E+00 -0.65000000000E+04  0.65000000000E+04  0.00000000000E+00 0.  1.
       22    1    1    2    0    0  0.47445923791E+04 -0.28904459435E+04 -0.33740428871E+04  0.65000000000E+04  0.00000000000E+00 0.  1.
       22    1    1    2    0    0 -0.47445923791E+04  0.28904459435E+04  0.33740428871E+04  0.65000000000E+04  0.00000000000E+00 0. -1.
</event>
<event>
 5   2  0.3671700E-05  0.8052123E+02  0.7546771E-02  0.1202570E+00
      -11   -1    0    0    0    0  0.00000000000E+00  0.00000000000E+00  0.65000000000E+04  0.65000000000E+04  0.00000000000E+00 0. -1.
       11   -1    0    0    0    0 -0.00000000000E+00 -0.00000000000E+00 -0.65000000000E+04  0.65000000000E+04  0.00000000000E+00 0.  1.
       22    1    1    2    0    0  0.13681325998E+04  0.63381450602E+03  0.63101722733E+04  0.64878179504E+04  0.00000000000E+00 0. -1.
       22    1    1    2    0    0 -0.54246666940E+01 -0.31894868843E+02 -0.41907522654E+01  0.32623183042E+02  0.00000000000E+00 0.  1.
       22    1    1    2    0    0 -0.13627079332E+04 -0.60191963718E+03 -0.63059815211E+04  0.64795588665E+04  0.00000000000E+00 0.  1.
</event>
<event>
 4   1  0.3671700E-05  0.8062258E+02  0.7546771E-02  0.1202337E+00
      -11   -1    0    0    0    0  0.00000000000E+00  0.00000000000E+00  0.65000000000E+04  0.65000000000E+04  0.00000000000E+00 0.  1.
       11   -1    0    0    0    0 -0.00000000000E+00 -0.00000000000E+00 -0.65000000000E+04  0.65000000000E+04  0.00000000000E+00 0. -1.
       22    1    1    2    0    0 -0.33003153264E+04  0.11025772088E+04  0.54901951008E+04  0.65000000000E+04  0.00000000000E+00 0.  1.
       22    1    1    2    0    0  0.33003153264E+04 -0.11025772088E+04 -0.54901951008E+04  0.65000000000E+04  0.00000000000E+00 0. -1.
</event>
<event>
 5   2  0.3671700E-05  0.7931714E+02  0.7546771E-02  0.1205364E+00
      -11   -1    0    0    0    0  0.00000000000E+00  0.00000000000E+00  0.65000000000E+04  0.65000000000E+04  0.00000000000E+00 0.  1.
       11   -1    0    0    0    0 -0.00000000000E+00 -0.00000000000E+00 -0.65000000000E+04  0.65000000000E+04  0.00000000000E+00 0. -1.
       22    1    1    2    0    0 -0.69772098539E+02 -0.40695589732E+04  0.45479855920E+04  0.61033065897E+04  0.00000000000E+00 0.  1.
       22    1    1    2    0    0  0.75332287933E+02  0.42081378233E+04 -0.49347468051E+04  0.64858172133E+04  0.00000000000E+00 0. -1.
       22    1    1    2    0    0 -0.55601893941E+01 -0.13857885008E+03  0.38676121304E+03  0.41087619706E+03  0.00000000000E+00 0.  1.
</event>
<event>
 5   2  0.3671700E-05  0.7899388E+02  0.7546771E-02  0.1206123E+00
      -11   -1    0    0    0    0  0.00000000000E+00  0.00000000000E+00  0.65000000000E+04  0.65000000000E+04  0.00000000000E+00 0. -1.
       11   -1    0    0    0    0 -0.00000000000E+00 -0.00000000000E+00 -0.65000000000E+04  0.65000000000E+04  0.00000000000E+00 0.  1.
       22    1    1    2    0    0  0.23154646636E+04  0.28467992522E+03 -0.57918332196E+04  0.62440172415E+04  0.00000000000E+00 0.  1.
       22    1    1    2    0    0 -0.18462959269E+04 -0.39968048190E+03  0.59539519754E+04  0.62464467710E+04  0.00000000000E+00 0. -1.
       22    1    1    2    0    0 -0.46916873676E+03  0.11500055668E+03 -0.16211875581E+03  0.50953598751E+03  0.00000000000E+00 0.  1.
</event>
<event>
 4   1  0.3671700E-05  0.8062258E+02  0.7546771E-02  0.1202337E+00
      -11   -1    0    0    0    0  0.00000000000E+00  0.00000000000E+00  0.65000000000E+04  0.65000000000E+04  0.00000000000E+00 0. -1.
       11   -1    0    0    0    0 -0.00000000000E+00 -0.00000000000E+00 -0.65000000000E+04  0.65000000000E+04  0.00000000000E+00 0.  1.
       22    1    1    2    0    0 -0.19692388451E+04 -0.18087469877E+04 -0.59245702549E+04  0.65000000000E+04  0.00000000000E+00 0.  1.
       22    1    1    2    0    0  0.19692388451E+04  0.18087469877E+04  0.59245702549E+04  0.65000000000E+04  0.00000000000E+00 0. -1.
</event>
<event>
 4   1  0.3671700E-05  0.8062258E+02  0.7546771E-02  0.1202337E+00
      -11   -1    0    0    0    0  0.00000000000E+00  0.00000000000E+00  0.65000000000E+04  0.65000000000E+04  0.00000000000E+00 0.  1.
       11   -1    0    0    0    0 -0.00000000000E+00 -0.00000000000E+00 -0.65000000000E+04  0.65000000000E+04  0.00000000000E+00 0. -1.
       22    1    1    2    0    0  0.13140664929E+03  0.12055774567E+04 -0.63858684052E+04  0.65000000000E+04  0.00000000000E+00 0. -1.
       22    1    1    2    0    0 -0.13140664929E+03 -0.12055774567E+04  0.63858684052E+04  0.65000000000E+04  0.00000000000E+00 0.  1.
</event>
<event>
 4   1  0.3671700E-05  0.8062258E+02  0.7546771E-02  0.1202337E+00
      -11   -1    0    0    0    0  0.00000000000E+00  0.00000000000E+00  0.65000000000E+04  0.65000000000E+04  0.00000000000E+00 0.  1.
       11   -1    0    0    0    0 -0.00000000000E+00 -0.00000000000E+00 -0.65000000000E+04  0.65000000000E+04  0.00000000000E+00 0. -1.
       22    1    1    2    0    0 -0.99932218198E+02  0.14347716481E+04 -0.63388834876E+04  0.65000000000E+04  0.00000000000E+00 0. -1.
       22    1    1    2    0    0  0.99932218198E+02 -0.14347716481E+04  0.63388834876E+04  0.65000000000E+04  0.00000000000E+00 0.  1.
</event>
<event>
 4   1  0.3671700E-05  0.8062258E+02  0.7546771E-02  0.1202337E+00
      -11   -1    0    0    0    0  0.00000000000E+00  0.00000000000E+00  0.65000000000E+04  0.65000000000E+04  0.00000000000E+00 0.  1.
       11   -1    0    0    0    0 -0.00000000000E+00 -0.00000000000E+00 -0.65000000000E+04  0.65000000000E+04  0.00000000000E+00 0. -1.
       22    1    1    2    0    0 -0.12540267535E+04  0.39029261511E+04 -0.50442625190E+04  0.65000000000E+04  0.00000000000E+00 0. -1.
       22    1    1    2    0    0  0.12540267535E+04 -0.39029261511E+04  0.50442625190E+04  0.65000000000E+04  0.00000000000E+00 0.  1.
</event>
<event>
 4   1  0.3671700E-05  0.8062258E+02  0.7546771E-02  0.1202337E+00
      -11   -1    0    0    0    0  0.00000000000E+00  0.00000000000E+00  0.65000000000E+04  0.65000000000E+04  0.00000000000E+00 0. -1.
       11   -1    0    0    0    0 -0.00000000000E+00 -0.00000000000E+00 -0.65000000000E+04  0.65000000000E+04  0.00000000000E+00 0.  1.
       22    1    1    2    0    0 -0.87842879343E+03 -0.19671601719E+04 -0.61325886633E+04  0.65000000000E+04  0.00000000000E+00 0.  1.
       22    1    1    2    0    0  0.87842879343E+03  0.19671601719E+04  0.61325886633E+04  0.65000000000E+04  0.00000000000E+00 0. -1.
</event>
<event>
 4   1  0.3671700E-05  0.8062258E+02  0.7546771E-02  0.1202337E+00
      -11   -1    0    0    0    0  0.00000000000E+00  0.00000000000E+00  0.65000000000E+04  0.65000000000E+04  0.00000000000E+00 0. -1.
       11   -1    0    0    0    0 -0.00000000000E+00 -0.00000000000E+00 -0.65000000000E+04  0.65000000000E+04  0.00000000000E+00 0.  1.
       22    1    1    2    0    0  0.50084800256E+04  0.57366514895E+03  0.41031739094E+04  0.65000000000E+04  0.00000000000E+00 0. -1.
       22    1    1    2    0    0 -0.50084800256E+04 -0.57366514895E+03 -0.41031739094E+04  0.65000000000E+04  0.00000000000E+00 0.  1.
</event>
<event>
 4   1  0.3671700E-05  0.8062258E+02  0.7546771E-02  0.1202337E+00
      -11   -1    0    0    0    0  0.00000000000E+00  0.00000000000E+00  0.65000000000E+04  0.65000000000E+04  0.00000000000E+00 0.  1.
       11   -1    0    0    0    0 -0.00000000000E+00 -0.00000000000E+00 -0.65000000000E+04  0.65000000000E+04  0.00000000000E+00 0. -1.
       22    1    1    2    0    0 -0.34497594851E+04  0.30540886110E+04  0.45849429933E+04  0.65000000000E+04  0.00000000000E+00 0.  1.
       22    1    1    2    0    0  0.34497594851E+04 -0.30540886110E+04 -0.45849429933E+04  0.65000000000E+04  0.00000000000E+00 0. -1.
</event>
<event>
 4   1  0.3671700E-05  0.8062258E+02  0.7546771E-02  0.1202337E+00
      -11   -1    0    0    0    0  0.00000000000E+00  0.00000000000E+00  0.65000000000E+04  0.65000000000E+04  0.00000000000E+00 0.  1.
       11   -1    0    0    0    0 -0.00000000000E+00 -0.00000000000E+00 -0.65000000000E+04  0.65000000000E+04  0.00000000000E+00 0. -1.
       22    1    1    2    0    0  0.10160116381E+04  0.64684699995E+03 -0.63874337030E+04  0.65000000000E+04  0.00000000000E+00 0. -1.
       22    1    1    2    0    0 -0.10160116381E+04 -0.64684699995E+03  0.63874337030E+04  0.65000000000E+04  0.00000000000E+00 0.  1.
</event>
<event>
 4   1  0.3671700E-05  0.8062258E+02  0.7546771E-02  0.1202337E+00
      -11   -1    0    0    0    0  0.00000000000E+00  0.00000000000E+00  0.65000000000E+04  0.65000000000E+04  0.00000000000E+00 0.  1.
       11   -1    0    0    0    0 -0.00000000000E+00 -0.00000000000E+00 -0.65000000000E+04  0.65000000000E+04  0.00000000000E+00 0. -1.
       22    1    1    2    0    0  0.24003938456E+04 -0.24548275201E+04 -0.55192328482E+04  0.65000000000E+04  0.00000000000E+00 0. -1.
       22    1    1    2    0    0 -0.24003938456E+04  0.24548275201E+04  0.55192328482E+04  0.65000000000E+04  0.00000000000E+00 0.  1.
</event>
<event>
 4   1  0.3671700E-05  0.8062258E+02  0.7546771E-02  0.1202337E+00
      -11   -1    0    0    0    0  0.00000000000E+00  0.00000000000E+00  0.65000000000E+04  0.65000000000E+04  0.00000000000E+00 0. -1.
       11   -1    0    0    0    0 -0.00000000000E+00 -0.00000000000E+00 -0.65000000000E+04  0.65000000000E+04  0.00000000000E+00 0.  1.
       22    1    1    2    0    0  0.15604745834E+04  0.61788123481E+04  0.12795300081E+04  0.65000000000E+04  0.00000000000E+00 0. -1.
       22    1    1    2    0    0 -0.15604745834E+04 -0.61788123481E+04 -0.12795300081E+04  0.65000000000E+04  0.00000000000E+00 0.  1.
</event>
<event>
 4   1  0.3671700E-05  0.8062258E+02  0.7546771E-02  0.1202337E+00
      -11   -1    0    0    0    0  0.00000000000E+00  0.00000000000E+00  0.65000000000E+04  0.65000000000E+04  0.00000000000E+00 0. -1.
       11   -1    0    0    0    0 -0.00000000000E+00 -0.00000000000E+00 -0.65000000000E+04  0.65000000000E+04  0.00000000000E+00 0.  1.
       22    1    1    2    0    0 -0.81808790721E+03  0.11348596703E+04 -0.63476630113E+04  0.65000000000E+04  0.00000000000E+00 0.  1.
       22    1    1    2    0    0  0.81808790721E+03 -0.11348596703E+04  0.63476630113E+04  0.65000000000E+04  0.00000000000E+00 0. -1.
</event>
<event>
 4   1  0.3671700E-05  0.8062258E+02  0.7546771E-02  0.1202337E+00
      -11   -1    0    0    0    0  0.00000000000E+00  0.00000000000E+00  0.65000000000E+04  0.65000000000E+04  0.00000000000E+00 0. -1.
       11   -1    0    0    0    0 -0.00000000000E+00 -0.00000000000E+00 -0.65000000000E+04  0.65000000000E+04  0.00000000000E+00 0.  1.
       22    1    1    2    0    0  0.23869641020E+04 -0.18255163821E+04  0.57636700386E+04  0.65000000000E+04  0.00000000000E+00 0. -1.
       22    1    1    2    0    0 -0.23869641020E+04  0.18255163821E+04 -0.57636700386E+04  0.65000000000E+04  0.00000000000E+00 0.  1.
</event>
<event>
 4   1  0.3671700E-05  0.8062258E+02  0.7546771E-02  0.1202337E+00
      -11   -1    0    0    0    0  0.00000000000E+00  0.00000000000E+00  0.65000000000E+04  0.65000000000E+04  0.00000000000E+00 0.  1.
       11   -1    0    0    0    0 -0.00000000000E+00 -0.00000000000E+00 -0.65000000000E+04  0.65000000000E+04  0.00000000000E+00 0. -1.
       22    1    1    2    0    0 -0.18320598591E+04  0.42386941614E+03  0.62220488097E+04  0.65000000000E+04  0.00000000000E+00 0.  1.
       22    1    1    2    0    0  0.18320598591E+04 -0.42386941614E+03 -0.62220488097E+04  0.65000000000E+04  0.00000000000E+00 0. -1.
</event>
<event>
 4   1  0.3671700E-05  0.8062258E+02  0.7546771E-02  0.1202337E+00
      -11   -1    0    0    0    0  0.00000000000E+00  0.00000000000E+00  0.65000000000E+04  0.65000000000E+04  0.00000000000E+00 0.  1.
       11   -1    0    0    0    0 -0.00000000000E+00 -0.00000000000E+00 -0.65000000000E+04  0.65000000000E+04  0.00000000000E+00 0. -1.
       22    1    1    2    0    0 -0.19456179893E+04  0.11887933903E+04  0.60869812646E+04  0.65000000000E+04  0.00000000000E+00 0.  1.
       22    1    1    2    0    0  0.19456179893E+04 -0.11887933903E+04 -0.60869812646E+04  0.65000000000E+04  0.00000000000E+00 0. -1.
</event>
<event>
 4   1  0.3671700E-05  0.8062258E+02  0.7546771E-02  0.1202337E+00
      -11   -1    0    0    0    0  0.00000000000E+00  0.00000000000E+00  0.65000000000E+04  0.65000000000E+04  0.00000000000E+00 0.  1.
       11   -1    0    0    0    0 -0.00000000000E+00 -0.00000000000E+00 -0.65000000000E+04  0.65000000000E+04  0.00000000000E+00 0. -1.
       22    1    1    2    0    0 -0.27724063738E+04  0.23223750988E+04  0.54009570262E+04  0.65000000000E+04  0.00000000000E+00 0.  1.
       22    1    1    2    0    0  0.27724063738E+04 -0.23223750988E+04 -0.54009570262E+04  0.65000000000E+04  0.00000000000E+00 0. -1.
</event>
<event>
 4   1  0.3671700E-05  0.8062258E+02  0.7546771E-02  0.1202337E+00
      -11   -1    0    0    0    0  0.00000000000E+00  0.00000000000E+00  0.65000000000E+04  0.65000000000E+04  0.00000000000E+00 0. -1.
       11   -1    0    0    0    0 -0.00000000000E+00 -0.00000000000E+00 -0.65000000000E+04  0.65000000000E+04  0.00000000000E+00 0.  1.
       22    1    1    2    0    0  0.20820752032E+03  0.37337083483E+04  0.53165845802E+04  0.65000000000E+04  0.00000000000E+00 0. -1.
       22    1    1    2    0    0 -0.20820752032E+03 -0.37337083483E+04 -0.53165845802E+04  0.65000000000E+04  0.00000000000E+00 0.  1.
</event>
<event>
 4   1  0.3671700E-05  0.8062258E+02  0.7546771E-02  0.1202337E+00
      -11   -1    0    0    0    0  0.00000000000E+00  0.00000000000E+00  0.65000000000E+04  0.65000000000E+04  0.00000000000E+00 0.  1.
       11   -1    0    0    0    0 -0.00000000000E+00 -0.00000000000E+00 -0.65000000000E+04  0.65000000000E+04  0.00000000000E+00 0. -1.
       22    1    1    2    0    0  0.14253226175E+04 -0.52816689504E+03 -0.63197701831E+04  0.65000000000E+04  0.00000000000E+00 0. -1.
       22    1    1    2    0    0 -0.14253226175E+04  0.52816689504E+03  0.63197701831E+04  0.65000000000E+04  0.00000000000E+00 0.  1.
</event>
<event>
 4   1  0.3671700E-05  0.8062258E+02  0.7546771E-02  0.1202337E+00
      -11   -1    0    0    0    0  0.00000000000E+00  0.00000000000E+00  0.65000000000E+04  0.65000000000E+04  0.00000000000E+00 0. -1.
       11   -1    0    0    0    0 -0.00000000000E+00 -0.00000000000E+00 -0.65000000000E+04  0.65000000000E+04  0.00000000000E+00 0.  1.
       22    1    1    2    0    0 -0.31957151329E+04 -0.32184862335E+04 -0.46560445825E+04  0.65000000000E+04  0.00000000000E+00 0.  1.
       22    1    1    2    0    0  0.31957151329E+04  0.32184862335E+04  0.46560445825E+04  0.65000000000E+04  0.00000000000E+00 0. -1.
</event>
<event>
 4   1  0.3671700E-05  0.8062258E+02  0.7546771E-02  0.1202337E+00
      -11   -1    0    0    0    0  0.00000000000E+00  0.00000000000E+00  0.65000000000E+04  0.65000000000E+04  0.00000000000E+00 0. -1.
       11   -1    0    0    0    0 -0.00000000000E+00 -0.00000000000E+00 -0.65000000000E+04  0.65000000000E+04  0.00000000000E+00 0.  1.
       22    1    1    2    0    0 -0.33722090012E+03  0.11711630761E+04  0.63847207546E+04  0.65000000000E+04  0.00000000000E+00 0. -1.
       22    1    1    2    0    0  0.33722090012E+03 -0.11711630761E+04 -0.63847207546E+04  0.65000000000E+04  0.00000000000E+00 0.  1.
</event>
<event>
 4   1  0.3671700E-05  0.8062258E+02  0.7546771E-02  0.1202337E+00
      -11   -1    0    0    0    0  0.00000000000E+00  0.00000000000E+00  0.65000000000E+04  0.65000000000E+04  0.00000000000E+00 0.  1.
       11   -1    0    0    0    0 -0.00000000000E+00 -0.00000000000E+00 -0.65000000000E+04  0.65000000000E+04  0.00000000000E+00 0. -1.
       22    1    1    2    0    0 -0.95688898916E+03  0.23834285378E+04  0.59710662254E+04  0.65000000000E+04  0.00000000000E+00 0.  1.
       22    1    1    2    0    0  0.95688898916E+03 -0.23834285378E+04 -0.59710662254E+04  0.65000000000E+04  0.00000000000E+00 0. -1.
</event>
<event>
 4   1  0.3671700E-05  0.8062258E+02  0.7546771E-02  0.1202337E+00
      -11   -1    0    0    0    0  0.00000000000E+00  0.00000000000E+00  0.65000000000E+04  0.65000000000E+04  0.00000000000E+00 0. -1.
       11   -1    0    0    0    0 -0.00000000000E+00 -0.00000000000E+00 -0.65000000000E+04  0.65000000000E+04  0.00000000000E+00 0.  1.
       22    1    1    2    0    0  0.25301921675E+04 -0.31609257310E+03  0.59789809400E+04  0.65000000000E+04  0.00000000000E+00 0. -1.
       22    1    1    2    0    0 -0.25301921675E+04  0.31609257310E+03 -0.59789809400E+04  0.65000000000E+04  0.00000000000E+00 0.  1.
</event>
<event>
 4   1  0.3671700E-05  0.8062258E+02  0.7546771E-02  0.1202337E+00
      -11   -1    0    0    0    0  0.00000000000E+00  0.00000000000E+00  0.65000000000E+04  0.65000000000E+04  0.00000000000E+00 0.  1.
       11   -1    0    0    0    0 -0.00000000000E+00 -0.00000000000E+00 -0.65000000000E+04  0.65000000000E+04  0.00000000000E+00 0. -1.
       22    1    1    2    0    0 -0.24692819875E+04  0.35832136602E+02  0.60126003130E+04  0.65000000000E+04  0.00000000000E+00 0.  1.
       22    1    1    2    0    0  0.24692819875E+04 -0.35832136602E+02 -0.60126003130E+04  0.65000000000E+04  0.00000000000E+00 0. -1.
</event>
<event>
 4   1  0.3671700E-05  0.8062258E+02  0.7546771E-02  0.1202337E+00
      -11   -1    0    0    0    0  0.00000000000E+00  0.00000000000E+00  0.65000000000E+04  0.65000000000E+04  0.00000000000E+00 0.  1.
       11   -1    0    0    0    0 -0.00000000000E+00 -0.00000000000E+00 -0.65000000000E+04  0.65000000000E+04  0.00000000000E+00 0. -1.
       22    1    1    2    0    0 -0.13385547592E+04 -0.35621744488E+04  0.52696474600E+04  0.65000000000E+04  0.00000000000E+00 0.  1.
       22    1    1    2    0    0  0.13385547592E+04  0.35621744488E+04 -0.52696474600E+04  0.65000000000E+04  0.00000000000E+00 0. -1.
</event>
<event>
 4   1  0.3671700E-05  0.8062258E+02  0.7546771E-02  0.1202337E+00
      -11   -1    0    0    0    0  0.00000000000E+00  0.00000000000E+00  0.65000000000E+04  0.65000000000E+04  0.00000000000E+00 0. -1.
       11   -1    0    0    0    0 -0.00000000000E+00 -0.00000000000E+00 -0.65000000000E+04  0.65000000000E+04  0.00000000000E+00 0.  1.
       22    1    1    2    0    0 -0.41884081140E+04  0.42947667635E+04 -0.25024419908E+04  0.65000000000E+04  0.00000000000E+00 0.  1.
       22    1    1    2    0    0  0.41884081140E+04 -0.42947667635E+04  0.25024419908E+04  0.65000000000E+04  0.00000000000E+00 0. -1.
</event>
<event>
 4   1  0.3671700E-05  0.8062258E+02  0.7546771E-02  0.1202337E+00
      -11   -1    0    0    0    0  0.00000000000E+00  0.00000000000E+00  0.65000000000E+04  0.65000000000E+04  0.00000000000E+00 0. -1.
       11   -1    0    0    0    0 -0.00000000000E+00 -0.00000000000E+00 -0.65000000000E+04  0.65000000000E+04  0.00000000000E+00 0.  1.
       22    1    1    2    0    0 -0.13827645428E+04  0.21522699821E+04 -0.59754243484E+04  0.65000000000E+04  0.00000000000E+00 0.  1.
       22    1    1    2    0    0  0.13827645428E+04 -0.21522699821E+04  0.59754243484E+04  0.65000000000E+04  0.00000000000E+00 0. -1.
</event>
<event>
 4   1  0.3671700E-05  0.8062258E+02  0.7546771E-02  0.1202337E+00
      -11   -1    0    0    0    0  0.00000000000E+00  0.00000000000E+00  0.65000000000E+04  0.65000000000E+04  0.00000000000E+00 0.  1.
       11   -1    0    0    0    0 -0.00000000000E+00 -0.00000000000E+00 -0.65000000000E+04  0.65000000000E+04  0.00000000000E+00 0. -1.
       22    1    1    2    0    0 -0.31671803321E+04 -0.48534860031E+04 -0.29432367151E+04  0.65000000000E+04  0.00000000000E+00 0. -1.
       22    1    1    2    0    0  0.31671803321E+04  0.48534860031E+04  0.29432367151E+04  0.65000000000E+04  0.00000000000E+00 0.  1.
</event>
<event>
 4   1  0.3671700E-05  0.8062258E+02  0.7546771E-02  0.1202337E+00
      -11   -1    0    0    0    0  0.00000000000E+00  0.00000000000E+00  0.65000000000E+04  0.65000000000E+04  0.00000000000E+00 0. -1.
       11   -1    0    0    0    0 -0.00000000000E+00 -0.00000000000E+00 -0.65000000000E+04  0.65000000000E+04  0.00000000000E+00 0.  1.
       22    1    1    2    0    0  0.11212935031E+04 -0.29005610124E+04 -0.57078408083E+04  0.65000000000E+04  0.00000000000E+00 0.  1.
       22    1    1    2    0    0 -0.11212935031E+04  0.29005610124E+04  0.57078408083E+04  0.65000000000E+04  0.00000000000E+00 0. -1.
</event>
<event>
 4   1  0.3671700E-05  0.8062258E+02  0.7546771E-02  0.1202337E+00
      -11   -1    0    0    0    0  0.00000000000E+00  0.00000000000E+00  0.65000000000E+04  0.65000000000E+04  0.00000000000E+00 0. -1.
       11   -1    0    0    0    0 -0.00000000000E+00 -0.00000000000E+00 -0.65000000000E+04  0.65000000000E+04  0.00000000000E+00 0.  1.
       22    1    1    2    0    0 -0.15894252957E+03 -0.25156035112E+04 -0.59913668096E+04  0.65000000000E+04  0.00000000000E+00 0.  1.
       22    1    1    2    0    0  0.15894252957E+03  0.25156035112E+04  0.59913668096E+04  0.65000000000E+04  0.00000000000E+00 0. -1.
</event>
<event>
 4   1  0.3671700E-05  0.8062258E+02  0.7546771E-02  0.1202337E+00
      -11   -1    0    0    0    0  0.00000000000E+00  0.00000000000E+00  0.65000000000E+04  0.65000000000E+04  0.00000000000E+00 0. -1.
       11   -1    0    0    0    0 -0.00000000000E+00 -0.00000000000E+00 -0.65000000000E+04  0.65000000000E+04  0.00000000000E+00 0.  1.
       22    1    1    2    0    0  0.15677191393E+04  0.20109506229E+03 -0.63049042401E+04  0.65000000000E+04  0.00000000000E+00 0.  1.
       22    1    1    2    0    0 -0.15677191393E+04 -0.20109506229E+03  0.63049042401E+04  0.65000000000E+04  0.00000000000E+00 0. -1.
</event>
<event>
 5   2  0.3671700E-05  0.8037620E+02  0.7546771E-02  0.1202904E+00
      -11   -1    0    0    0    0  0.00000000000E+00  0.00000000000E+00  0.65000000000E+04  0.65000000000E+04  0.00000000000E+00 0.  1.
       11   -1    0    0    0    0 -0.00000000000E+00 -0.00000000000E+00 -0.65000000000E+04  0.65000000000E+04  0.00000000000E+00 0. -1.
       22    1    1    2    0    0  0.13407628377E+03  0.23691799396E+04  0.59811438352E+04  0.64346772734E+04  0.00000000000E+00 0.  1.
       22    1    1    2    0    0 -0.55812427265E+02  0.97007629127E+00  0.56030115927E+02  0.79090719910E+02  0.00000000000E+00 0.  1.
       22    1    1    2    0    0 -0.78263856510E+02 -0.23701500159E+04 -0.60371739511E+04  0.64862320067E+04  0.00000000000E+00 0. -1.
</event>
<event>
 4   1  0.3671700E-05  0.8062258E+02  0.7546771E-02  0.1202337E+00
      -11   -1    0    0    0    0  0.00000000000E+00  0.00000000000E+00  0.65000000000E+04  0.65000000000E+04  0.00000000000E+00 0. -1.
       11   -1    0    0    0    0 -0.00000000000E+00 -0.00000000000E+00 -0.65000000000E+04  0.65000000000E+04  0.00000000000E+00 0.  1.
       22    1    1    2    0    0  0.10199383026E+04  0.19360282983E+04  0.61205816952E+04  0.65000000000E+04  0.00000000000E+00 0. -1.
       22    1    1    2    0    0 -0.10199383026E+04 -0.19360282983E+04 -0.61205816952E+04  0.65000000000E+04  0.00000000000E+00 0.  1.
</event>
<event>
 4   1  0.3671700E-05  0.8062258E+02  0.7546771E-02  0.1202337E+00
      -11   -1    0    0    0    0  0.00000000000E+00  0.00000000000E+00  0.65000000000E+04  0.65000000000E+04  0.00000000000E+00 0.  1.
       11   -1    0    0    0    0 -0.00000000000E+00 -0.00000000000E+00 -0.65000000000E+04  0.65000000000E+04  0.00000000000E+00 0. -1.
       22    1    1    2    0    0 -0.20953785712E+04 -0.12225046296E+04  0.60303292675E+04  0.65000000000E+04  0.00000000000E+00 0.  1.
       22    1    1    2    0    0  0.20953785712E+04  0.12225046296E+04 -0.60303292675E+04  0.65000000000E+04  0.00000000000E+00 0. -1.
</event>
<event>
 4   1  0.3671700E-05  0.8062258E+02  0.7546771E-02  0.1202337E+00
      -11   -1    0    0    0    0  0.00000000000E+00  0.00000000000E+00  0.65000000000E+04  0.65000000000E+04  0.00000000000E+00 0. -1.
       11   -1    0    0    0    0 -0.00000000000E+00 -0.00000000000E+00 -0.65000000000E+04  0.65000000000E+04  0.00000000000E+00 0.  1.
       22    1    1    2    0    0 -0.44674749406E+04  0.11555182806E+04  0.45778210055E+04  0.65000000000E+04  0.00000000000E+00 0. -1.
       22    1    1    2    0    0  0.44674749406E+04 -0.11555182806E+04 -0.45778210055E+04  0.65000000000E+04  0.00000000000E+00 0.  1.
</event>
<event>
 4   1  0.3671700E-05  0.8062258E+02  0.7546771E-02  0.1202337E+00
      -11   -1    0    0    0    0  0.00000000000E+00  0.00000000000E+00  0.65000000000E+04  0.65000000000E+04  0.00000000000E+00 0.  1.
       11   -1    0    0    0    0 -0.00000000000E+00 -0.00000000000E+00 -0.65000000000E+04  0.65000000000E+04  0.00000000000E+00 0. -1.
       22    1    1    2    0    0  0.17675732848E+04 -0.53869914653E+03 -0.62318125704E+04  0.65000000000E+04  0.00000000000E+00 0. -1.
       22    1    1    2    0    0 -0.17675732848E+04  0.53869914653E+03  0.62318125704E+04  0.65000000000E+04  0.00000000000E+00 0.  1.
</event>
<event>
 4   1  0.3671700E-05  0.8062258E+02  0.7546771E-02  0.1202337E+00
      -11   -1    0    0    0    0  0.00000000000E+00  0.00000000000E+00  0.65000000000E+04  0.65000000000E+04  0.00000000000E+00 0. -1.
       11   -1    0    0    0    0 -0.00000000000E+00 -0.00000000000E+00 -0.65000000000E+04  0.65000000000E+04  0.00000000000E+00 0.  1.
       22    1    1    2    0    0 -0.40469329769E+04 -0.34678572502E+02 -0.50863671591E+04  0.65000000000E+04  0.00000000000E+00 0.  1.
       22    1    1    2    0    0  0.40469329769E+04  0.34678572502E+02  0.50863671591E+04  0.65000000000E+04  0.00000000000E+00 0. -1.
</event>
<event>
 4   1  0.3671700E-05  0.8062258E+02  0.7546771E-02  0.1202337E+00
      -11   -1    0    0    0    0  0.00000000000E+00  0.00000000000E+00  0.65000000000E+04  0.65000000000E+04  0.00000000000E+00 0. -1.
       11   -1    0    0    0    0 -0.00000000000E+00 -0.00000000000E+00 -0.65000000000E+04  0.65000000000E+04  0.00000000000E+00 0.  1.
       22    1    1    2    0    0  0.88668706407E+03 -0.19094085330E+04  0.61496296721E+04  0.65000000000E+04  0.00000000000E+00 0. -1.
       22    1    1    2    0    0 -0.88668706407E+03  0.19094085330E+04 -0.61496296721E+04  0.65000000000E+04  0.00000000000E+00 0.  1.
</event>
<event>
 4   1  0.3671700E-05  0.8062258E+02  0.7546771E-02  0.1202337E+00
      -11   -1    0    0    0    0  0.00000000000E+00  0.00000000000E+00  0.65000000000E+04  0.65000000000E+04  0.00000000000E+00 0.  1.
       11   -1    0    0    0    0 -0.00000000000E+00 -0.00000000000E+00 -0.65000000000E+04  0.65000000000E+04  0.00000000000E+00 0. -1.
       22    1    1    2    0    0 -0.88712280869E+03 -0.20988775465E+04  0.60875057427E+04  0.65000000000E+04  0.00000000000E+00 0.  1.
       22    1    1    2    0    0  0.88712280869E+03  0.20988775465E+04 -0.60875057427E+04  0.65000000000E+04  0.00000000000E+00 0. -1.
</event>
<event>
 4   1  0.3671700E-05  0.8062258E+02  0.7546771E-02  0.1202337E+00
      -11   -1    0    0    0    0  0.00000000000E+00  0.00000000000E+00  0.65000000000E+04  0.65000000000E+04  0.00000000000E+00 0. -1.
       11   -1    0    0    0    0 -0.00000000000E+00 -0.00000000000E+00 -0.65000000000E+04  0.65000000000E+04  0.00000000000E+00 0.  1.
       22    1    1    2    0    0  0.14539533216E+04 -0.38390294903E+04 -0.50396301760E+04  0.65000000000E+04  0.00000000000E+00 0.  1.
       22    1    1    2    0    0 -0.14539533216E+04  0.38390294903E+04  0.50396301760E+04  0.65000000000E+04  0.00000000000E+00 0. -1.
</event>
<event>
 4   1  0.3671700E-05  0.8062258E+02  0.7546771E-02  0.1202337E+00
      -11   -1    0    0    0    0  0.00000000000E+00  0.00000000000E+00  0.65000000000E+04  0.65000000000E+04  0.00000000000E+00 0. -1.
       11   -1    0    0    0    0 -0.00000000000E+00 -0.00000000000E+00 -0.65000000000E+04  0.65000000000E+04  0.00000000000E+00 0.  1.
       22    1    1    2    0    0  0.11456115078E+04  0.49746561223E+01  0.63982458163E+04  0.65000000000E+04  0.00000000000E+00 0. -1.
       22    1    1    2    0    0 -0.11456115078E+04 -0.49746561223E+01 -0.63982458163E+04  0.65000000000E+04  0.00000000000E+00 0.  1.
</event>
<event>
 4   1  0.3671700E-05  0.8062258E+02  0.7546771E-02  0.1202337E+00
      -11   -1    0    0    0    0  0.00000000000E+00  0.00000000000E+00  0.65000000000E+04  0.65000000000E+04  0.00000000000E+00 0.  1.
       11   -1    0    0    0    0 -0.00000000000E+00 -0.00000000000E+00 -0.65000000000E+04  0.65000000000E+04  0.00000000000E+00 0. -1.
       22    1    1    2    0    0  0.38961797472E+04  0.14004996930E+04  0.50108266770E+04  0.65000000000E+04  0.00000000000E+00 0.  1.
       22    1    1    2    0    0 -0.38961797472E+04 -0.14004996930E+04 -0.50108266770E+04  0.65000000000E+04  0.00000000000E+00 0. -1.
</event>
<event>
 4   1  0.3671700E-05  0.8062258E+02  0.7546771E-02  0.1202337E+00
      -11   -1    0    0    0    0  0.00000000000E+00  0.00000000000E+00  0.65000000000E+04  0.65000000000E+04  0.00000000000E+00 0.  1.
       11   -1    0    0    0    0 -0.00000000000E+00 -0.00000000000E+00 -0.65000000000E+04  0.65000000000E+04  0.00000000000E+00 0. -1.
       22    1    1    2    0    0 -0.46577883308E+04  0.19566367690E+04 -0.40898142280E+04  0.65000000000E+04  0.00000000000E+00 0. -1.
       22    1    1    2    0    0  0.46577883308E+04 -0.19566367690E+04  0.40898142280E+04  0.65000000000E+04  0.00000000000E+00 0.  1.
</event>
<event>
 4   1  0.3671700E-05  0.8062258E+02  0.7546771E-02  0.1202337E+00
      -11   -1    0    0    0    0  0.00000000000E+00  0.00000000000E+00  0.65000000000E+04  0.65000000000E+04  0.00000000000E+00 0. -1.
       11   -1    0    0    0    0 -0.00000000000E+00 -0.00000000000E+00 -0.65000000000E+04  0.65000000000E+04  0.00000000000E+00 0.  1.
       22    1    1    2    0    0 -0.26230857508E+04  0.25751366944E+04 -0.53607921195E+04  0.65000000000E+04  0.00000000000E+00 0.  1.
       22    1    1    2    0    0  0.26230857508E+04 -0.25751366944E+04  0.53607921195E+04  0.65000000000E+04  0.00000000000E+00 0. -1.
</event>
<event>
 4   1  0.3671700E-05  0.8062258E+02  0.7546771E-02  0.1202337E+00
      -11   -1    0    0    0    0  0.00000000000E+00  0.00000000000E+00  0.65000000000E+04  0.65000000000E+04  0.00000000000E+00 0. -1.
       11   -1    0    0    0    0 -0.00000000000E+00 -0.00000000000E+00 -0.65000000000E+04  0.65000000000E+04  0.00000000000E+00 0.  1.
       22    1    1    2    0    0 -0.59843128839E+04  0.60047779697E+03  0.24652435422E+04  0.65000000000E+04  0.00000000000E+00 0. -1.
       22    1    1    2    0    0  0.59843128839E+04 -0.60047779697E+03 -0.24652435422E+04  0.65000000000E+04  0.00000000000E+00 0.  1.
</event>
<event>
 4   1  0.3671700E-05  0.8062258E+02  0.7546771E-02  0.1202337E+00
      -11   -1    0    0    0    0  0.00000000000E+00  0.00000000000E+00  0.65000000000E+04  0.65000000000E+04  0.00000000000E+00 0. -1.
       11   -1    0    0    0    0 -0.00000000000E+00 -0.00000000000E+00 -0.65000000000E+04  0.65000000000E+04  0.00000000000E+00 0.  1.
       22    1    1    2    0    0 -0.24945758491E+03 -0.10475222455E+04 -0.64101847133E+04  0.65000000000E+04  0.00000000000E+00 0.  1.
       22    1    1    2    0    0  0.24945758491E+03  0.10475222455E+04  0.64101847133E+04  0.65000000000E+04  0.00000000000E+00 0. -1.
</event>
<event>
 4   1  0.3671700E-05  0.8062258E+02  0.7546771E-02  0.1202337E+00
      -11   -1    0    0    0    0  0.00000000000E+00  0.00000000000E+00  0.65000000000E+04  0.65000000000E+04  0.00000000000E+00 0. -1.
       11   -1    0    0    0    0 -0.00000000000E+00 -0.00000000000E+00 -0.65000000000E+04  0.65000000000E+04  0.00000000000E+00 0.  1.
       22    1    1    2    0    0  0.24332776386E+04 -0.24803698244E+04 -0.54933528439E+04  0.65000000000E+04  0.00000000000E+00 0.  1.
       22    1    1    2    0    0 -0.24332776386E+04  0.24803698244E+04  0.54933528439E+04  0.65000000000E+04  0.00000000000E+00 0. -1.
</event>
<event>
 4   1  0.3671700E-05  0.8062258E+02  0.7546771E-02  0.1202337E+00
      -11   -1    0    0    0    0  0.00000000000E+00  0.00000000000E+00  0.65000000000E+04  0.65000000000E+04  0.00000000000E+00 0. -1.
       11   -1    0    0    0    0 -0.00000000000E+00 -0.00000000000E+00 -0.65000000000E+04  0.65000000000E+04  0.00000000000E+00 0.  1.
       22    1    1    2    0    0 -0.61275720669E+04 -0.40561935240E+02 -0.21682286074E+04  0.65000000000E+04  0.00000000000E+00 0. -1.
       22    1    1    2    0    0  0.61275720669E+04  0.40561935240E+02  0.21682286074E+04  0.65000000000E+04  0.00000000000E+00 0.  1.
</event>
<event>
 4   1  0.3671700E-05  0.8062258E+02  0.7546771E-02  0.1202337E+00
      -11   -1    0    0    0    0  0.00000000000E+00  0.00000000000E+00  0.65000000000E+04  0.65000000000E+04  0.00000000000E+00 0.  1.
       11   -1    0    0    0    0 -0.00000000000E+00 -0.00000000000E+00 -0.65000000000E+04  0.65000000000E+04  0.00000000000E+00 0. -1.
       22    1    1    2    0    0  0.20241130481E+04  0.29527554944E+03  0.61697470547E+04  0.65000000000E+04  0.00000000000E+00 0.  1.
       22    1    1    2    0    0 -0.20241130481E+04 -0.29527554944E+03 -0.61697470547E+04  0.65000000000E+04  0.00000000000E+00 0. -1.
</event>
<event>
 4   1  0.3671700E-05  0.8062258E+02  0.7546771E-02  0.1202337E+00
      -11   -1    0    0    0    0  0.00000000000E+00  0.00000000000E+00  0.65000000000E+04  0.65000000000E+04  0.00000000000E+00 0. -1.
       11   -1    0    0    0    0 -0.00000000000E+00 -0.00000000000E+00 -0.65000000000E+04  0.65000000000E+04  0.00000000000E+00 0.  1.
       22    1    1    2    0    0 -0.10654754484E+04 -0.21297606572E+04 -0.60480477521E+04  0.65000000000E+04  0.00000000000E+00 0.  1.
       22    1    1    2    0    0  0.10654754484E+04  0.21297606572E+04  0.60480477521E+04  0.65000000000E+04  0.00000000000E+00 0. -1.
</event>
<event>
 4   1  0.3671700E-05  0.8062258E+02  0.7546771E-02  0.1202337E+00
      -11   -1    0    0    0    0  0.00000000000E+00  0.00000000000E+00  0.65000000000E+04  0.65000000000E+04  0.00000000000E+00 0. -1.
       11   -1    0    0    0    0 -0.00000000000E+00 -0.00000000000E+00 -0.65000000000E+04  0.65000000000E+04  0.00000000000E+00 0.  1.
       22    1    1    2    0    0  0.11348014292E+04  0.16833379748E+04  0.61748359475E+04  0.65000000000E+04  0.00000000000E+00 0. -1.
       22    1    1    2    0    0 -0.11348014292E+04 -0.16833379748E+04 -0.61748359475E+04  0.65000000000E+04  0.00000000000E+00 0.  1.
</event>
<event>
 4   1  0.3671700E-05  0.8062258E+02  0.7546771E-02  0.1202337E+00
      -11   -1    0    0    0    0  0.00000000000E+00  0.00000000000E+00  0.65000000000E+04  0.65000000000E+04  0.00000000000E+00 0. -1.
       11   -1    0    0    0    0 -0.00000000000E+00 -0.00000000000E+00 -0.65000000000E+04  0.65000000000E+04  0.00000000000E+00 0.  1.
       22    1    1    2    0    0  0.55944873408E+03 -0.94793036946E+03  0.64061255942E+04  0.65000000000E+04  0.00000000000E+00 0. -1.
       22    1    1    2    0    0 -0.55944873408E+03  0.94793036946E+03 -0.64061255942E+04  0.65000000000E+04  0.00000000000E+00 0.  1.
</event>
<event>
 4   1  0.3671700E-05  0.8062258E+02  0.7546771E-02  0.1202337E+00
      -11   -1    0    0    0    0  0.00000000000E+00  0.00000000000E+00  0.65000000000E+04  0.65000000000E+04  0.00000000000E+00 0.  1.
       11   -1    0    0    0    0 -0.00000000000E+00 -0.00000000000E+00 -0.65000000000E+04  0.65000000000E+04  0.00000000000E+00 0. -1.
       22    1    1    2    0    0  0.32375431529E+04 -0.39189435365E+04 -0.40509499986E+04  0.65000000000E+04  0.00000000000E+00 0. -1.
       22    1    1    2    0    0 -0.32375431529E+04  0.39189435365E+04  0.40509499986E+04  0.65000000000E+04  0.00000000000E+00 0.  1.
</event>
<event>
 4   1  0.3671700E-05  0.8062258E+02  0.7546771E-02  0.1202337E+00
      -11   -1    0    0    0    0  0.00000000000E+00  0.00000000000E+00  0.65000000000E+04  0.65000000000E+04  0.00000000000E+00 0.  1.
       11   -1    0    0    0    0 -0.00000000000E+00 -0.00000000000E+00 -0.65000000000E+04  0.65000000000E+04  0.00000000000E+00 0. -1.
       22    1    1    2    0    0 -0.46592621124E+03  0.10026209453E+04  0.64052840691E+04  0.65000000000E+04  0.00000000000E+00 0.  1.
       22    1    1    2    0    0  0.46592621124E+03 -0.10026209453E+04 -0.64052840691E+04  0.65000000000E+04  0.00000000000E+00 0. -1.
</event>
<event>
 4   1  0.3671700E-05  0.8062258E+02  0.7546771E-02  0.1202337E+00
      -11   -1    0    0    0    0  0.00000000000E+00  0.00000000000E+00  0.65000000000E+04  0.65000000000E+04  0.00000000000E+00 0. -1.
       11   -1    0    0    0    0 -0.00000000000E+00 -0.00000000000E+00 -0.65000000000E+04  0.65000000000E+04  0.00000000000E+00 0.  1.
       22    1    1    2    0    0  0.94730881161E+03  0.22057796652E+04  0.60404587644E+04  0.65000000000E+04  0.00000000000E+00 0. -1.
       22    1    1    2    0    0 -0.94730881161E+03 -0.22057796652E+04 -0.60404587644E+04  0.65000000000E+04  0.00000000000E+00 0.  1.
</event>
<event>
 4   1  0.3671700E-05  0.8062258E+02  0.7546771E-02  0.1202337E+00
      -11   -1    0    0    0    0  0.00000000000E+00  0.00000000000E+00  0.65000000000E+04  0.65000000000E+04  0.00000000000E+00 0.  1.
       11   -1    0    0    0    0 -0.00000000000E+00 -0.00000000000E+00 -0.65000000000E+04  0.65000000000E+04  0.00000000000E+00 0. -1.
       22    1    1    2    0    0 -0.35298579505E+04  0.12142047233E+04  0.53212601646E+04  0.65000000000E+04  0.00000000000E+00 0.  1.
       22    1    1    2    0    0  0.35298579505E+04 -0.12142047233E+04 -0.53212601646E+04  0.65000000000E+04  0.00000000000E+00 0. -1.
</event>
<event>
 4   1  0.3671700E-05  0.8062258E+02  0.7546771E-02  0.1202337E+00
      -11   -1    0    0    0    0  0.00000000000E+00  0.00000000000E+00  0.65000000000E+04  0.65000000000E+04  0.00000000000E+00 0.  1.
       11   -1    0    0    0    0 -0.00000000000E+00 -0.00000000000E+00 -0.65000000000E+04  0.65000000000E+04  0.00000000000E+00 0. -1.
       22    1    1    2    0    0 -0.33151349893E+04  0.38337054933E+04 -0.40697152471E+04  0.65000000000E+04  0.00000000000E+00 0. -1.
       22    1    1    2    0    0  0.33151349893E+04 -0.38337054933E+04  0.40697152471E+04  0.65000000000E+04  0.00000000000E+00 0.  1.
</event>
<event>
 4   1  0.3671700E-05  0.8062258E+02  0.7546771E-02  0.1202337E+00
      -11   -1    0    0    0    0  0.00000000000E+00  0.00000000000E+00  0.65000000000E+04  0.65000000000E+04  0.00000000000E+00 0.  1.
       11   -1    0    0    0    0 -0.00000000000E+00 -0.00000000000E+00 -0.65000000000E+04  0.65000000000E+04  0.00000000000E+00 0. -1.
       22    1    1    2    0    0 -0.31214358444E+04 -0.44277712326E+04  0.35918630515E+04  0.65000000000E+04  0.00000000000E+00 0.  1.
       22    1    1    2    0    0  0.31214358444E+04  0.44277712326E+04 -0.35918630515E+04  0.65000000000E+04  0.00000000000E+00 0. -1.
</event>
<event>
 4   1  0.3671700E-05  0.8062258E+02  0.7546771E-02  0.1202337E+00
      -11   -1    0    0    0    0  0.00000000000E+00  0.00000000000E+00  0.65000000000E+04  0.65000000000E+04  0.00000000000E+00 0. -1.
       11   -1    0    0    0    0 -0.00000000000E+00 -0.00000000000E+00 -0.65000000000E+04  0.65000000000E+04  0.00000000000E+00 0.  1.
       22    1    1    2    0    0 -0.12141860352E+04 -0.11596688515E+04 -0.62794044643E+04  0.65000000000E+04  0.00000000000E+00 0.  1.
       22    1    1    2    0    0  0.12141860352E+04  0.11596688515E+04  0.62794044643E+04  0.65000000000E+04  0.00000000000E+00 0. -1.
</event>
<event>
 4   1  0.3671700E-05  0.8062258E+02  0.7546771E-02  0.1202337E+00
      -11   -1    0    0    0    0  0.00000000000E+00  0.00000000000E+00  0.65000000000E+04  0.65000000000E+04  0.00000000000E+00 0. -1.
       11   -1    0    0    0    0 -0.00000000000E+00 -0.00000000000E+00 -0.65000000000E+04  0.65000000000E+04  0.00000000000E+00 0.  1.
       22    1    1    2    0    0  0.84818802438E+03  0.85568711586E+03 -0.63873606940E+04  0.65000000000E+04  0.00000000000E+00 0.  1.
       22    1    1    2    0    0 -0.84818802438E+03 -0.85568711586E+03  0.63873606940E+04  0.65000000000E+04  0.00000000000E+00 0. -1.
</event>
<event>
 4   1  0.3671700E-05  0.8062258E+02  0.7546771E-02  0.1202337E+00
      -11   -1    0    0    0    0  0.00000000000E+00  0.00000000000E+00  0.65000000000E+04  0.65000000000E+04  0.00000000000E+00 0. -1.
       11   -1    0    0    0    0 -0.00000000000E+00 -0.00000000000E+00 -0.65000000000E+04  0.65000000000E+04  0.00000000000E+00 0.  1.
       22    1    1    2    0    0 -0.33339543344E+04 -0.18482451423E+04  0.52648588196E+04  0.65000000000E+04  0.00000000000E+00 0. -1.
       22    1    1    2    0    0  0.33339543344E+04  0.18482451423E+04 -0.52648588196E+04  0.65000000000E+04  0.00000000000E+00 0.  1.
</event>
<event>
 5   2  0.3671700E-05  0.8018159E+02  0.7546771E-02  0.1203352E+00
      -11   -1    0    0    0    0  0.00000000000E+00  0.00000000000E+00  0.65000000000E+04  0.65000000000E+04  0.00000000000E+00 0. -1.
       11   -1    0    0    0    0 -0.00000000000E+00 -0.00000000000E+00 -0.65000000000E+04  0.65000000000E+04  0.00000000000E+00 0.  1.
       22    1    1    2    0    0  0.11102883330E+03 -0.63550758223E+02  0.59410212947E+02  0.14105202621E+03  0.00000000000E+00 0.  1.
       22    1    1    2    0    0 -0.26539555965E+04 -0.20928806309E+04 -0.55131794754E+04  0.64667439699E+04  0.00000000000E+00 0.  1.
       22    1    1    2    0    0  0.25429267632E+04  0.21564313892E+04  0.54537692625E+04  0.63922040039E+04  0.00000000000E+00 0. -1.
</event>
<event>
 4   1  0.3671700E-05  0.8062258E+02  0.7546771E-02  0.1202337E+00
      -11   -1    0    0    0    0  0.00000000000E+00  0.00000000000E+00  0.65000000000E+04  0.65000000000E+04  0.00000000000E+00 0. -1.
       11   -1    0    0    0    0 -0.00000000000E+00 -0.00000000000E+00 -0.65000000000E+04  0.65000000000E+04  0.00000000000E+00 0.  1.
       22    1    1    2    0    0  0.90308102921E+03  0.60918113175E+03 -0.64080685860E+04  0.65000000000E+04  0.00000000000E+00 0.  1.
       22    1    1    2    0    0 -0.90308102921E+03 -0.60918113175E+03  0.64080685860E+04  0.65000000000E+04  0.00000000000E+00 0. -1.
</event>
<event>
 4   1  0.3671700E-05  0.8062258E+02  0.7546771E-02  0.1202337E+00
      -11   -1    0    0    0    0  0.00000000000E+00  0.00000000000E+00  0.65000000000E+04  0.65000000000E+04  0.00000000000E+00 0. -1.
       11   -1    0    0    0    0 -0.00000000000E+00 -0.00000000000E+00 -0.65000000000E+04  0.65000000000E+04  0.00000000000E+00 0.  1.
       22    1    1    2    0    0 -0.45119533897E+02  0.13396092367E+04  0.63602996251E+04  0.65000000000E+04  0.00000000000E+00 0. -1.
       22    1    1    2    0    0  0.45119533897E+02 -0.13396092367E+04 -0.63602996251E+04  0.65000000000E+04  0.00000000000E+00 0.  1.
</event>
<event>
 4   1  0.3671700E-05  0.8062258E+02  0.7546771E-02  0.1202337E+00
      -11   -1    0    0    0    0  0.00000000000E+00  0.00000000000E+00  0.65000000000E+04  0.65000000000E+04  0.00000000000E+00 0. -1.
       11   -1    0    0    0    0 -0.00000000000E+00 -0.00000000000E+00 -0.65000000000E+04  0.65000000000E+04  0.00000000000E+00 0.  1.
       22    1    1    2    0    0 -0.14812655550E+03 -0.23166146394E+04  0.60713552965E+04  0.65000000000E+04  0.00000000000E+00 0. -1.
       22    1    1    2    0    0  0.14812655550E+03  0.23166146394E+04 -0.60713552965E+04  0.65000000000E+04  0.00000000000E+00 0.  1.
</event>
<event>
 4   1  0.3671700E-05  0.8062258E+02  0.7546771E-02  0.1202337E+00
      -11   -1    0    0    0    0  0.00000000000E+00  0.00000000000E+00  0.65000000000E+04  0.65000000000E+04  0.00000000000E+00 0.  1.
       11   -1    0    0    0    0 -0.00000000000E+00 -0.00000000000E+00 -0.65000000000E+04  0.65000000000E+04  0.00000000000E+00 0. -1.
       22    1    1    2    0    0  0.29867279482E+03  0.12768835006E+04 -0.63663461332E+04  0.65000000000E+04  0.00000000000E+00 0. -1.
       22    1    1    2    0    0 -0.29867279482E+03 -0.12768835006E+04  0.63663461332E+04  0.65000000000E+04  0.00000000000E+00 0.  1.
</event>
<event>
 4   1  0.3671700E-05  0.8062258E+02  0.7546771E-02  0.1202337E+00
      -11   -1    0    0    0    0  0.00000000000E+00  0.00000000000E+00  0.65000000000E+04  0.65000000000E+04  0.00000000000E+00 0. -1.
       11   -1    0    0    0    0 -0.00000000000E+00 -0.00000000000E+00 -0.65000000000E+04  0.65000000000E+04  0.00000000000E+00 0.  1.
       22    1    1    2    0    0  0.29760001904E+04  0.53964319442E+04  0.20668684377E+04  0.65000000000E+04  0.00000000000E+00 0.  1.
       22    1    1    2    0    0 -0.29760001904E+04 -0.53964319442E+04 -0.20668684377E+04  0.65000000000E+04  0.00000000000E+00 0. -1.
</event>
<event>
 4   1  0.3671700E-05  0.8062258E+02  0.7546771E-02  0.1202337E+00
      -11   -1    0    0    0    0  0.00000000000E+00  0.00000000000E+00  0.65000000000E+04  0.65000000000E+04  0.00000000000E+00 0.  1.
       11   -1    0    0    0    0 -0.00000000000E+00 -0.00000000000E+00 -0.65000000000E+04  0.65000000000E+04  0.00000000000E+00 0. -1.
       22    1    1    2    0    0  0.68998711675E+03  0.13083883918E+04  0.63294579227E+04  0.65000000000E+04  0.00000000000E+00 0.  1.
       22    1    1    2    0    0 -0.68998711675E+03 -0.13083883918E+04 -0.63294579227E+04  0.65000000000E+04  0.00000000000E+00 0. -1.
</event>
<event>
 4   1  0.3671700E-05  0.8062258E+02  0.7546771E-02  0.1202337E+00
      -11   -1    0    0    0    0  0.00000000000E+00  0.00000000000E+00  0.65000000000E+04  0.65000000000E+04  0.00000000000E+00 0. -1.
       11   -1    0    0    0    0 -0.00000000000E+00 -0.00000000000E+00 -0.65000000000E+04  0.65000000000E+04  0.00000000000E+00 0.  1.
       22    1    1    2    0    0 -0.41361874599E+03  0.23709100002E+04 -0.60380216382E+04  0.65000000000E+04  0.00000000000E+00 0.  1.
       22    1    1    2    0    0  0.41361874599E+03 -0.23709100002E+04  0.60380216382E+04  0.65000000000E+04  0.00000000000E+00 0. -1.
</event>
<event>
 4   1  0.3671700E-05  0.8062258E+02  0.7546771E-02  0.1202337E+00
      -11   -1    0    0    0    0  0.00000000000E+00  0.00000000000E+00  0.65000000000E+04  0.65000000000E+04  0.00000000000E+00 0. -1.
       11   -1    0    0    0    0 -0.00000000000E+00 -0.00000000000E+00 -0.65000000000E+04  0.65000000000E+04  0.00000000000E+00 0.  1.
       22    1    1    2    0    0 -0.15301466154E+04  0.11919939869E+03 -0.63162047813E+04  0.65000000000E+04  0.00000000000E+00 0.  1.
       22    1    1    2    0    0  0.15301466154E+04 -0.11919939869E+03  0.63162047813E+04  0.65000000000E+04  0.00000000000E+00 0. -1.
</event>
<event>
 4   1  0.3671700E-05  0.8062258E+02  0.7546771E-02  0.1202337E+00
      -11   -1    0    0    0    0  0.00000000000E+00  0.00000000000E+00  0.65000000000E+04  0.65000000000E+04  0.00000000000E+00 0. -1.
       11   -1    0    0    0    0 -0.00000000000E+00 -0.00000000000E+00 -0.65000000000E+04  0.65000000000E+04  0.00000000000E+00 0.  1.
       22    1    1    2    0    0 -0.16059938015E+04 -0.17705558201E+03  0.62959856441E+04  0.65000000000E+04  0.00000000000E+00 0. -1.
       22    1    1    2    0    0  0.16059938015E+04  0.17705558201E+03 -0.62959856441E+04  0.65000000000E+04  0.00000000000E+00 0.  1.
</event>
<event>
 4   1  0.3671700E-05  0.8062258E+02  0.7546771E-02  0.1202337E+00
      -11   -1    0    0    0    0  0.00000000000E+00  0.00000000000E+00  0.65000000000E+04  0.65000000000E+04  0.00000000000E+00 0. -1.
       11   -1    0    0    0    0 -0.00000000000E+00 -0.00000000000E+00 -0.65000000000E+04  0.65000000000E+04  0.00000000000E+00 0.  1.
       22    1    1    2    0    0 -0.63121586310E+03  0.11947264837E+04 -0.63580024507E+04  0.65000000000E+04  0.00000000000E+00 0.  1.
       22    1    1    2    0    0  0.63121586310E+03 -0.11947264837E+04  0.63580024507E+04  0.65000000000E+04  0.00000000000E+00 0. -1.
</event>
<event>
 5   2  0.3671700E-05  0.8045111E+02  0.7546771E-02  0.1202731E+00
      -11   -1    0    0    0    0  0.00000000000E+00  0.00000000000E+00  0.65000000000E+04  0.65000000000E+04  0.00000000000E+00 0.  1.
       11   -1    0    0    0    0 -0.00000000000E+00 -0.00000000000E+00 -0.65000000000E+04  0.65000000000E+04  0.00000000000E+00 0. -1.
       22    1    1    2    0    0 -0.21374907835E+02  0.18010831016E+02  0.47508406863E+02  0.55121007261E+02  0.00000000000E+00 0.  1.
       22    1    1    2    0    0 -0.11442287698E+04 -0.52773464268E+04  0.35543073361E+04  0.64647308858E+04  0.00000000000E+00 0.  1.
       22    1    1    2    0    0  0.11656036777E+04  0.52593355957E+04 -0.36018157430E+04  0.64801481070E+04  0.00000000000E+00 0. -1.
</event>
<event>
 4   1  0.3671700E-05  0.8062258E+02  0.7546771E-02  0.1202337E+00
      -11   -1    0    0    0    0  0.00000000000E+00  0.00000000000E+00  0.65000000000E+04  0.65000000000E+04  0.00000000000E+00 0. -1.
       11   -1    0    0    0    0 -0.00000000000E+00 -0.00000000000E+00 -0.65000000000E+04  0.65000000000E+04  0.00000000000E+00 0.  1.
       22    1    1    2    0    0  0.48113165377E+04 -0.20875848340E+04 -0.38396904479E+04  0.65000000000E+04  0.00000000000E+00 0.  1.
       22    1    1    2    0    0 -0.48113165377E+04  0.20875848340E+04  0.38396904479E+04  0.65000000000E+04  0.00000000000E+00 0. -1.
</event>
<event>
 4   1  0.3671700E-05  0.8062258E+02  0.7546771E-02  0.1202337E+00
      -11   -1    0    0    0    0  0.00000000000E+00  0.00000000000E+00  0.65000000000E+04  0.65000000000E+04  0.00000000000E+00 0. -1.
       11   -1    0    0    0    0 -0.00000000000E+00 -0.00000000000E+00 -0.65000000000E+04  0.65000000000E+04  0.00000000000E+00 0.  1.
       22    1    1    2    0    0 -0.48805032401E+03 -0.11149159567E+04  0.63850426225E+04  0.65000000000E+04  0.00000000000E+00 0. -1.
       22    1    1    2    0    0  0.48805032401E+03  0.11149159567E+04 -0.63850426225E+04  0.65000000000E+04  0.00000000000E+00 0.  1.
</event>
<event>
 4   1  0.3671700E-05  0.8062258E+02  0.7546771E-02  0.1202337E+00
      -11   -1    0    0    0    0  0.00000000000E+00  0.00000000000E+00  0.65000000000E+04  0.65000000000E+04  0.00000000000E+00 0.  1.
       11   -1    0    0    0    0 -0.00000000000E+00 -0.00000000000E+00 -0.65000000000E+04  0.65000000000E+04  0.00000000000E+00 0. -1.
       22    1    1    2    0    0  0.28189007111E+04  0.87687274600E+03 -0.57909319603E+04  0.65000000000E+04  0.00000000000E+00 0. -1.
       22    1    1    2    0    0 -0.28189007111E+04 -0.87687274600E+03  0.57909319603E+04  0.65000000000E+04  0.00000000000E+00 0.  1.
</event>
<event>
 4   1  0.3671700E-05  0.8062258E+02  0.7546771E-02  0.1202337E+00
      -11   -1    0    0    0    0  0.00000000000E+00  0.00000000000E+00  0.65000000000E+04  0.65000000000E+04  0.00000000000E+00 0.  1.
       11   -1    0    0    0    0 -0.00000000000E+00 -0.00000000000E+00 -0.65000000000E+04  0.65000000000E+04  0.00000000000E+00 0. -1.
       22    1    1    2    0    0  0.37500949622E+04 -0.60175099005E+03 -0.52749107595E+04  0.65000000000E+04  0.00000000000E+00 0. -1.
       22    1    1    2    0    0 -0.37500949622E+04  0.60175099005E+03  0.52749107595E+04  0.65000000000E+04  0.00000000000E+00 0.  1.
</event>
<event>
 4   1  0.3671700E-05  0.8062258E+02  0.7546771E-02  0.1202337E+00
      -11   -1    0    0    0    0  0.00000000000E+00  0.00000000000E+00  0.65000000000E+04  0.65000000000E+04  0.00000000000E+00 0. -1.
       11   -1    0    0    0    0 -0.00000000000E+00 -0.00000000000E+00 -0.65000000000E+04  0.65000000000E+04  0.00000000000E+00 0.  1.
       22    1    1    2    0    0 -0.43483636406E+03 -0.11829628201E+04 -0.63766383230E+04  0.65000000000E+04  0.00000000000E+00 0.  1.
       22    1    1    2    0    0  0.43483636406E+03  0.11829628201E+04  0.63766383230E+04  0.65000000000E+04  0.00000000000E+00 0. -1.
</event>
<event>
 4   1  0.3671700E-05  0.8062258E+02  0.7546771E-02  0.1202337E+00
      -11   -1    0    0    0    0  0.00000000000E+00  0.00000000000E+00  0.65000000000E+04  0.65000000000E+04  0.00000000000E+00 0. -1.
       11   -1    0    0    0    0 -0.00000000000E+00 -0.00000000000E+00 -0.65000000000E+04  0.65000000000E+04  0.00000000000E+00 0.  1.
       22    1    1    2    0    0 -0.12005459489E+04 -0.94923281269E+02  0.63874626414E+04  0.65000000000E+04  0.00000000000E+00 0. -1.
       22    1    1    2    0    0  0.12005459489E+04  0.94923281269E+02 -0.63874626414E+04  0.65000000000E+04  0.00000000000E+00 0.  1.
</event>
<event>
 4   1  0.3671700E-05  0.8062258E+02  0.7546771E-02  0.1202337E+00
      -11   -1    0    0    0    0  0.00000000000E+00  0.00000000000E+00  0.65000000000E+04  0.65000000000E+04  0.00000000000E+00 0. -1.
       11   -1    0    0    0    0 -0.00000000000E+00 -0.00000000000E+00 -0.65000000000E+04  0.65000000000E+04  0.00000000000E+00 0.  1.
       22    1    1    2    0    0  0.14070641500E+03 -0.24429236255E+04 -0.60218208098E+04  0.65000000000E+04  0.00000000000E+00 0.  1.
       22    1    1    2    0    0 -0.14070641500E+03  0.24429236255E+04  0.60218208098E+04  0.65000000000E+04  0.00000000000E+00 0. -1.
</event>
<event>
 4   1  0.3671700E-05  0.8062258E+02  0.7546771E-02  0.1202337E+00
      -11   -1    0    0    0    0  0.00000000000E+00  0.00000000000E+00  0.65000000000E+04  0.65000000000E+04  0.00000000000E+00 0. -1.
       11   -1    0    0    0    0 -0.00000000000E+00 -0.00000000000E+00 -0.65000000000E+04  0.65000000000E+04  0.00000000000E+00 0.  1.
       22    1    1    2    0    0  0.29038426997E+04  0.15840587868E+04  0.55953959052E+04  0.65000000000E+04  0.00000000000E+00 0. -1.
       22    1    1    2    0    0 -0.29038426997E+04 -0.15840587868E+04 -0.55953959052E+04  0.65000000000E+04  0.00000000000E+00 0.  1.
</event>
<event>
 4   1  0.3671700E-05  0.8062258E+02  0.7546771E-02  0.1202337E+00
      -11   -1    0    0    0    0  0.00000000000E+00  0.00000000000E+00  0.65000000000E+04  0.65000000000E+04  0.00000000000E+00 0.  1.
       11   -1    0    0    0    0 -0.00000000000E+00 -0.00000000000E+00 -0.65000000000E+04  0.65000000000E+04  0.00000000000E+00 0. -1.
       22    1    1    2    0    0 -0.18915870222E+04  0.11606480716E+04 -0.61094021468E+04  0.65000000000E+04  0.00000000000E+00 0. -1.
       22    1    1    2    0    0  0.18915870222E+04 -0.11606480716E+04  0.61094021468E+04  0.65000000000E+04  0.00000000000E+00 0.  1.
</event>
<event>
 4   1  0.3671700E-05  0.8062258E+02  0.7546771E-02  0.1202337E+00
      -11   -1    0    0    0    0  0.00000000000E+00  0.00000000000E+00  0.65000000000E+04  0.65000000000E+04  0.00000000000E+00 0. -1.
       11   -1    0    0    0    0 -0.00000000000E+00 -0.00000000000E+00 -0.65000000000E+04  0.65000000000E+04  0.00000000000E+00 0.  1.
       22    1    1    2    0    0 -0.23773140537E+04 -0.62606732833E+03 -0.60171768788E+04  0.65000000000E+04  0.00000000000E+00 0.  1.
       22    1    1    2    0    0  0.23773140537E+04  0.62606732833E+03  0.60171768788E+04  0.65000000000E+04  0.00000000000E+00 0. -1.
</event>
<event>
 4   1  0.3671700E-05  0.8062258E+02  0.7546771E-02  0.1202337E+00
      -11   -1    0    0    0    0  0.00000000000E+00  0.00000000000E+00  0.65000000000E+04  0.65000000000E+04  0.00000000000E+00 0. -1.
       11   -1    0    0    0    0 -0.00000000000E+00 -0.00000000000E+00 -0.65000000000E+04  0.65000000000E+04  0.00000000000E+00 0.  1.
       22    1    1    2    0    0 -0.35405243860E+04  0.53416872015E+04 -0.10867681045E+04  0.65000000000E+04  0.00000000000E+00 0.  1.
       22    1    1    2    0    0  0.35405243860E+04 -0.53416872015E+04  0.10867681045E+04  0.65000000000E+04  0.00000000000E+00 0. -1.
</event>
<event>
 4   1  0.3671700E-05  0.8062258E+02  0.7546771E-02  0.1202337E+00
      -11   -1    0    0    0    0  0.00000000000E+00  0.00000000000E+00  0.65000000000E+04  0.65000000000E+04  0.00000000000E+00 0.  1.
       11   -1    0    0    0    0 -0.00000000000E+00 -0.00000000000E+00 -0.65000000000E+04  0.65000000000E+04  0.00000000000E+00 0. -1.
       22    1    1    2    0    0 -0.79995426986E+03  0.80208750789E+03 -0.64005256656E+04  0.65000000000E+04  0.00000000000E+00 0. -1.
       22    1    1    2    0    0  0.79995426986E+03 -0.80208750789E+03  0.64005256656E+04  0.65000000000E+04  0.00000000000E+00 0.  1.
</event>
<event>
 4   1  0.3671700E-05  0.8062258E+02  0.7546771E-02  0.1202337E+00
      -11   -1    0    0    0    0  0.00000000000E+00  0.00000000000E+00  0.65000000000E+04  0.65000000000E+04  0.00000000000E+00 0.  1.
       11   -1    0    0    0    0 -0.00000000000E+00 -0.00000000000E+00 -0.65000000000E+04  0.65000000000E+04  0.00000000000E+00 0. -1.
       22    1    1    2    0    0  0.33874468672E+03 -0.17932180910E+04  0.62385592019E+04  0.65000000000E+04  0.00000000000E+00 0.  1.
       22    1    1    2    0    0 -0.33874468672E+03  0.17932180910E+04 -0.62385592019E+04  0.65000000000E+04  0.00000000000E+00 0. -1.
</event>
<event>
 4   1  0.3671700E-05  0.8062258E+02  0.7546771E-02  0.1202337E+00
      -11   -1    0    0    0    0  0.00000000000E+00  0.00000000000E+00  0.65000000000E+04  0.65000000000E+04  0.00000000000E+00 0.  1.
       11   -1    0    0    0    0 -0.00000000000E+00 -0.00000000000E+00 -0.65000000000E+04  0.65000000000E+04  0.00000000000E+00 0. -1.
       22    1    1    2    0    0  0.75546463297E+03  0.86571307248E+03  0.63976412891E+04  0.65000000000E+04  0.00000000000E+00 0.  1.
       22    1    1    2    0    0 -0.75546463297E+03 -0.86571307248E+03 -0.63976412891E+04  0.65000000000E+04  0.00000000000E+00 0. -1.
</event>
<event>
 4   1  0.3671700E-05  0.8062258E+02  0.7546771E-02  0.1202337E+00
      -11   -1    0    0    0    0  0.00000000000E+00  0.00000000000E+00  0.65000000000E+04  0.65000000000E+04  0.00000000000E+00 0.  1.
       11   -1    0    0    0    0 -0.00000000000E+00 -0.00000000000E+00 -0.65000000000E+04  0.65000000000E+04  0.00000000000E+00 0. -1.
       22    1    1    2    0    0 -0.36203098253E+04 -0.41952962599E+03  0.53821326314E+04  0.65000000000E+04  0.00000000000E+00 0.  1.
       22    1    1    2    0    0  0.36203098253E+04  0.41952962599E+03 -0.53821326314E+04  0.65000000000E+04  0.00000000000E+00 0. -1.
</event>
<event>
 4   1  0.3671700E-05  0.8062258E+02  0.7546771E-02  0.1202337E+00
      -11   -1    0    0    0    0  0.00000000000E+00  0.00000000000E+00  0.65000000000E+04  0.65000000000E+04  0.00000000000E+00 0.  1.
       11   -1    0    0    0    0 -0.00000000000E+00 -0.00000000000E+00 -0.65000000000E+04  0.65000000000E+04  0.00000000000E+00 0. -1.
       22    1    1    2    0    0 -0.33455710296E+04 -0.39361100438E+04  0.39451479325E+04  0.65000000000E+04  0.00000000000E+00 0.  1.
       22    1    1    2    0    0  0.33455710296E+04  0.39361100438E+04 -0.39451479325E+04  0.65000000000E+04  0.00000000000E+00 0. -1.
</event>
<event>
 4   1  0.3671700E-05  0.8062258E+02  0.7546771E-02  0.1202337E+00
      -11   -1    0    0    0    0  0.00000000000E+00  0.00000000000E+00  0.65000000000E+04  0.65000000000E+04  0.00000000000E+00 0. -1.
       11   -1    0    0    0    0 -0.00000000000E+00 -0.00000000000E+00 -0.65000000000E+04  0.65000000000E+04  0.00000000000E+00 0.  1.
       22    1    1    2    0    0 -0.92618349235E+03 -0.18340571657E+04 -0.61667186130E+04  0.65000000000E+04  0.00000000000E+00 0.  1.
       22    1    1    2    0    0  0.92618349235E+03  0.18340571657E+04  0.61667186130E+04  0.65000000000E+04  0.00000000000E+00 0. -1.
</event>
<event>
 4   1  0.3671700E-05  0.8062258E+02  0.7546771E-02  0.1202337E+00
      -11   -1    0    0    0    0  0.00000000000E+00  0.00000000000E+00  0.65000000000E+04  0.65000000000E+04  0.00000000000E+00 0. -1.
       11   -1    0    0    0    0 -0.00000000000E+00 -0.00000000000E+00 -0.65000000000E+04  0.65000000000E+04  0.00000000000E+00 0.  1.
       22    1    1    2    0    0 -0.55794436289E+02  0.13923899768E+04 -0.63488689649E+04  0.65000000000E+04  0.00000000000E+00 0.  1.
       22    1    1    2    0    0  0.55794436289E+02 -0.13923899768E+04  0.63488689649E+04  0.65000000000E+04  0.00000000000E+00 0. -1.
</event>
<event>
 4   1  0.3671700E-05  0.8062258E+02  0.7546771E-02  0.1202337E+00
      -11   -1    0    0    0    0  0.00000000000E+00  0.00000000000E+00  0.65000000000E+04  0.65000000000E+04  0.00000000000E+00 0. -1.
       11   -1    0    0    0    0 -0.00000000000E+00 -0.00000000000E+00 -0.65000000000E+04  0.65000000000E+04  0.00000000000E+00 0.  1.
       22    1    1    2    0    0  0.13324180875E+04 -0.59150598592E+03 -0.63344125780E+04  0.65000000000E+04  0.00000000000E+00 0.  1.
       22    1    1    2    0    0 -0.13324180875E+04  0.59150598592E+03  0.63344125780E+04  0.65000000000E+04  0.00000000000E+00 0. -1.
</event>
<event>
 4   1  0.3671700E-05  0.8062258E+02  0.7546771E-02  0.1202337E+00
      -11   -1    0    0    0    0  0.00000000000E+00  0.00000000000E+00  0.65000000000E+04  0.65000000000E+04  0.00000000000E+00 0.  1.
       11   -1    0    0    0    0 -0.00000000000E+00 -0.00000000000E+00 -0.65000000000E+04  0.65000000000E+04  0.00000000000E+00 0. -1.
       22    1    1    2    0    0  0.77058025439E+03  0.34284250772E+04  0.54682819570E+04  0.65000000000E+04  0.00000000000E+00 0.  1.
       22    1    1    2    0    0 -0.77058025439E+03 -0.34284250772E+04 -0.54682819570E+04  0.65000000000E+04  0.00000000000E+00 0. -1.
</event>
<event>
 4   1  0.3671700E-05  0.8062258E+02  0.7546771E-02  0.1202337E+00
      -11   -1    0    0    0    0  0.00000000000E+00  0.00000000000E+00  0.65000000000E+04  0.65000000000E+04  0.00000000000E+00 0.  1.
       11   -1    0    0    0    0 -0.00000000000E+00 -0.00000000000E+00 -0.65000000000E+04  0.65000000000E+04  0.00000000000E+00 0. -1.
       22    1    1    2    0    0  0.13277305335E+03  0.13469999345E+04  0.63575122881E+04  0.65000000000E+04  0.00000000000E+00 0.  1.
       22    1    1    2    0    0 -0.13277305335E+03 -0.13469999345E+04 -0.63575122881E+04  0.65000000000E+04  0.00000000000E+00 0. -1.
</event>
<event>
 5   2  0.3671700E-05  0.7937294E+02  0.7546771E-02  0.1205233E+00
      -11   -1    0    0    0    0  0.00000000000E+00  0.00000000000E+00  0.65000000000E+04  0.65000000000E+04  0.00000000000E+00 0. -1.
       11   -1    0    0    0    0 -0.00000000000E+00 -0.00000000000E+00 -0.65000000000E+04  0.65000000000E+04  0.00000000000E+00 0.  1.
       22    1    1    2    0    0  0.10484471600E+04  0.49301378068E+03  0.63702243806E+04  0.64747249127E+04  0.00000000000E+00 0. -1.
       22    1    1    2    0    0 -0.11016097467E+04 -0.31400274354E+03 -0.60236024944E+04  0.61315519053E+04  0.00000000000E+00 0.  1.
       22    1    1    2    0    0  0.53162586716E+02 -0.17901103714E+03 -0.34662188626E+03  0.39372318204E+03  0.00000000000E+00 0.  1.
</event>
<event>
 4   1  0.3671700E-05  0.8062258E+02  0.7546771E-02  0.1202337E+00
      -11   -1    0    0    0    0  0.00000000000E+00  0.00000000000E+00  0.65000000000E+04  0.65000000000E+04  0.00000000000E+00 0. -1.
       11   -1    0    0    0    0 -0.00000000000E+00 -0.00000000000E+00 -0.65000000000E+04  0.65000000000E+04  0.00000000000E+00 0.  1.
       22    1    1    2    0    0 -0.58121356632E+04  0.27413490753E+04  0.97677237891E+03  0.65000000000E+04  0.00000000000E+00 0.  1.
       22    1    1    2    0    0  0.58121356632E+04 -0.27413490753E+04 -0.97677237891E+03  0.65000000000E+04  0.00000000000E+00 0. -1.
</event>
<event>
 4   1  0.3671700E-05  0.8062258E+02  0.7546771E-02  0.1202337E+00
      -11   -1    0    0    0    0  0.00000000000E+00  0.00000000000E+00  0.65000000000E+04  0.65000000000E+04  0.00000000000E+00 0.  1.
       11   -1    0    0    0    0 -0.00000000000E+00 -0.00000000000E+00 -0.65000000000E+04  0.65000000000E+04  0.00000000000E+00 0. -1.
       22    1    1    2    0    0  0.28525850424E+04  0.28222981779E+04 -0.51134520210E+04  0.65000000000E+04  0.00000000000E+00 0. -1.
       22    1    1    2    0    0 -0.28525850424E+04 -0.28222981779E+04  0.51134520210E+04  0.65000000000E+04  0.00000000000E+00 0.  1.
</event>
<event>
 5   2  0.3671700E-05  0.8031542E+02  0.7546771E-02  0.1203044E+00
      -11   -1    0    0    0    0  0.00000000000E+00  0.00000000000E+00  0.65000000000E+04  0.65000000000E+04  0.00000000000E+00 0. -1.
       11   -1    0    0    0    0 -0.00000000000E+00 -0.00000000000E+00 -0.65000000000E+04  0.65000000000E+04  0.00000000000E+00 0.  1.
       22    1    1    2    0    0 -0.51989417776E+03  0.28903451340E+04  0.57062512114E+04  0.64176076413E+04  0.00000000000E+00 0. -1.
       22    1    1    2    0    0  0.49579378089E+03 -0.28613374341E+04 -0.57972345662E+04  0.64839025286E+04  0.00000000000E+00 0.  1.
       22    1    1    2    0    0  0.24100396876E+02 -0.29007699880E+02  0.90983354831E+02  0.98489830126E+02  0.00000000000E+00 0. -1.
</event>
<event>
 4   1  0.3671700E-05  0.8062258E+02  0.7546771E-02  0.1202337E+00
      -11   -1    0    0    0    0  0.00000000000E+00  0.00000000000E+00  0.65000000000E+04  0.65000000000E+04  0.00000000000E+00 0. -1.
       11   -1    0    0    0    0 -0.00000000000E+00 -0.00000000000E+00 -0.65000000000E+04  0.65000000000E+04  0.00000000000E+00 0.  1.
       22    1    1    2    0    0 -0.40386287795E+03  0.28193346021E+04 -0.58427944664E+04  0.65000000000E+04  0.00000000000E+00 0.  1.
       22    1    1    2    0    0  0.40386287795E+03 -0.28193346021E+04  0.58427944664E+04  0.65000000000E+04  0.00000000000E+00 0. -1.
</event>
<event>
 4   1  0.3671700E-05  0.8062258E+02  0.7546771E-02  0.1202337E+00
      -11   -1    0    0    0    0  0.00000000000E+00  0.00000000000E+00  0.65000000000E+04  0.65000000000E+04  0.00000000000E+00 0. -1.
       11   -1    0    0    0    0 -0.00000000000E+00 -0.00000000000E+00 -0.65000000000E+04  0.65000000000E+04  0.00000000000E+00 0.  1.
       22    1    1    2    0    0 -0.65134842880E+02  0.17345584466E+04 -0.62639495885E+04  0.65000000000E+04  0.00000000000E+00 0.  1.
       22    1    1    2    0    0  0.65134842880E+02 -0.17345584466E+04  0.62639495885E+04  0.65000000000E+04  0.00000000000E+00 0. -1.
</event>
<event>
 4   1  0.3671700E-05  0.8062258E+02  0.7546771E-02  0.1202337E+00
      -11   -1    0    0    0    0  0.00000000000E+00  0.00000000000E+00  0.65000000000E+04  0.65000000000E+04  0.00000000000E+00 0.  1.
       11   -1    0    0    0    0 -0.00000000000E+00 -0.00000000000E+00 -0.65000000000E+04  0.65000000000E+04  0.00000000000E+00 0. -1.
       22    1    1    2    0    0 -0.79857897181E+03 -0.86521771984E+03  0.63924697827E+04  0.65000000000E+04  0.00000000000E+00 0.  1.
       22    1    1    2    0    0  0.79857897181E+03  0.86521771984E+03 -0.63924697827E+04  0.65000000000E+04  0.00000000000E+00 0. -1.
</event>
<event>
 4   1  0.3671700E-05  0.8062258E+02  0.7546771E-02  0.1202337E+00
      -11   -1    0    0    0    0  0.00000000000E+00  0.00000000000E+00  0.65000000000E+04  0.65000000000E+04  0.00000000000E+00 0. -1.
       11   -1    0    0    0    0 -0.00000000000E+00 -0.00000000000E+00 -0.65000000000E+04  0.65000000000E+04  0.00000000000E+00 0.  1.
       22    1    1    2    0    0  0.34342504518E+04  0.21632853826E+04  0.50770188288E+04  0.65000000000E+04  0.00000000000E+00 0. -1.
       22    1    1    2    0    0 -0.34342504518E+04 -0.21632853826E+04 -0.50770188288E+04  0.65000000000E+04  0.00000000000E+00 0.  1.
</event>
<event>
 4   1  0.3671700E-05  0.8062258E+02  0.7546771E-02  0.1202337E+00
      -11   -1    0    0    0    0  0.00000000000E+00  0.00000000000E+00  0.65000000000E+04  0.65000000000E+04  0.00000000000E+00 0. -1.
       11   -1    0    0    0    0 -0.00000000000E+00 -0.00000000000E+00 -0.65000000000E+04  0.65000000000E+04  0.00000000000E+00 0.  1.
       22    1    1    2    0    0 -0.14841882473E+04  0.25971195221E+03 -0.63229530244E+04  0.65000000000E+04  0.00000000000E+00 0.  1.
       22    1    1    2    0    0  0.14841882473E+04 -0.25971195221E+03  0.63229530244E+04  0.65000000000E+04  0.00000000000E+00 0. -1.
</event>
<event>
 4   1  0.3671700E-05  0.8062258E+02  0.7546771E-02  0.1202337E+00
      -11   -1    0    0    0    0  0.00000000000E+00  0.00000000000E+00  0.65000000000E+04  0.65000000000E+04  0.00000000000E+00 0.  1.
       11   -1    0    0    0    0 -0.00000000000E+00 -0.00000000000E+00 -0.65000000000E+04  0.65000000000E+04  0.00000000000E+00 0. -1.
       22    1    1    2    0    0  0.44249645797E+04  0.87875677255E+03 -0.46794737956E+04  0.65000000000E+04  0.00000000000E+00 0.  1.
       22    1    1    2    0    0 -0.44249645797E+04 -0.87875677255E+03  0.46794737956E+04  0.65000000000E+04  0.00000000000E+00 0. -1.
</event>
<event>
 4   1  0.3671700E-05  0.8062258E+02  0.7546771E-02  0.1202337E+00
      -11   -1    0    0    0    0  0.00000000000E+00  0.00000000000E+00  0.65000000000E+04  0.65000000000E+04  0.00000000000E+00 0.  1.
       11   -1    0    0    0    0 -0.00000000000E+00 -0.00000000000E+00 -0.65000000000E+04  0.65000000000E+04  0.00000000000E+00 0. -1.
       22    1    1    2    0    0 -0.29893551901E+04  0.57223325795E+04  0.75409906327E+03  0.65000000000E+04  0.00000000000E+00 0.  1.
       22    1    1    2    0    0  0.29893551901E+04 -0.57223325795E+04 -0.75409906327E+03  0.65000000000E+04  0.00000000000E+00 0. -1.
</event>
<event>
 4   1  0.3671700E-05  0.8062258E+02  0.7546771E-02  0.1202337E+00
      -11   -1    0    0    0    0  0.00000000000E+00  0.00000000000E+00  0.65000000000E+04  0.65000000000E+04  0.00000000000E+00 0.  1.
       11   -1    0    0    0    0 -0.00000000000E+00 -0.00000000000E+00 -0.65000000000E+04  0.65000000000E+04  0.00000000000E+00 0. -1.
       22    1    1    2    0    0 -0.78247106801E+03  0.80260171076E+03  0.64026220817E+04  0.65000000000E+04  0.00000000000E+00 0.  1.
       22    1    1    2    0    0  0.78247106801E+03 -0.80260171076E+03 -0.64026220817E+04  0.65000000000E+04  0.00000000000E+00 0. -1.
</event>
<event>
 4   1  0.3671700E-05  0.8062258E+02  0.7546771E-02  0.1202337E+00
      -11   -1    0    0    0    0  0.00000000000E+00  0.00000000000E+00  0.65000000000E+04  0.65000000000E+04  0.00000000000E+00 0. -1.
       11   -1    0    0    0    0 -0.00000000000E+00 -0.00000000000E+00 -0.65000000000E+04  0.65000000000E+04  0.00000000000E+00 0.  1.
       22    1    1    2    0    0 -0.26172699299E+04  0.44136232170E+04  0.39899659412E+04  0.65000000000E+04  0.00000000000E+00 0. -1.
       22    1    1    2    0    0  0.26172699299E+04 -0.44136232170E+04 -0.39899659412E+04  0.65000000000E+04  0.00000000000E+00 0.  1.
</event>
<event>
 4   1  0.3671700E-05  0.8062258E+02  0.7546771E-02  0.1202337E+00
      -11   -1    0    0    0    0  0.00000000000E+00  0.00000000000E+00  0.65000000000E+04  0.65000000000E+04  0.00000000000E+00 0.  1.
       11   -1    0    0    0    0 -0.00000000000E+00 -0.00000000000E+00 -0.65000000000E+04  0.65000000000E+04  0.00000000000E+00 0. -1.
       22    1    1    2    0    0 -0.10982082010E+04  0.47912313956E+03  0.63886132896E+04  0.65000000000E+04  0.00000000000E+00 0.  1.
       22    1    1    2    0    0  0.10982082010E+04 -0.47912313956E+03 -0.63886132896E+04  0.65000000000E+04  0.00000000000E+00 0. -1.
</event>
<event>
 4   1  0.3671700E-05  0.8062258E+02  0.7546771E-02  0.1202337E+00
      -11   -1    0    0    0    0  0.00000000000E+00  0.00000000000E+00  0.65000000000E+04  0.65000000000E+04  0.00000000000E+00 0. -1.
       11   -1    0    0    0    0 -0.00000000000E+00 -0.00000000000E+00 -0.65000000000E+04  0.65000000000E+04  0.00000000000E+00 0.  1.
       22    1    1    2    0    0  0.66620945177E+03 -0.16338184116E+04  0.62559413652E+04  0.65000000000E+04  0.00000000000E+00 0. -1.
       22    1    1    2    0    0 -0.66620945177E+03  0.16338184116E+04 -0.62559413652E+04  0.65000000000E+04  0.00000000000E+00 0.  1.
</event>
<event>
 4   1  0.3671700E-05  0.8062258E+02  0.7546771E-02  0.1202337E+00
      -11   -1    0    0    0    0  0.00000000000E+00  0.00000000000E+00  0.65000000000E+04  0.65000000000E+04  0.00000000000E+00 0.  1.
       11   -1    0    0    0    0 -0.00000000000E+00 -0.00000000000E+00 -0.65000000000E+04  0.65000000000E+04  0.00000000000E+00 0. -1.
       22    1    1    2    0    0  0.15347059777E+04  0.24308665034E+04 -0.58297140243E+04  0.65000000000E+04  0.00000000000E+00 0. -1.
       22    1    1    2    0    0 -0.15347059777E+04 -0.24308665034E+04  0.58297140243E+04  0.65000000000E+04  0.00000000000E+00 0.  1.
</event>
<event>
 4   1  0.3671700E-05  0.8062258E+02  0.7546771E-02  0.1202337E+00
      -11   -1    0    0    0    0  0.00000000000E+00  0.00000000000E+00  0.65000000000E+04  0.65000000000E+04  0.00000000000E+00 0.  1.
       11   -1    0    0    0    0 -0.00000000000E+00 -0.00000000000E+00 -0.65000000000E+04  0.65000000000E+04  0.00000000000E+00 0. -1.
       22    1    1    2    0    0  0.16997252023E+04  0.76974426512E+03  0.62264297959E+04  0.65000000000E+04  0.00000000000E+00 0.  1.
       22    1    1    2    0    0 -0.16997252023E+04 -0.76974426512E+03 -0.62264297959E+04  0.65000000000E+04  0.00000000000E+00 0. -1.
</event>
<event>
 4   1  0.3671700E-05  0.8062258E+02  0.7546771E-02  0.1202337E+00
      -11   -1    0    0    0    0  0.00000000000E+00  0.00000000000E+00  0.65000000000E+04  0.65000000000E+04  0.00000000000E+00 0. -1.
       11   -1    0    0    0    0 -0.00000000000E+00 -0.00000000000E+00 -0.65000000000E+04  0.65000000000E+04  0.00000000000E+00 0.  1.
       22    1    1    2    0    0  0.38748378889E+04  0.41071309472E+02 -0.52186151881E+04  0.65000000000E+04  0.00000000000E+00 0.  1.
       22    1    1    2    0    0 -0.38748378889E+04 -0.41071309472E+02  0.52186151881E+04  0.65000000000E+04  0.00000000000E+00 0. -1.
</event>
<event>
 4   1  0.3671700E-05  0.8062258E+02  0.7546771E-02  0.1202337E+00
      -11   -1    0    0    0    0  0.00000000000E+00  0.00000000000E+00  0.65000000000E+04  0.65000000000E+04  0.00000000000E+00 0.  1.
       11   -1    0    0    0    0 -0.00000000000E+00 -0.00000000000E+00 -0.65000000000E+04  0.65000000000E+04  0.00000000000E+00 0. -1.
       22    1    1    2    0    0  0.26689813957E+04 -0.62555362140E+03 -0.58936593875E+04  0.65000000000E+04  0.00000000000E+00 0. -1.
       22    1    1    2    0    0 -0.26689813957E+04  0.62555362140E+03  0.58936593875E+04  0.65000000000E+04  0.00000000000E+00 0.  1.
</event>
<event>
 4   1  0.3671700E-05  0.8062258E+02  0.7546771E-02  0.1202337E+00
      -11   -1    0    0    0    0  0.00000000000E+00  0.00000000000E+00  0.65000000000E+04  0.65000000000E+04  0.00000000000E+00 0. -1.
       11   -1    0    0    0    0 -0.00000000000E+00 -0.00000000000E+00 -0.65000000000E+04  0.65000000000E+04  0.00000000000E+00 0.  1.
       22    1    1    2    0    0 -0.18802602533E+04 -0.61755546852E+04 -0.75970106592E+03  0.65000000000E+04  0.00000000000E+00 0. -1.
       22    1    1    2    0    0  0.18802602533E+04  0.61755546852E+04  0.75970106592E+03  0.65000000000E+04  0.00000000000E+00 0.  1.
</event>
<event>
 4   1  0.3671700E-05  0.8062258E+02  0.7546771E-02  0.1202337E+00
      -11   -1    0    0    0    0  0.00000000000E+00  0.00000000000E+00  0.65000000000E+04  0.65000000000E+04  0.00000000000E+00 0.  1.
       11   -1    0    0    0    0 -0.00000000000E+00 -0.00000000000E+00 -0.65000000000E+04  0.65000000000E+04  0.00000000000E+00 0. -1.
       22    1    1    2    0    0  0.48717117362E+04  0.16971767006E+04 -0.39542402565E+04  0.65000000000E+04  0.00000000000E+00 0. -1.
       22    1    1    2    0    0 -0.48717117362E+04 -0.16971767006E+04  0.39542402565E+04  0.65000000000E+04  0.00000000000E+00 0.  1.
</event>
<event>
 4   1  0.3671700E-05  0.8062258E+02  0.7546771E-02  0.1202337E+00
      -11   -1    0    0    0    0  0.00000000000E+00  0.00000000000E+00  0.65000000000E+04  0.65000000000E+04  0.00000000000E+00 0. -1.
       11   -1    0    0    0    0 -0.00000000000E+00 -0.00000000000E+00 -0.65000000000E+04  0.65000000000E+04  0.00000000000E+00 0.  1.
       22    1    1    2    0    0  0.18610101652E+04 -0.82377884433E+03 -0.61731701403E+04  0.65000000000E+04  0.00000000000E+00 0.  1.
       22    1    1    2    0    0 -0.18610101652E+04  0.82377884433E+03  0.61731701403E+04  0.65000000000E+04  0.00000000000E+00 0. -1.
</event>
<event>
 4   1  0.3671700E-05  0.8062258E+02  0.7546771E-02  0.1202337E+00
      -11   -1    0    0    0    0  0.00000000000E+00  0.00000000000E+00  0.65000000000E+04  0.65000000000E+04  0.00000000000E+00 0.  1.
       11   -1    0    0    0    0 -0.00000000000E+00 -0.00000000000E+00 -0.65000000000E+04  0.65000000000E+04  0.00000000000E+00 0. -1.
       22    1    1    2    0    0 -0.27191410832E+04  0.58918820286E+04 -0.37682612799E+03  0.65000000000E+04  0.00000000000E+00 0.  1.
       22    1    1    2    0    0  0.27191410832E+04 -0.58918820286E+04  0.37682612799E+03  0.65000000000E+04  0.00000000000E+00 0. -1.
</event>
<event>
 4   1  0.3671700E-05  0.8062258E+02  0.7546771E-02  0.1202337E+00
      -11   -1    0    0    0    0  0.00000000000E+00  0.00000000000E+00  0.65000000000E+04  0.65000000000E+04  0.00000000000E+00 0.  1.
       11   -1    0    0    0    0 -0.00000000000E+00 -0.00000000000E+00 -0.65000000000E+04  0.65000000000E+04  0.00000000000E+00 0. -1.
       22    1    1    2    0    0  0.20655157635E+04 -0.62372180624E+03  0.61314448329E+04  0.65000000000E+04  0.00000000000E+00 0.  1.
       22    1    1    2    0    0 -0.20655157635E+04  0.62372180624E+03 -0.61314448329E+04  0.65000000000E+04  0.00000000000E+00 0. -1.
</event>
<event>
 4   1  0.3671700E-05  0.8062258E+02  0.7546771E-02  0.1202337E+00
      -11   -1    0    0    0    0  0.00000000000E+00  0.00000000000E+00  0.65000000000E+04  0.65000000000E+04  0.00000000000E+00 0. -1.
       11   -1    0    0    0    0 -0.00000000000E+00 -0.00000000000E+00 -0.65000000000E+04  0.65000000000E+04  0.00000000000E+00 0.  1.
       22    1    1    2    0    0  0.97925557753E+03 -0.62873820635E+04 -0.13266066870E+04  0.65000000000E+04  0.00000000000E+00 0. -1.
       22    1    1    2    0    0 -0.97925557753E+03  0.62873820635E+04  0.13266066870E+04  0.65000000000E+04  0.00000000000E+00 0.  1.
</event>
<event>
 4   1  0.3671700E-05  0.8062258E+02  0.7546771E-02  0.1202337E+00
      -11   -1    0    0    0    0  0.00000000000E+00  0.00000000000E+00  0.65000000000E+04  0.65000000000E+04  0.00000000000E+00 0. -1.
       11   -1    0    0    0    0 -0.00000000000E+00 -0.00000000000E+00 -0.65000000000E+04  0.65000000000E+04  0.00000000000E+00 0.  1.
       22    1    1    2    0    0  0.57257975636E+04  0.25785810521E+04  0.16781424308E+04  0.65000000000E+04  0.00000000000E+00 0. -1.
       22    1    1    2    0    0 -0.57257975636E+04 -0.25785810521E+04 -0.16781424308E+04  0.65000000000E+04  0.00000000000E+00 0.  1.
</event>
<event>
 4   1  0.3671700E-05  0.8062258E+02  0.7546771E-02  0.1202337E+00
      -11   -1    0    0    0    0  0.00000000000E+00  0.00000000000E+00  0.65000000000E+04  0.65000000000E+04  0.00000000000E+00 0. -1.
       11   -1    0    0    0    0 -0.00000000000E+00 -0.00000000000E+00 -0.65000000000E+04  0.65000000000E+04  0.00000000000E+00 0.  1.
       22    1    1    2    0    0  0.21658590622E+04 -0.40182207137E+04 -0.46274136209E+04  0.65000000000E+04  0.00000000000E+00 0.  1.
       22    1    1    2    0    0 -0.21658590622E+04  0.40182207137E+04  0.46274136209E+04  0.65000000000E+04  0.00000000000E+00 0. -1.
</event>
<event>
 4   1  0.3671700E-05  0.8062258E+02  0.7546771E-02  0.1202337E+00
      -11   -1    0    0    0    0  0.00000000000E+00  0.00000000000E+00  0.65000000000E+04  0.65000000000E+04  0.00000000000E+00 0. -1.
       11   -1    0    0    0    0 -0.00000000000E+00 -0.00000000000E+00 -0.65000000000E+04  0.65000000000E+04  0.00000000000E+00 0.  1.
       22    1    1    2    0    0  0.14255077303E+04 -0.98221909083E+03  0.62652353003E+04  0.65000000000E+04  0.00000000000E+00 0. -1.
       22    1    1    2    0    0 -0.14255077303E+04  0.98221909083E+03 -0.62652353003E+04  0.65000000000E+04  0.00000000000E+00 0.  1.
</event>
<event>
 4   1  0.3671700E-05  0.8062258E+02  0.7546771E-02  0.1202337E+00
      -11   -1    0    0    0    0  0.00000000000E+00  0.00000000000E+00  0.65000000000E+04  0.65000000000E+04  0.00000000000E+00 0. -1.
       11   -1    0    0    0    0 -0.00000000000E+00 -0.00000000000E+00 -0.65000000000E+04  0.65000000000E+04  0.00000000000E+00 0.  1.
       22    1    1    2    0    0  0.19008537310E+04  0.41193683914E+03 -0.62021821268E+04  0.65000000000E+04  0.00000000000E+00 0.  1.
       22    1    1    2    0    0 -0.19008537310E+04 -0.41193683914E+03  0.62021821268E+04  0.65000000000E+04  0.00000000000E+00 0. -1.
</event>
<event>
 4   1  0.3671700E-05  0.8062258E+02  0.7546771E-02  0.1202337E+00
      -11   -1    0    0    0    0  0.00000000000E+00  0.00000000000E+00  0.65000000000E+04  0.65000000000E+04  0.00000000000E+00 0. -1.
       11   -1    0    0    0    0 -0.00000000000E+00 -0.00000000000E+00 -0.65000000000E+04  0.65000000000E+04  0.00000000000E+00 0.  1.
       22    1    1    2    0    0 -0.74757200731E+03 -0.25753662174E+04  0.59210324218E+04  0.65000000000E+04  0.00000000000E+00 0. -1.
       22    1    1    2    0    0  0.74757200731E+03  0.25753662174E+04 -0.59210324218E+04  0.65000000000E+04  0.00000000000E+00 0.  1.
</event>
<event>
 4   1  0.3671700E-05  0.8062258E+02  0.7546771E-02  0.1202337E+00
      -11   -1    0    0    0    0  0.00000000000E+00  0.00000000000E+00  0.65000000000E+04  0.65000000000E+04  0.00000000000E+00 0. -1.
       11   -1    0    0    0    0 -0.00000000000E+00 -0.00000000000E+00 -0.65000000000E+04  0.65000000000E+04  0.00000000000E+00 0.  1.
       22    1    1    2    0    0 -0.10448039618E+04 -0.54156480493E+04  0.34393518122E+04  0.65000000000E+04  0.00000000000E+00 0. -1.
       22    1    1    2    0    0  0.10448039618E+04  0.54156480493E+04 -0.34393518122E+04  0.65000000000E+04  0.00000000000E+00 0.  1.
</event>
<event>
 4   1  0.3671700E-05  0.8062258E+02  0.7546771E-02  0.1202337E+00
      -11   -1    0    0    0    0  0.00000000000E+00  0.00000000000E+00  0.65000000000E+04  0.65000000000E+04  0.00000000000E+00 0.  1.
       11   -1    0    0    0    0 -0.00000000000E+00 -0.00000000000E+00 -0.65000000000E+04  0.65000000000E+04  0.00000000000E+00 0. -1.
       22    1    1    2    0    0  0.14244432207E+03 -0.20344835480E+04  0.61717571491E+04  0.65000000000E+04  0.00000000000E+00 0.  1.
       22    1    1    2    0    0 -0.14244432207E+03  0.20344835480E+04 -0.61717571491E+04  0.65000000000E+04  0.00000000000E+00 0. -1.
</event>
<event>
 4   1  0.3671700E-05  0.8062258E+02  0.7546771E-02  0.1202337E+00
      -11   -1    0    0    0    0  0.00000000000E+00  0.00000000000E+00  0.65000000000E+04  0.65000000000E+04  0.00000000000E+00 0.  1.
       11   -1    0    0    0    0 -0.00000000000E+00 -0.00000000000E+00 -0.65000000000E+04  0.65000000000E+04  0.00000000000E+00 0. -1.
       22    1    1    2    0    0 -0.63390101233E+04 -0.11733487002E+04  0.83078486076E+03  0.65000000000E+04  0.00000000000E+00 0. -1.
       22    1    1    2    0    0  0.63390101233E+04  0.11733487002E+04 -0.83078486076E+03  0.65000000000E+04  0.00000000000E+00 0.  1.
</event>
<event>
 4   1  0.3671700E-05  0.8062258E+02  0.7546771E-02  0.1202337E+00
      -11   -1    0    0    0    0  0.00000000000E+00  0.00000000000E+00  0.65000000000E+04  0.65000000000E+04  0.00000000000E+00 0. -1.
       11   -1    0    0    0    0 -0.00000000000E+00 -0.00000000000E+00 -0.65000000000E+04  0.65000000000E+04  0.00000000000E+00 0.  1.
       22    1    1    2    0    0  0.16354558042E+04 -0.41254160423E+04 -0.47493396162E+04  0.65000000000E+04  0.00000000000E+00 0.  1.
       22    1    1    2    0    0 -0.16354558042E+04  0.41254160423E+04  0.47493396162E+04  0.65000000000E+04  0.00000000000E+00 0. -1.
</event>
<event>
 4   1  0.3671700E-05  0.8062258E+02  0.7546771E-02  0.1202337E+00
      -11   -1    0    0    0    0  0.00000000000E+00  0.00000000000E+00  0.65000000000E+04  0.65000000000E+04  0.00000000000E+00 0.  1.
       11   -1    0    0    0    0 -0.00000000000E+00 -0.00000000000E+00 -0.65000000000E+04  0.65000000000E+04  0.00000000000E+00 0. -1.
       22    1    1    2    0    0  0.29793138312E+03  0.29580921708E+04 -0.57802186464E+04  0.65000000000E+04  0.00000000000E+00 0. -1.
       22    1    1    2    0    0 -0.29793138312E+03 -0.29580921708E+04  0.57802186464E+04  0.65000000000E+04  0.00000000000E+00 0.  1.
</event>
<event>
 4   1  0.3671700E-05  0.8062258E+02  0.7546771E-02  0.1202337E+00
      -11   -1    0    0    0    0  0.00000000000E+00  0.00000000000E+00  0.65000000000E+04  0.65000000000E+04  0.00000000000E+00 0. -1.
       11   -1    0    0    0    0 -0.00000000000E+00 -0.00000000000E+00 -0.65000000000E+04  0.65000000000E+04  0.00000000000E+00 0.  1.
       22    1    1    2    0    0  0.12684197911E+04  0.93210943326E+03  0.63065270346E+04  0.65000000000E+04  0.00000000000E+00 0. -1.
       22    1    1    2    0    0 -0.12684197911E+04 -0.93210943326E+03 -0.63065270346E+04  0.65000000000E+04  0.00000000000E+00 0.  1.
</event>
<event>
 4   1  0.3671700E-05  0.8062258E+02  0.7546771E-02  0.1202337E+00
      -11   -1    0    0    0    0  0.00000000000E+00  0.00000000000E+00  0.65000000000E+04  0.65000000000E+04  0.00000000000E+00 0.  1.
       11   -1    0    0    0    0 -0.00000000000E+00 -0.00000000000E+00 -0.65000000000E+04  0.65000000000E+04  0.00000000000E+00 0. -1.
       22    1    1    2    0    0 -0.23935902459E+04 -0.18910682911E+04  0.57397374899E+04  0.65000000000E+04  0.00000000000E+00 0.  1.
       22    1    1    2    0    0  0.23935902459E+04  0.18910682911E+04 -0.57397374899E+04  0.65000000000E+04  0.00000000000E+00 0. -1.
</event>
<event>
 4   1  0.3671700E-05  0.8062258E+02  0.7546771E-02  0.1202337E+00
      -11   -1    0    0    0    0  0.00000000000E+00  0.00000000000E+00  0.65000000000E+04  0.65000000000E+04  0.00000000000E+00 0. -1.
       11   -1    0    0    0    0 -0.00000000000E+00 -0.00000000000E+00 -0.65000000000E+04  0.65000000000E+04  0.00000000000E+00 0.  1.
       22    1    1    2    0    0  0.12455688960E+04  0.30962841401E+03 -0.63720238834E+04  0.65000000000E+04  0.00000000000E+00 0.  1.
       22    1    1    2    0    0 -0.12455688960E+04 -0.30962841401E+03  0.63720238834E+04  0.65000000000E+04  0.00000000000E+00 0. -1.
</event>
<event>
 5   2  0.3671700E-05  0.8001237E+02  0.7546771E-02  0.1203744E+00
      -11   -1    0    0    0    0  0.00000000000E+00  0.00000000000E+00  0.65000000000E+04  0.65000000000E+04  0.00000000000E+00 0. -1.
       11   -1    0    0    0    0 -0.00000000000E+00 -0.00000000000E+00 -0.65000000000E+04  0.65000000000E+04  0.00000000000E+00 0.  1.
       22    1    1    2    0    0  0.10394479177E+03  0.80148984847E+02  0.14361887646E+03  0.19456300055E+03  0.00000000000E+00 0.  1.
       22    1    1    2    0    0  0.15695169992E+04  0.63282478789E+03 -0.62285934818E+04  0.64543959892E+04  0.00000000000E+00 0.  1.
       22    1    1    2    0    0 -0.16734617909E+04 -0.71297377273E+03  0.60849746054E+04  0.63510410103E+04  0.00000000000E+00 0. -1.
</event>
<event>
 4   1  0.3671700E-05  0.8062258E+02  0.7546771E-02  0.1202337E+00
      -11   -1    0    0    0    0  0.00000000000E+00  0.00000000000E+00  0.65000000000E+04  0.65000000000E+04  0.00000000000E+00 0. -1.
       11   -1    0    0    0    0 -0.00000000000E+00 -0.00000000000E+00 -0.65000000000E+04  0.65000000000E+04  0.00000000000E+00 0.  1.
       22    1    1    2    0    0 -0.37938193433E+03 -0.31079175857E+04 -0.56962195910E+04  0.65000000000E+04  0.00000000000E+00 0.  1.
       22    1    1    2    0    0  0.37938193433E+03  0.31079175857E+04  0.56962195910E+04  0.65000000000E+04  0.00000000000E+00 0. -1.
</event>
<event>
 4   1  0.3671700E-05  0.8062258E+02  0.7546771E-02  0.1202337E+00
      -11   -1    0    0    0    0  0.00000000000E+00  0.00000000000E+00  0.65000000000E+04  0.65000000000E+04  0.00000000000E+00 0. -1.
       11   -1    0    0    0    0 -0.00000000000E+00 -0.00000000000E+00 -0.65000000000E+04  0.65000000000E+04  0.00000000000E+00 0.  1.
       22    1    1    2    0    0  0.16706201188E+04  0.46482167707E+04  0.42252939864E+04  0.65000000000E+04  0.00000000000E+00 0. -1.
       22    1    1    2    0    0 -0.16706201188E+04 -0.46482167707E+04 -0.42252939864E+04  0.65000000000E+04  0.00000000000E+00 0.  1.
</event>
<event>
 4   1  0.3671700E-05  0.8062258E+02  0.7546771E-02  0.1202337E+00
      -11   -1    0    0    0    0  0.00000000000E+00  0.00000000000E+00  0.65000000000E+04  0.65000000000E+04  0.00000000000E+00 0. -1.
       11   -1    0    0    0    0 -0.00000000000E+00 -0.00000000000E+00 -0.65000000000E+04  0.65000000000E+04  0.00000000000E+00 0.  1.
       22    1    1    2    0    0 -0.43149304061E+04  0.21822876716E+04  0.43438457740E+04  0.65000000000E+04  0.00000000000E+00 0. -1.
       22    1    1    2    0    0  0.43149304061E+04 -0.21822876716E+04 -0.43438457740E+04  0.65000000000E+04  0.00000000000E+00 0.  1.
</event>
<event>
 4   1  0.3671700E-05  0.8062258E+02  0.7546771E-02  0.1202337E+00
      -11   -1    0    0    0    0  0.00000000000E+00  0.00000000000E+00  0.65000000000E+04  0.65000000000E+04  0.00000000000E+00 0.  1.
       11   -1    0    0    0    0 -0.00000000000E+00 -0.00000000000E+00 -0.65000000000E+04  0.65000000000E+04  0.00000000000E+00 0. -1.
       22    1    1    2    0    0 -0.35217420893E+04  0.54361957937E+04  0.54323839049E+03  0.65000000000E+04  0.00000000000E+00 0. -1.
       22    1    1    2    0    0  0.35217420893E+04 -0.54361957937E+04 -0.54323839049E+03  0.65000000000E+04  0.00000000000E+00 0.  1.
</event>
<event>
 4   1  0.3671700E-05  0.8062258E+02  0.7546771E-02  0.1202337E+00
      -11   -1    0    0    0    0  0.00000000000E+00  0.00000000000E+00  0.65000000000E+04  0.65000000000E+04  0.00000000000E+00 0.  1.
       11   -1    0    0    0    0 -0.00000000000E+00 -0.00000000000E+00 -0.65000000000E+04  0.65000000000E+04  0.00000000000E+00 0. -1.
       22    1    1    2    0    0  0.16853842633E+04  0.10943430338E+03 -0.62767431060E+04  0.65000000000E+04  0.00000000000E+00 0. -1.
       22    1    1    2    0    0 -0.16853842633E+04 -0.10943430338E+03  0.62767431060E+04  0.65000000000E+04  0.00000000000E+00 0.  1.
</event>
<event>
 5   2  0.3671700E-05  0.7636661E+02  0.7546771E-02  0.1212452E+00
      -11   -1    0    0    0    0  0.00000000000E+00  0.00000000000E+00  0.65000000000E+04  0.65000000000E+04  0.00000000000E+00 0. -1.
       11   -1    0    0    0    0 -0.00000000000E+00 -0.00000000000E+00 -0.65000000000E+04  0.65000000000E+04  0.00000000000E+00 0.  1.
       22    1    1    2    0    0  0.24987326593E+03 -0.26305052981E+03  0.12145718258E+04  0.12676028362E+04  0.00000000000E+00 0. -1.
       22    1    1    2    0    0  0.48932502346E+04  0.30930777694E+04 -0.84776798098E+03  0.58506186421E+04  0.00000000000E+00 0. -1.
       22    1    1    2    0    0 -0.51431235005E+04 -0.28300272396E+04 -0.36680384481E+03  0.58817785217E+04  0.00000000000E+00 0.  1.
</event>
<event>
 4   1  0.3671700E-05  0.8062258E+02  0.7546771E-02  0.1202337E+00
      -11   -1    0    0    0    0  0.00000000000E+00  0.00000000000E+00  0.65000000000E+04  0.65000000000E+04  0.00000000000E+00 0.  1.
       11   -1    0    0    0    0 -0.00000000000E+00 -0.00000000000E+00 -0.65000000000E+04  0.65000000000E+04  0.00000000000E+00 0. -1.
       22    1    1    2    0    0 -0.12174915713E+04  0.87949186587E+03 -0.63240974322E+04  0.65000000000E+04  0.00000000000E+00 0. -1.
       22    1    1    2    0    0  0.12174915713E+04 -0.87949186587E+03  0.63240974322E+04  0.65000000000E+04  0.00000000000E+00 0.  1.
</event>
<event>
 4   1  0.3671700E-05  0.8062258E+02  0.7546771E-02  0.1202337E+00
      -11   -1    0    0    0    0  0.00000000000E+00  0.00000000000E+00  0.65000000000E+04  0.65000000000E+04  0.00000000000E+00 0.  1.
       11   -1    0    0    0    0 -0.00000000000E+00 -0.00000000000E+00 -0.65000000000E+04  0.65000000000E+04  0.00000000000E+00 0. -1.
       22    1    1    2    0    0  0.25853270318E+03 -0.34752912800E+04 -0.54868489464E+04  0.65000000000E+04  0.00000000000E+00 0. -1.
       22    1    1    2    0    0 -0.25853270318E+03  0.34752912800E+04  0.54868489464E+04  0.65000000000E+04  0.00000000000E+00 0.  1.
</event>
<event>
 4   1  0.3671700E-05  0.8062258E+02  0.7546771E-02  0.1202337E+00
      -11   -1    0    0    0    0  0.00000000000E+00  0.00000000000E+00  0.65000000000E+04  0.65000000000E+04  0.00000000000E+00 0. -1.
       11   -1    0    0    0    0 -0.00000000000E+00 -0.00000000000E+00 -0.65000000000E+04  0.65000000000E+04  0.00000000000E+00 0.  1.
       22    1    1    2    0    0 -0.32358614997E+04  0.42929359063E+04  0.36537517238E+04  0.65000000000E+04  0.00000000000E+00 0. -1.
       22    1    1    2    0    0  0.32358614997E+04 -0.42929359063E+04 -0.36537517238E+04  0.65000000000E+04  0.00000000000E+00 0.  1.
</event>
<event>
 4   1  0.3671700E-05  0.8062258E+02  0.7546771E-02  0.1202337E+00
      -11   -1    0    0    0    0  0.00000000000E+00  0.00000000000E+00  0.65000000000E+04  0.65000000000E+04  0.00000000000E+00 0.  1.
       11   -1    0    0    0    0 -0.00000000000E+00 -0.00000000000E+00 -0.65000000000E+04  0.65000000000E+04  0.00000000000E+00 0. -1.
       22    1    1    2    0    0 -0.33715459934E+04 -0.18548030808E+03 -0.55541223132E+04  0.65000000000E+04  0.00000000000E+00 0. -1.
       22    1    1    2    0    0  0.33715459934E+04  0.18548030808E+03  0.55541223132E+04  0.65000000000E+04  0.00000000000E+00 0.  1.
</event>
<event>
 4   1  0.3671700E-05  0.8062258E+02  0.7546771E-02  0.1202337E+00
      -11   -1    0    0    0    0  0.00000000000E+00  0.00000000000E+00  0.65000000000E+04  0.65000000000E+04  0.00000000000E+00 0. -1.
       11   -1    0    0    0    0 -0.00000000000E+00 -0.00000000000E+00 -0.65000000000E+04  0.65000000000E+04  0.00000000000E+00 0.  1.
       22    1    1    2    0    0  0.17889827390E+04 -0.18898306770E+04  0.59563479391E+04  0.65000000000E+04  0.00000000000E+00 0. -1.
       22    1    1    2    0    0 -0.17889827390E+04  0.18898306770E+04 -0.59563479391E+04  0.65000000000E+04  0.00000000000E+00 0.  1.
</event>
<event>
 4   1  0.3671700E-05  0.8062258E+02  0.7546771E-02  0.1202337E+00
      -11   -1    0    0    0    0  0.00000000000E+00  0.00000000000E+00  0.65000000000E+04  0.65000000000E+04  0.00000000000E+00 0.  1.
       11   -1    0    0    0    0 -0.00000000000E+00 -0.00000000000E+00 -0.65000000000E+04  0.65000000000E+04  0.00000000000E+00 0. -1.
       22    1    1    2    0    0 -0.84158171035E+03 -0.38944395985E+04  0.51356674774E+04  0.65000000000E+04  0.00000000000E+00 0.  1.
       22    1    1    2    0    0  0.84158171035E+03  0.38944395985E+04 -0.51356674774E+04  0.65000000000E+04  0.00000000000E+00 0. -1.
</event>
<event>
 4   1  0.3671700E-05  0.8062258E+02  0.7546771E-02  0.1202337E+00
      -11   -1    0    0    0    0  0.00000000000E+00  0.00000000000E+00  0.65000000000E+04  0.65000000000E+04  0.00000000000E+00 0.  1.
       11   -1    0    0    0    0 -0.00000000000E+00 -0.00000000000E+00 -0.65000000000E+04  0.65000000000E+04  0.00000000000E+00 0. -1.
       22    1    1    2    0    0 -0.16032073063E+04 -0.82728129418E+03  0.62446242476E+04  0.65000000000E+04  0.00000000000E+00 0.  1.
       22    1    1    2    0    0  0.16032073063E+04  0.82728129418E+03 -0.62446242476E+04  0.65000000000E+04  0.00000000000E+00 0. -1.
</event>
<event>
 4   1  0.3671700E-05  0.8062258E+02  0.7546771E-02  0.1202337E+00
      -11   -1    0    0    0    0  0.00000000000E+00  0.00000000000E+00  0.65000000000E+04  0.65000000000E+04  0.00000000000E+00 0.  1.
       11   -1    0    0    0    0 -0.00000000000E+00 -0.00000000000E+00 -0.65000000000E+04  0.65000000000E+04  0.00000000000E+00 0. -1.
       22    1    1    2    0    0  0.15833781247E+04 -0.35330101825E+03 -0.62942904370E+04  0.65000000000E+04  0.00000000000E+00 0. -1.
       22    1    1    2    0    0 -0.15833781247E+04  0.35330101825E+03  0.62942904370E+04  0.65000000000E+04  0.00000000000E+00 0.  1.
</event>
<event>
 4   1  0.3671700E-05  0.8062258E+02  0.7546771E-02  0.1202337E+00
      -11   -1    0    0    0    0  0.00000000000E+00  0.00000000000E+00  0.65000000000E+04  0.65000000000E+04  0.00000000000E+00 0. -1.
       11   -1    0    0    0    0 -0.00000000000E+00 -0.00000000000E+00 -0.65000000000E+04  0.65000000000E+04  0.00000000000E+00 0.  1.
       22    1    1    2    0    0  0.34756746503E+04 -0.27023633007E+03 -0.54860421117E+04  0.65000000000E+04  0.00000000000E+00 0.  1.
       22    1    1    2    0    0 -0.34756746503E+04  0.27023633007E+03  0.54860421117E+04  0.65000000000E+04  0.00000000000E+00 0. -1.
</event>
<event>
 4   1  0.3671700E-05  0.8062258E+02  0.7546771E-02  0.1202337E+00
      -11   -1    0    0    0    0  0.00000000000E+00  0.00000000000E+00  0.65000000000E+04  0.65000000000E+04  0.00000000000E+00 0. -1.
       11   -1    0    0    0    0 -0.00000000000E+00 -0.00000000000E+00 -0.65000000000E+04  0.65000000000E+04  0.00000000000E+00 0.  1.
       22    1    1    2    0    0 -0.18135699831E+04 -0.53562908118E+04 -0.32048576655E+04  0.65000000000E+04  0.00000000000E+00 0.  1.
       22    1    1    2    0    0  0.18135699831E+04  0.53562908118E+04  0.32048576655E+04  0.65000000000E+04  0.00000000000E+00 0. -1.
</event>
<event>
 4   1  0.3671700E-05  0.8062258E+02  0.7546771E-02  0.1202337E+00
      -11   -1    0    0    0    0  0.00000000000E+00  0.00000000000E+00  0.65000000000E+04  0.65000000000E+04  0.00000000000E+00 0. -1.
       11   -1    0    0    0    0 -0.00000000000E+00 -0.00000000000E+00 -0.65000000000E+04  0.65000000000E+04  0.00000000000E+00 0.  1.
       22    1    1    2    0    0  0.15456587990E+04  0.61148478261E+03 -0.62838702436E+04  0.65000000000E+04  0.00000000000E+00 0.  1.
       22    1    1    2    0    0 -0.15456587990E+04 -0.61148478261E+03  0.62838702436E+04  0.65000000000E+04  0.00000000000E+00 0. -1.
</event>
<event>
 4   1  0.3671700E-05  0.8062258E+02  0.7546771E-02  0.1202337E+00
      -11   -1    0    0    0    0  0.00000000000E+00  0.00000000000E+00  0.65000000000E+04  0.65000000000E+04  0.00000000000E+00 0. -1.
       11   -1    0    0    0    0 -0.00000000000E+00 -0.00000000000E+00 -0.65000000000E+04  0.65000000000E+04  0.00000000000E+00 0.  1.
       22    1    1    2    0    0  0.30538440286E+03  0.14784247324E+04  0.63222623069E+04  0.65000000000E+04  0.00000000000E+00 0. -1.
       22    1    1    2    0    0 -0.30538440286E+03 -0.14784247324E+04 -0.63222623069E+04  0.65000000000E+04  0.00000000000E+00 0.  1.
</event>
<event>
 5   2  0.3671700E-05  0.7646589E+02  0.7546771E-02  0.1212207E+00
      -11   -1    0    0    0    0  0.00000000000E+00  0.00000000000E+00  0.65000000000E+04  0.65000000000E+04  0.00000000000E+00 0. -1.
       11   -1    0    0    0    0 -0.00000000000E+00 -0.00000000000E+00 -0.65000000000E+04  0.65000000000E+04  0.00000000000E+00 0.  1.
       22    1    1    2    0    0  0.49529978440E+03  0.10318464144E+04 -0.47792510471E+03  0.12403391896E+04  0.00000000000E+00 0.  1.
       22    1    1    2    0    0 -0.21235676902E+04  0.19118548931E+04 -0.47498279435E+04  0.55430672340E+04  0.00000000000E+00 0.  1.
       22    1    1    2    0    0  0.16282679058E+04 -0.29437013076E+04  0.52277530482E+04  0.62165935765E+04  0.00000000000E+00 0. -1.
</event>
<event>
 4   1  0.3671700E-05  0.8062258E+02  0.7546771E-02  0.1202337E+00
      -11   -1    0    0    0    0  0.00000000000E+00  0.00000000000E+00  0.65000000000E+04  0.65000000000E+04  0.00000000000E+00 0.  1.
       11   -1    0    0    0    0 -0.00000000000E+00 -0.00000000000E+00 -0.65000000000E+04  0.65000000000E+04  0.00000000000E+00 0. -1.
       22    1    1    2    0    0 -0.13497839972E+04 -0.11794112790E+04  0.62479654445E+04  0.65000000000E+04  0.00000000000E+00 0.  1.
       22    1    1    2    0    0  0.13497839972E+04  0.11794112790E+04 -0.62479654445E+04  0.65000000000E+04  0.00000000000E+00 0. -1.
</event>
<event>
 4   1  0.3671700E-05  0.8062258E+02  0.7546771E-02  0.1202337E+00
      -11   -1    0    0    0    0  0.00000000000E+00  0.00000000000E+00  0.65000000000E+04  0.65000000000E+04  0.00000000000E+00 0. -1.
       11   -1    0    0    0    0 -0.00000000000E+00 -0.00000000000E+00 -0.65000000000E+04  0.65000000000E+04  0.00000000000E+00 0.  1.
       22    1    1    2    0    0 -0.16760781544E+04  0.15973752026E+04  0.60736442506E+04  0.65000000000E+04  0.00000000000E+00 0. -1.
       22    1    1    2    0    0  0.16760781544E+04 -0.15973752026E+04 -0.60736442506E+04  0.65000000000E+04  0.00000000000E+00 0.  1.
</event>
<event>
 4   1  0.3671700E-05  0.8062258E+02  0.7546771E-02  0.1202337E+00
      -11   -1    0    0    0    0  0.00000000000E+00  0.00000000000E+00  0.65000000000E+04  0.65000000000E+04  0.00000000000E+00 0.  1.
       11   -1    0    0    0    0 -0.00000000000E+00 -0.00000000000E+00 -0.65000000000E+04  0.65000000000E+04  0.00000000000E+00 0. -1.
       22    1    1    2    0    0  0.15602336523E+04 -0.11376231380E+04 -0.62065678556E+04  0.65000000000E+04  0.00000000000E+00 0. -1.
       22    1    1    2    0    0 -0.15602336523E+04  0.11376231380E+04  0.62065678556E+04  0.65000000000E+04  0.00000000000E+00 0.  1.
</event>
<event>
 5   2  0.3671700E-05  0.7735960E+02  0.7546771E-02  0.1210026E+00
      -11   -1    0    0    0    0  0.00000000000E+00  0.00000000000E+00  0.65000000000E+04  0.65000000000E+04  0.00000000000E+00 0.  1.
       11   -1    0    0    0    0 -0.00000000000E+00 -0.00000000000E+00 -0.65000000000E+04  0.65000000000E+04  0.00000000000E+00 0. -1.
       22    1    1    2    0    0 -0.10101027313E+04  0.37511391056E+03 -0.63629351590E+04  0.64535232092E+04  0.00000000000E+00 0. -1.
       22    1    1    2    0    0  0.79994530265E+03 -0.70446503380E+03  0.54531755991E+04  0.55563754000E+04  0.00000000000E+00 0.  1.
       22    1    1    2    0    0  0.21015742867E+03  0.32935112324E+03  0.90975955988E+03  0.99010139077E+03  0.00000000000E+00 0. -1.
</event>
<event>
 4   1  0.3671700E-05  0.8062258E+02  0.7546771E-02  0.1202337E+00
      -11   -1    0    0    0    0  0.00000000000E+00  0.00000000000E+00  0.65000000000E+04  0.65000000000E+04  0.00000000000E+00 0. -1.
       11   -1    0    0    0    0 -0.00000000000E+00 -0.00000000000E+00 -0.65000000000E+04  0.65000000000E+04  0.00000000000E+00 0.  1.
       22    1    1    2    0    0 -0.27661483549E+04 -0.57873461108E+04  0.10512127629E+04  0.65000000000E+04  0.00000000000E+00 0.  1.
       22    1    1    2    0    0  0.27661483549E+04  0.57873461108E+04 -0.10512127629E+04  0.65000000000E+04  0.00000000000E+00 0. -1.
</event>
<event>
 5   2  0.3671700E-05  0.7710290E+02  0.7546771E-02  0.1210649E+00
      -11   -1    0    0    0    0  0.00000000000E+00  0.00000000000E+00  0.65000000000E+04  0.65000000000E+04  0.00000000000E+00 0. -1.
       11   -1    0    0    0    0 -0.00000000000E+00 -0.00000000000E+00 -0.65000000000E+04  0.65000000000E+04  0.00000000000E+00 0.  1.
       22    1    1    2    0    0 -0.88899279581E+03  0.63595059716E+03 -0.53906492035E+04  0.55003490969E+04  0.00000000000E+00 0.  1.
       22    1    1    2    0    0  0.79532407543E+03 -0.12281566433E+04  0.62682693664E+04  0.64367779188E+04  0.00000000000E+00 0. -1.
       22    1    1    2    0    0  0.93668720376E+02  0.59220604617E+03 -0.87762016296E+03  0.10628729843E+04  0.00000000000E+00 0. -1.
</event>
<event>
 4   1  0.3671700E-05  0.8062258E+02  0.7546771E-02  0.1202337E+00
      -11   -1    0    0    0    0  0.00000000000E+00  0.00000000000E+00  0.65000000000E+04  0.65000000000E+04  0.00000000000E+00 0.  1.
       11   -1    0    0    0    0 -0.00000000000E+00 -0.00000000000E+00 -0.65000000000E+04  0.65000000000E+04  0.00000000000E+00 0. -1.
       22    1    1    2    0    0  0.24774139887E+04 -0.57308123595E+03  0.59819727370E+04  0.65000000000E+04  0.00000000000E+00 0.  1.
       22    1    1    2    0    0 -0.24774139887E+04  0.57308123595E+03 -0.59819727370E+04  0.65000000000E+04  0.00000000000E+00 0. -1.
</event>
<event>
 5   2  0.3671700E-05  0.7036777E+02  0.7546771E-02  0.1228043E+00
      -11   -1    0    0    0    0  0.00000000000E+00  0.00000000000E+00  0.65000000000E+04  0.65000000000E+04  0.00000000000E+00 0.  1.
       11   -1    0    0    0    0 -0.00000000000E+00 -0.00000000000E+00 -0.65000000000E+04  0.65000000000E+04  0.00000000000E+00 0. -1.
       22    1    1    2    0    0  0.67811157496E+02  0.29725052754E+04  0.28572496676E+04  0.41236223916E+04  0.00000000000E+00 0. -1.
       22    1    1    2    0    0 -0.22652849624E+04 -0.38904447357E+04 -0.41876652501E+04  0.61484645603E+04  0.00000000000E+00 0.  1.
       22    1    1    2    0    0  0.21974738049E+04  0.91793946022E+03  0.13304155825E+04  0.27279130481E+04  0.00000000000E+00 0. -1.
</event>
<event>
 4   1  0.3671700E-05  0.8062258E+02  0.7546771E-02  0.1202337E+00
      -11   -1    0    0    0    0  0.00000000000E+00  0.00000000000E+00  0.65000000000E+04  0.65000000000E+04  0.00000000000E+00 0.  1.
       11   -1    0    0    0    0 -0.00000000000E+00 -0.00000000000E+00 -0.65000000000E+04  0.65000000000E+04  0.00000000000E+00 0. -1.
       22    1    1    2    0    0  0.26228838322E+02  0.13335152605E+04  0.63616860264E+04  0.65000000000E+04  0.00000000000E+00 0.  1.
       22    1    1    2    0    0 -0.26228838322E+02 -0.13335152605E+04 -0.63616860264E+04  0.65000000000E+04  0.00000000000E+00 0. -1.
</event>
<event>
 4   1  0.3671700E-05  0.8062258E+02  0.7546771E-02  0.1202337E+00
      -11   -1    0    0    0    0  0.00000000000E+00  0.00000000000E+00  0.65000000000E+04  0.65000000000E+04  0.00000000000E+00 0. -1.
       11   -1    0    0    0    0 -0.00000000000E+00 -0.00000000000E+00 -0.65000000000E+04  0.65000000000E+04  0.00000000000E+00 0.  1.
       22    1    1    2    0    0 -0.37895004675E+03  0.14882599294E+04 -0.63159701744E+04  0.65000000000E+04  0.00000000000E+00 0.  1.
       22    1    1    2    0    0  0.37895004675E+03 -0.14882599294E+04  0.63159701744E+04  0.65000000000E+04  0.00000000000E+00 0. -1.
</event>
<event>
 4   1  0.3671700E-05  0.8062258E+02  0.7546771E-02  0.1202337E+00
      -11   -1    0    0    0    0  0.00000000000E+00  0.00000000000E+00  0.65000000000E+04  0.65000000000E+04  0.00000000000E+00 0. -1.
       11   -1    0    0    0    0 -0.00000000000E+00 -0.00000000000E+00 -0.65000000000E+04  0.65000000000E+04  0.00000000000E+00 0.  1.
       22    1    1    2    0    0 -0.32707201244E+04 -0.22325910325E+04  0.51544085159E+04  0.65000000000E+04  0.00000000000E+00 0. -1.
       22    1    1    2    0    0  0.32707201244E+04  0.22325910325E+04 -0.51544085159E+04  0.65000000000E+04  0.00000000000E+00 0.  1.
</event>
<event>
 4   1  0.3671700E-05  0.8062258E+02  0.7546771E-02  0.1202337E+00
      -11   -1    0    0    0    0  0.00000000000E+00  0.00000000000E+00  0.65000000000E+04  0.65000000000E+04  0.00000000000E+00 0. -1.
       11   -1    0    0    0    0 -0.00000000000E+00 -0.00000000000E+00 -0.65000000000E+04  0.65000000000E+04  0.00000000000E+00 0.  1.
       22    1    1    2    0    0 -0.17866903903E+04  0.86563163473E+02  0.62490194645E+04  0.65000000000E+04  0.00000000000E+00 0. -1.
       22    1    1    2    0    0  0.17866903903E+04 -0.86563163473E+02 -0.62490194645E+04  0.65000000000E+04  0.00000000000E+00 0.  1.
</event>
<event>
 4   1  0.3671700E-05  0.8062258E+02  0.7546771E-02  0.1202337E+00
      -11   -1    0    0    0    0  0.00000000000E+00  0.00000000000E+00  0.65000000000E+04  0.65000000000E+04  0.00000000000E+00 0. -1.
       11   -1    0    0    0    0 -0.00000000000E+00 -0.00000000000E+00 -0.65000000000E+04  0.65000000000E+04  0.00000000000E+00 0.  1.
       22    1    1    2    0    0  0.59258701722E+04 -0.26672874133E+04 -0.14014476999E+03  0.65000000000E+04  0.00000000000E+00 0. -1.
       22    1    1    2    0    0 -0.59258701722E+04  0.26672874133E+04  0.14014476999E+03  0.65000000000E+04  0.00000000000E+00 0.  1.
</event>
<event>
 5   2  0.3671700E-05  0.8035236E+02  0.7546771E-02  0.1202958E+00
      -11   -1    0    0    0    0  0.00000000000E+00  0.00000000000E+00  0.65000000000E+04  0.65000000000E+04  0.00000000000E+00 0. -1.
       11   -1    0    0    0    0 -0.00000000000E+00 -0.00000000000E+00 -0.65000000000E+04  0.65000000000E+04  0.00000000000E+00 0.  1.
       22    1    1    2    0    0 -0.24036543232E+02 -0.78600837589E+02  0.27599715610E+02  0.86704044784E+02  0.00000000000E+00 0. -1.
       22    1    1    2    0    0  0.60410876174E+03 -0.96464554048E+03 -0.63642343638E+04  0.64652120965E+04  0.00000000000E+00 0.  1.
       22    1    1    2    0    0 -0.58007221851E+03  0.10432463781E+04  0.63366346482E+04  0.64480838587E+04  0.00000000000E+00 0. -1.
</event>
<event>
 4   1  0.3671700E-05  0.8062258E+02  0.7546771E-02  0.1202337E+00
      -11   -1    0    0    0    0  0.00000000000E+00  0.00000000000E+00  0.65000000000E+04  0.65000000000E+04  0.00000000000E+00 0. -1.
       11   -1    0    0    0    0 -0.00000000000E+00 -0.00000000000E+00 -0.65000000000E+04  0.65000000000E+04  0.00000000000E+00 0.  1.
       22    1    1    2    0    0 -0.27698968802E+04  0.18995893833E+04 -0.55650005793E+04  0.65000000000E+04  0.00000000000E+00 0.  1.
       22    1    1    2    0    0  0.27698968802E+04 -0.18995893833E+04  0.55650005793E+04  0.65000000000E+04  0.00000000000E+00 0. -1.
</event>
<event>
 4   1  0.3671700E-05  0.8062258E+02  0.7546771E-02  0.1202337E+00
      -11   -1    0    0    0    0  0.00000000000E+00  0.00000000000E+00  0.65000000000E+04  0.65000000000E+04  0.00000000000E+00 0.  1.
       11   -1    0    0    0    0 -0.00000000000E+00 -0.00000000000E+00 -0.65000000000E+04  0.65000000000E+04  0.00000000000E+00 0. -1.
       22    1    1    2    0    0  0.93267425112E+03  0.68639273017E+03 -0.63960131145E+04  0.65000000000E+04  0.00000000000E+00 0. -1.
       22    1    1    2    0    0 -0.93267425112E+03 -0.68639273017E+03  0.63960131145E+04  0.65000000000E+04  0.00000000000E+00 0.  1.
</event>
<event>
 4   1  0.3671700E-05  0.8062258E+02  0.7546771E-02  0.1202337E+00
      -11   -1    0    0    0    0  0.00000000000E+00  0.00000000000E+00  0.65000000000E+04  0.65000000000E+04  0.00000000000E+00 0.  1.
       11   -1    0    0    0    0 -0.00000000000E+00 -0.00000000000E+00 -0.65000000000E+04  0.65000000000E+04  0.00000000000E+00 0. -1.
       22    1    1    2    0    0  0.75771910298E+03  0.41249648769E+04 -0.49659366211E+04  0.65000000000E+04  0.00000000000E+00 0. -1.
       22    1    1    2    0    0 -0.75771910298E+03 -0.41249648769E+04  0.49659366211E+04  0.65000000000E+04  0.00000000000E+00 0.  1.
</event>
<event>
 4   1  0.3671700E-05  0.8062258E+02  0.7546771E-02  0.1202337E+00
      -11   -1    0    0    0    0  0.00000000000E+00  0.00000000000E+00  0.65000000000E+04  0.65000000000E+04  0.00000000000E+00 0.  1.
       11   -1    0    0    0    0 -0.00000000000E+00 -0.00000000000E+00 -0.65000000000E+04  0.65000000000E+04  0.00000000000E+00 0. -1.
       22    1    1    2    0    0  0.56694442650E+04  0.39680566114E+03  0.31543536570E+04  0.65000000000E+04  0.00000000000E+00 0.  1.
       22    1    1    2    0    0 -0.56694442650E+04 -0.39680566114E+03 -0.31543536570E+04  0.65000000000E+04  0.00000000000E+00 0. -1.
</event>
<event>
 4   1  0.3671700E-05  0.8062258E+02  0.7546771E-02  0.1202337E+00
      -11   -1    0    0    0    0  0.00000000000E+00  0.00000000000E+00  0.65000000000E+04  0.65000000000E+04  0.00000000000E+00 0.  1.
       11   -1    0    0    0    0 -0.00000000000E+00 -0.00000000000E+00 -0.65000000000E+04  0.65000000000E+04  0.00000000000E+00 0. -1.
       22    1    1    2    0    0  0.32085550998E+03  0.15456970199E+04 -0.63053844026E+04  0.65000000000E+04  0.00000000000E+00 0. -1.
       22    1    1    2    0    0 -0.32085550998E+03 -0.15456970199E+04  0.63053844026E+04  0.65000000000E+04  0.00000000000E+00 0.  1.
</event>
<event>
 4   1  0.3671700E-05  0.8062258E+02  0.7546771E-02  0.1202337E+00
      -11   -1    0    0    0    0  0.00000000000E+00  0.00000000000E+00  0.65000000000E+04  0.65000000000E+04  0.00000000000E+00 0. -1.
       11   -1    0    0    0    0 -0.00000000000E+00 -0.00000000000E+00 -0.65000000000E+04  0.65000000000E+04  0.00000000000E+00 0.  1.
       22    1    1    2    0    0 -0.16351421838E+04 -0.13769634475E+04 -0.61384266472E+04  0.65000000000E+04  0.00000000000E+00 0.  1.
       22    1    1    2    0    0  0.16351421838E+04  0.13769634475E+04  0.61384266472E+04  0.65000000000E+04  0.00000000000E+00 0. -1.
</event>
<event>
 4   1  0.3671700E-05  0.8062258E+02  0.7546771E-02  0.1202337E+00
      -11   -1    0    0    0    0  0.00000000000E+00  0.00000000000E+00  0.65000000000E+04  0.65000000000E+04  0.00000000000E+00 0. -1.
       11   -1    0    0    0    0 -0.00000000000E+00 -0.00000000000E+00 -0.65000000000E+04  0.65000000000E+04  0.00000000000E+00 0.  1.
       22    1    1    2    0    0 -0.70030259059E+03 -0.15990721048E+04  0.62611935512E+04  0.65000000000E+04  0.00000000000E+00 0. -1.
       22    1    1    2    0    0  0.70030259059E+03  0.15990721048E+04 -0.62611935512E+04  0.65000000000E+04  0.00000000000E+00 0.  1.
</event>
<event>
 4   1  0.3671700E-05  0.8062258E+02  0.7546771E-02  0.1202337E+00
      -11   -1    0    0    0    0  0.00000000000E+00  0.00000000000E+00  0.65000000000E+04  0.65000000000E+04  0.00000000000E+00 0.  1.
       11   -1    0    0    0    0 -0.00000000000E+00 -0.00000000000E+00 -0.65000000000E+04  0.65000000000E+04  0.00000000000E+00 0. -1.
       22    1    1    2    0    0 -0.18782120880E+03 -0.14717973655E+04 -0.63283912417E+04  0.65000000000E+04  0.00000000000E+00 0. -1.
       22    1    1    2    0    0  0.18782120880E+03  0.14717973655E+04  0.63283912417E+04  0.65000000000E+04  0.00000000000E+00 0.  1.
</event>
<event>
 5   2  0.3671700E-05  0.7433833E+02  0.7546771E-02  0.1217537E+00
      -11   -1    0    0    0    0  0.00000000000E+00  0.00000000000E+00  0.65000000000E+04  0.65000000000E+04  0.00000000000E+00 0. -1.
       11   -1    0    0    0    0 -0.00000000000E+00 -0.00000000000E+00 -0.65000000000E+04  0.65000000000E+04  0.00000000000E+00 0.  1.
       22    1    1    2    0    0  0.50220139348E+03  0.13750855597E+04 -0.60716412097E+04  0.62456299535E+04  0.00000000000E+00 0.  1.
       22    1    1    2    0    0 -0.90571363844E+03 -0.96392277321E+02  0.48681640543E+04  0.49526386831E+04  0.00000000000E+00 0. -1.
       22    1    1    2    0    0  0.40351224497E+03 -0.12786932824E+04  0.12034771555E+04  0.18017313634E+04  0.00000000000E+00 0.  1.
</event>
<event>
 5   2  0.3671700E-05  0.8049168E+02  0.7546771E-02  0.1202638E+00
      -11   -1    0    0    0    0  0.00000000000E+00  0.00000000000E+00  0.65000000000E+04  0.65000000000E+04  0.00000000000E+00 0.  1.
       11   -1    0    0    0    0 -0.00000000000E+00 -0.00000000000E+00 -0.65000000000E+04  0.65000000000E+04  0.00000000000E+00 0. -1.
       22    1    1    2    0    0 -0.73509273785E+01 -0.13476583692E+02  0.39212599064E+02  0.42110359375E+02  0.00000000000E+00 0.  1.
       22    1    1    2    0    0 -0.86004118966E+03  0.93300267867E+03  0.63343422548E+04  0.64601901401E+04  0.00000000000E+00 0.  1.
       22    1    1    2    0    0  0.86739211704E+03 -0.91952609498E+03 -0.63735548538E+04  0.64976995005E+04  0.00000000000E+00 0. -1.
</event>
<event>
 4   1  0.3671700E-05  0.8062258E+02  0.7546771E-02  0.1202337E+00
      -11   -1    0    0    0    0  0.00000000000E+00  0.00000000000E+00  0.65000000000E+04  0.65000000000E+04  0.00000000000E+00 0.  1.
       11   -1    0    0    0    0 -0.00000000000E+00 -0.00000000000E+00 -0.65000000000E+04  0.65000000000E+04  0.00000000000E+00 0. -1.
       22    1    1    2    0    0 -0.25983677671E+04 -0.13920142767E+04  0.57931667679E+04  0.65000000000E+04  0.00000000000E+00 0.  1.
       22    1    1    2    0    0  0.25983677671E+04  0.13920142767E+04 -0.57931667679E+04  0.65000000000E+04  0.00000000000E+00 0. -1.
</event>
<event>
 4   1  0.3671700E-05  0.8062258E+02  0.7546771E-02  0.1202337E+00
      -11   -1    0    0    0    0  0.00000000000E+00  0.00000000000E+00  0.65000000000E+04  0.65000000000E+04  0.00000000000E+00 0.  1.
       11   -1    0    0    0    0 -0.00000000000E+00 -0.00000000000E+00 -0.65000000000E+04  0.65000000000E+04  0.00000000000E+00 0. -1.
       22    1    1    2    0    0 -0.75842578814E+03 -0.18024484690E+04 -0.61988684323E+04  0.65000000000E+04  0.00000000000E+00 0. -1.
       22    1    1    2    0    0  0.75842578814E+03  0.18024484690E+04  0.61988684323E+04  0.65000000000E+04  0.00000000000E+00 0.  1.
</event>
<event>
 4   1  0.3671700E-05  0.8062258E+02  0.7546771E-02  0.1202337E+00
      -11   -1    0    0    0    0  0.00000000000E+00  0.00000000000E+00  0.65000000000E+04  0.65000000000E+04  0.00000000000E+00 0. -1.
       11   -1    0    0    0    0 -0.00000000000E+00 -0.00000000000E+00 -0.65000000000E+04  0.65000000000E+04  0.00000000000E+00 0.  1.
       22    1    1    2    0    0 -0.25144076248E+04  0.51809524539E+04  0.30142139881E+04  0.65000000000E+04  0.00000000000E+00 0. -1.
       22    1    1    2    0    0  0.25144076248E+04 -0.51809524539E+04 -0.30142139881E+04  0.65000000000E+04  0.00000000000E+00 0.  1.
</event>
<event>
 5   2  0.3671700E-05  0.7104208E+02  0.7546771E-02  0.1226204E+00
      -11   -1    0    0    0    0  0.00000000000E+00  0.00000000000E+00  0.65000000000E+04  0.65000000000E+04  0.00000000000E+00 0. -1.
       11   -1    0    0    0    0 -0.00000000000E+00 -0.00000000000E+00 -0.65000000000E+04  0.65000000000E+04  0.00000000000E+00 0.  1.
       22    1    1    2    0    0  0.68048454355E+03  0.14779018116E+04  0.20038740795E+04  0.25812330978E+04  0.00000000000E+00 0. -1.
       22    1    1    2    0    0  0.13495234131E+04 -0.43729225288E+04  0.20714195491E+04  0.50233896757E+04  0.00000000000E+00 0. -1.
       22    1    1    2    0    0 -0.20300079567E+04  0.28950207172E+04 -0.40752936286E+04  0.53953772265E+04  0.00000000000E+00 0.  1.
</event>
<event>
 4   1  0.3671700E-05  0.8062258E+02  0.7546771E-02  0.1202337E+00
      -11   -1    0    0    0    0  0.00000000000E+00  0.00000000000E+00  0.65000000000E+04  0.65000000000E+04  0.00000000000E+00 0. -1.
       11   -1    0    0    0    0 -0.00000000000E+00 -0.00000000000E+00 -0.65000000000E+04  0.65000000000E+04  0.00000000000E+00 0.  1.
       22    1    1    2    0    0 -0.29447667248E+04  0.57944330510E+04 -0.53801054819E+02  0.65000000000E+04  0.00000000000E+00 0.  1.
       22    1    1    2    0    0  0.29447667248E+04 -0.57944330510E+04  0.53801054819E+02  0.65000000000E+04  0.00000000000E+00 0. -1.
</event>
<event>
 4   1  0.3671700E-05  0.8062258E+02  0.7546771E-02  0.1202337E+00
      -11   -1    0    0    0    0  0.00000000000E+00  0.00000000000E+00  0.65000000000E+04  0.65000000000E+04  0.00000000000E+00 0.  1.
       11   -1    0    0    0    0 -0.00000000000E+00 -0.00000000000E+00 -0.65000000000E+04  0.65000000000E+04  0.00000000000E+00 0. -1.
       22    1    1    2    0    0 -0.69000817369E+03  0.61589633010E+04 -0.19598621831E+04  0.65000000000E+04  0.00000000000E+00 0. -1.
       22    1    1    2    0    0  0.69000817369E+03 -0.61589633010E+04  0.19598621831E+04  0.65000000000E+04  0.00000000000E+00 0.  1.
</event>
<event>
 4   1  0.3671700E-05  0.8062258E+02  0.7546771E-02  0.1202337E+00
      -11   -1    0    0    0    0  0.00000000000E+00  0.00000000000E+00  0.65000000000E+04  0.65000000000E+04  0.00000000000E+00 0.  1.
       11   -1    0    0    0    0 -0.00000000000E+00 -0.00000000000E+00 -0.65000000000E+04  0.65000000000E+04  0.00000000000E+00 0. -1.
       22    1    1    2    0    0  0.22217201237E+04 -0.15462178799E+03 -0.61065580972E+04  0.65000000000E+04  0.00000000000E+00 0. -1.
       22    1    1    2    0    0 -0.22217201237E+04  0.15462178799E+03  0.61065580972E+04  0.65000000000E+04  0.00000000000E+00 0.  1.
</event>
<event>
 4   1  0.3671700E-05  0.8062258E+02  0.7546771E-02  0.1202337E+00
      -11   -1    0    0    0    0  0.00000000000E+00  0.00000000000E+00  0.65000000000E+04  0.65000000000E+04  0.00000000000E+00 0. -1.
       11   -1    0    0    0    0 -0.00000000000E+00 -0.00000000000E+00 -0.65000000000E+04  0.65000000000E+04  0.00000000000E+00 0.  1.
       22    1    1    2    0    0  0.24961606004E+04 -0.14372109859E+04 -0.58269723561E+04  0.65000000000E+04  0.00000000000E+00 0.  1.
       22    1    1    2    0    0 -0.24961606004E+04  0.14372109859E+04  0.58269723561E+04  0.65000000000E+04  0.00000000000E+00 0. -1.
</event>
<event>
 4   1  0.3671700E-05  0.8062258E+02  0.7546771E-02  0.1202337E+00
      -11   -1    0    0    0    0  0.00000000000E+00  0.00000000000E+00  0.65000000000E+04  0.65000000000E+04  0.00000000000E+00 0. -1.
       11   -1    0    0    0    0 -0.00000000000E+00 -0.00000000000E+00 -0.65000000000E+04  0.65000000000E+04  0.00000000000E+00 0.  1.
       22    1    1    2    0    0 -0.22771702291E+04 -0.30829379337E+04 -0.52497608940E+04  0.65000000000E+04  0.00000000000E+00 0.  1.
       22    1    1    2    0    0  0.22771702291E+04  0.30829379337E+04  0.52497608940E+04  0.65000000000E+04  0.00000000000E+00 0. -1.
</event>
<event>
 4   1  0.3671700E-05  0.8062258E+02  0.7546771E-02  0.1202337E+00
      -11   -1    0    0    0    0  0.00000000000E+00  0.00000000000E+00  0.65000000000E+04  0.65000000000E+04  0.00000000000E+00 0.  1.
       11   -1    0    0    0    0 -0.00000000000E+00 -0.00000000000E+00 -0.65000000000E+04  0.65000000000E+04  0.00000000000E+00 0. -1.
       22    1    1    2    0    0 -0.16846141473E+04 -0.55661502816E+04 -0.29034541872E+04  0.65000000000E+04  0.00000000000E+00 0. -1.
       22    1    1    2    0    0  0.16846141473E+04  0.55661502816E+04  0.29034541872E+04  0.65000000000E+04  0.00000000000E+00 0.  1.
</event>
<event>
 4   1  0.3671700E-05  0.8062258E+02  0.7546771E-02  0.1202337E+00
      -11   -1    0    0    0    0  0.00000000000E+00  0.00000000000E+00  0.65000000000E+04  0.65000000000E+04  0.00000000000E+00 0.  1.
       11   -1    0    0    0    0 -0.00000000000E+00 -0.00000000000E+00 -0.65000000000E+04  0.65000000000E+04  0.00000000000E+00 0. -1.
       22    1    1    2    0    0  0.11052464311E+04 -0.69297953197E+03 -0.63677476155E+04  0.65000000000E+04  0.00000000000E+00 0. -1.
       22    1    1    2    0    0 -0.11052464311E+04  0.69297953197E+03  0.63677476155E+04  0.65000000000E+04  0.00000000000E+00 0.  1.
</event>
<event>
 4   1  0.3671700E-05  0.8062258E+02  0.7546771E-02  0.1202337E+00
      -11   -1    0    0    0    0  0.00000000000E+00  0.00000000000E+00  0.65000000000E+04  0.65000000000E+04  0.00000000000E+00 0. -1.
       11   -1    0    0    0    0 -0.00000000000E+00 -0.00000000000E+00 -0.65000000000E+04  0.65000000000E+04  0.00000000000E+00 0.  1.
       22    1    1    2    0    0  0.13423001044E+04 -0.30079585389E+02 -0.63598211963E+04  0.65000000000E+04  0.00000000000E+00 0.  1.
       22    1    1    2    0    0 -0.13423001044E+04  0.30079585389E+02  0.63598211963E+04  0.65000000000E+04  0.00000000000E+00 0. -1.
</event>
<event>
 4   1  0.3671700E-05  0.8062258E+02  0.7546771E-02  0.1202337E+00
      -11   -1    0    0    0    0  0.00000000000E+00  0.00000000000E+00  0.65000000000E+04  0.65000000000E+04  0.00000000000E+00 0.  1.
       11   -1    0    0    0    0 -0.00000000000E+00 -0.00000000000E+00 -0.65000000000E+04  0.65000000000E+04  0.00000000000E+00 0. -1.
       22    1    1    2    0    0 -0.31594306192E+04  0.10886290236E+04  0.55752026879E+04  0.65000000000E+04  0.00000000000E+00 0.  1.
       22    1    1    2    0    0  0.31594306192E+04 -0.10886290236E+04 -0.55752026879E+04  0.65000000000E+04  0.00000000000E+00 0. -1.
</event>
<event>
 4   1  0.3671700E-05  0.8062258E+02  0.7546771E-02  0.1202337E+00
      -11   -1    0    0    0    0  0.00000000000E+00  0.00000000000E+00  0.65000000000E+04  0.65000000000E+04  0.00000000000E+00 0. -1.
       11   -1    0    0    0    0 -0.00000000000E+00 -0.00000000000E+00 -0.65000000000E+04  0.65000000000E+04  0.00000000000E+00 0.  1.
       22    1    1    2    0    0  0.23148091726E+04 -0.37957827782E+04  0.47416971218E+04  0.65000000000E+04  0.00000000000E+00 0. -1.
       22    1    1    2    0    0 -0.23148091726E+04  0.37957827782E+04 -0.47416971218E+04  0.65000000000E+04  0.00000000000E+00 0.  1.
</event>
<event>
 4   1  0.3671700E-05  0.8062258E+02  0.7546771E-02  0.1202337E+00
      -11   -1    0    0    0    0  0.00000000000E+00  0.00000000000E+00  0.65000000000E+04  0.65000000000E+04  0.00000000000E+00 0.  1.
       11   -1    0    0    0    0 -0.00000000000E+00 -0.00000000000E+00 -0.65000000000E+04  0.65000000000E+04  0.00000000000E+00 0. -1.
       22    1    1    2    0    0 -0.56831572128E+04 -0.23228900806E+04 -0.21344567853E+04  0.65000000000E+04  0.00000000000E+00 0. -1.
       22    1    1    2    0    0  0.56831572128E+04  0.23228900806E+04  0.21344567853E+04  0.65000000000E+04  0.00000000000E+00 0.  1.
</event>
<event>
 4   1  0.3671700E-05  0.8062258E+02  0.7546771E-02  0.1202337E+00
      -11   -1    0    0    0    0  0.00000000000E+00  0.00000000000E+00  0.65000000000E+04  0.65000000000E+04  0.00000000000E+00 0. -1.
       11   -1    0    0    0    0 -0.00000000000E+00 -0.00000000000E+00 -0.65000000000E+04  0.65000000000E+04  0.00000000000E+00 0.  1.
       22    1    1    2    0    0 -0.12005996051E+04 -0.54891484837E+03  0.63645308607E+04  0.65000000000E+04  0.00000000000E+00 0. -1.
       22    1    1    2    0    0  0.12005996051E+04  0.54891484837E+03 -0.63645308607E+04  0.65000000000E+04  0.00000000000E+00 0.  1.
</event>
<event>
 4   1  0.3671700E-05  0.8062258E+02  0.7546771E-02  0.1202337E+00
      -11   -1    0    0    0    0  0.00000000000E+00  0.00000000000E+00  0.65000000000E+04  0.65000000000E+04  0.00000000000E+00 0. -1.
       11   -1    0    0    0    0 -0.00000000000E+00 -0.00000000000E+00 -0.65000000000E+04  0.65000000000E+04  0.00000000000E+00 0.  1.
       22    1    1    2    0    0  0.47101224855E+04  0.44792155518E+04 -0.37070363315E+02  0.65000000000E+04  0.00000000000E+00 0. -1.
       22    1    1    2    0    0 -0.47101224855E+04 -0.44792155518E+04  0.37070363315E+02  0.65000000000E+04  0.00000000000E+00 0.  1.
</event>
<event>
 4   1  0.3671700E-05  0.8062258E+02  0.7546771E-02  0.1202337E+00
      -11   -1    0    0    0    0  0.00000000000E+00  0.00000000000E+00  0.65000000000E+04  0.65000000000E+04  0.00000000000E+00 0.  1.
       11   -1    0    0    0    0 -0.00000000000E+00 -0.00000000000E+00 -0.65000000000E+04  0.65000000000E+04  0.00000000000E+00 0. -1.
       22    1    1    2    0    0  0.11051899432E+04  0.14663087629E+04  0.62352621277E+04  0.65000000000E+04  0.00000000000E+00 0.  1.
       22    1    1    2    0    0 -0.11051899432E+04 -0.14663087629E+04 -0.62352621277E+04  0.65000000000E+04  0.00000000000E+00 0. -1.
</event>
<event>
 4   1  0.3671700E-05  0.8062258E+02  0.7546771E-02  0.1202337E+00
      -11   -1    0    0    0    0  0.00000000000E+00  0.00000000000E+00  0.65000000000E+04  0.65000000000E+04  0.00000000000E+00 0. -1.
       11   -1    0    0    0    0 -0.00000000000E+00 -0.00000000000E+00 -0.65000000000E+04  0.65000000000E+04  0.00000000000E+00 0.  1.
       22    1    1    2    0    0  0.20421142772E+04 -0.13715088620E+04 -0.60165382672E+04  0.65000000000E+04  0.00000000000E+00 0.  1.
       22    1    1    2    0    0 -0.20421142772E+04  0.13715088620E+04  0.60165382672E+04  0.65000000000E+04  0.00000000000E+00 0. -1.
</event>
<event>
 4   1  0.3671700E-05  0.8062258E+02  0.7546771E-02  0.1202337E+00
      -11   -1    0    0    0    0  0.00000000000E+00  0.00000000000E+00  0.65000000000E+04  0.65000000000E+04  0.00000000000E+00 0. -1.
       11   -1    0    0    0    0 -0.00000000000E+00 -0.00000000000E+00 -0.65000000000E+04  0.65000000000E+04  0.00000000000E+00 0.  1.
       22    1    1    2    0    0  0.13245712443E+04 -0.50887539398E+03  0.63432292133E+04  0.65000000000E+04  0.00000000000E+00 0. -1.
       22    1    1    2    0    0 -0.13245712443E+04  0.50887539398E+03 -0.63432292133E+04  0.65000000000E+04  0.00000000000E+00 0.  1.
</event>
<event>
 4   1  0.3671700E-05  0.8062258E+02  0.7546771E-02  0.1202337E+00
      -11   -1    0    0    0    0  0.00000000000E+00  0.00000000000E+00  0.65000000000E+04  0.65000000000E+04  0.00000000000E+00 0. -1.
       11   -1    0    0    0    0 -0.00000000000E+00 -0.00000000000E+00 -0.65000000000E+04  0.65000000000E+04  0.00000000000E+00 0.  1.
       22    1    1    2    0    0 -0.32575972159E+04  0.19205177172E+04  0.52867449415E+04  0.65000000000E+04  0.00000000000E+00 0. -1.
       22    1    1    2    0    0  0.32575972159E+04 -0.19205177172E+04 -0.52867449415E+04  0.65000000000E+04  0.00000000000E+00 0.  1.
</event>
<event>
 4   1  0.3671700E-05  0.8062258E+02  0.7546771E-02  0.1202337E+00
      -11   -1    0    0    0    0  0.00000000000E+00  0.00000000000E+00  0.65000000000E+04  0.65000000000E+04  0.00000000000E+00 0.  1.
       11   -1    0    0    0    0 -0.00000000000E+00 -0.00000000000E+00 -0.65000000000E+04  0.65000000000E+04  0.00000000000E+00 0. -1.
       22    1    1    2    0    0  0.33911361499E+03  0.16022357042E+04  0.62902975052E+04  0.65000000000E+04  0.00000000000E+00 0.  1.
       22    1    1    2    0    0 -0.33911361499E+03 -0.16022357042E+04 -0.62902975052E+04  0.65000000000E+04  0.00000000000E+00 0. -1.
</event>
<event>
 4   1  0.3671700E-05  0.8062258E+02  0.7546771E-02  0.1202337E+00
      -11   -1    0    0    0    0  0.00000000000E+00  0.00000000000E+00  0.65000000000E+04  0.65000000000E+04  0.00000000000E+00 0.  1.
       11   -1    0    0    0    0 -0.00000000000E+00 -0.00000000000E+00 -0.65000000000E+04  0.65000000000E+04  0.00000000000E+00 0. -1.
       22    1    1    2    0    0  0.29343363465E+03 -0.60830350358E+04  0.22716913204E+04  0.65000000000E+04  0.00000000000E+00 0.  1.
       22    1    1    2    0    0 -0.29343363465E+03  0.60830350358E+04 -0.22716913204E+04  0.65000000000E+04  0.00000000000E+00 0. -1.
</event>
<event>
 4   1  0.3671700E-05  0.8062258E+02  0.7546771E-02  0.1202337E+00
      -11   -1    0    0    0    0  0.00000000000E+00  0.00000000000E+00  0.65000000000E+04  0.65000000000E+04  0.00000000000E+00 0. -1.
       11   -1    0    0    0    0 -0.00000000000E+00 -0.00000000000E+00 -0.65000000000E+04  0.65000000000E+04  0.00000000000E+00 0.  1.
       22    1    1    2    0    0  0.19297667110E+04 -0.72645933028E+03  0.61642726483E+04  0.65000000000E+04  0.00000000000E+00 0. -1.
       22    1    1    2    0    0 -0.19297667110E+04  0.72645933028E+03 -0.61642726483E+04  0.65000000000E+04  0.00000000000E+00 0.  1.
</event>
<event>
 4   1  0.3671700E-05  0.8062258E+02  0.7546771E-02  0.1202337E+00
      -11   -1    0    0    0    0  0.00000000000E+00  0.00000000000E+00  0.65000000000E+04  0.65000000000E+04  0.00000000000E+00 0.  1.
       11   -1    0    0    0    0 -0.00000000000E+00 -0.00000000000E+00 -0.65000000000E+04  0.65000000000E+04  0.00000000000E+00 0. -1.
       22    1    1    2    0    0  0.11126784671E+04  0.28797810762E+04  0.57200356277E+04  0.65000000000E+04  0.00000000000E+00 0.  1.
       22    1    1    2    0    0 -0.11126784671E+04 -0.28797810762E+04 -0.57200356277E+04  0.65000000000E+04  0.00000000000E+00 0. -1.
</event>
<event>
 4   1  0.3671700E-05  0.8062258E+02  0.7546771E-02  0.1202337E+00
      -11   -1    0    0    0    0  0.00000000000E+00  0.00000000000E+00  0.65000000000E+04  0.65000000000E+04  0.00000000000E+00 0.  1.
       11   -1    0    0    0    0 -0.00000000000E+00 -0.00000000000E+00 -0.65000000000E+04  0.65000000000E+04  0.00000000000E+00 0. -1.
       22    1    1    2    0    0 -0.10880763170E+03 -0.53168881874E+04 -0.37374939333E+04  0.65000000000E+04  0.00000000000E+00 0.  1.
       22    1    1    2    0    0  0.10880763170E+03  0.53168881874E+04  0.37374939333E+04  0.65000000000E+04  0.00000000000E+00 0. -1.
</event>
<event>
 5   2  0.3671700E-05  0.8030351E+02  0.7546771E-02  0.1203071E+00
      -11   -1    0    0    0    0  0.00000000000E+00  0.00000000000E+00  0.65000000000E+04  0.65000000000E+04  0.00000000000E+00 0. -1.
       11   -1    0    0    0    0 -0.00000000000E+00 -0.00000000000E+00 -0.65000000000E+04  0.65000000000E+04  0.00000000000E+00 0.  1.
       22    1    1    2    0    0  0.53328952399E+02  0.14236247073E+02 -0.86116144809E+02  0.10228703873E+03  0.00000000000E+00 0.  1.
       22    1    1    2    0    0  0.18678872495E+04 -0.31700419598E+03  0.61994294477E+04  0.64824702016E+04  0.00000000000E+00 0. -1.
       22    1    1    2    0    0 -0.19212162019E+04  0.30276794891E+03 -0.61133133029E+04  0.64152427597E+04  0.00000000000E+00 0.  1.
</event>
<event>
 4   1  0.3671700E-05  0.8062258E+02  0.7546771E-02  0.1202337E+00
      -11   -1    0    0    0    0  0.00000000000E+00  0.00000000000E+00  0.65000000000E+04  0.65000000000E+04  0.00000000000E+00 0.  1.
       11   -1    0    0    0    0 -0.00000000000E+00 -0.00000000000E+00 -0.65000000000E+04  0.65000000000E+04  0.00000000000E+00 0. -1.
       22    1    1    2    0    0 -0.15687290723E+04  0.31189555137E+04 -0.54828100096E+04  0.65000000000E+04  0.00000000000E+00 0. -1.
       22    1    1    2    0    0  0.15687290723E+04 -0.31189555137E+04  0.54828100096E+04  0.65000000000E+04  0.00000000000E+00 0.  1.
</event>
<event>
 4   1  0.3671700E-05  0.8062258E+02  0.7546771E-02  0.1202337E+00
      -11   -1    0    0    0    0  0.00000000000E+00  0.00000000000E+00  0.65000000000E+04  0.65000000000E+04  0.00000000000E+00 0. -1.
       11   -1    0    0    0    0 -0.00000000000E+00 -0.00000000000E+00 -0.65000000000E+04  0.65000000000E+04  0.00000000000E+00 0.  1.
       22    1    1    2    0    0  0.73226206336E+03 -0.27034297309E+04  0.58655997102E+04  0.65000000000E+04  0.00000000000E+00 0. -1.
       22    1    1    2    0    0 -0.73226206336E+03  0.27034297309E+04 -0.58655997102E+04  0.65000000000E+04  0.00000000000E+00 0.  1.
</event>
<event>
 4   1  0.3671700E-05  0.8062258E+02  0.7546771E-02  0.1202337E+00
      -11   -1    0    0    0    0  0.00000000000E+00  0.00000000000E+00  0.65000000000E+04  0.65000000000E+04  0.00000000000E+00 0. -1.
       11   -1    0    0    0    0 -0.00000000000E+00 -0.00000000000E+00 -0.65000000000E+04  0.65000000000E+04  0.00000000000E+00 0.  1.
       22    1    1    2    0    0  0.98393872548E+03 -0.84020681784E+03  0.63699228479E+04  0.65000000000E+04  0.00000000000E+00 0. -1.
       22    1    1    2    0    0 -0.98393872548E+03  0.84020681784E+03 -0.63699228479E+04  0.65000000000E+04  0.00000000000E+00 0.  1.
</event>
<event>
 4   1  0.3671700E-05  0.8062258E+02  0.7546771E-02  0.1202337E+00
      -11   -1    0    0    0    0  0.00000000000E+00  0.00000000000E+00  0.65000000000E+04  0.65000000000E+04  0.00000000000E+00 0.  1.
       11   -1    0    0    0    0 -0.00000000000E+00 -0.00000000000E+00 -0.65000000000E+04  0.65000000000E+04  0.00000000000E+00 0. -1.
       22    1    1    2    0    0 -0.15417907122E+04 -0.87724219596E+03 -0.62532653493E+04  0.65000000000E+04  0.00000000000E+00 0. -1.
       22    1    1    2    0    0  0.15417907122E+04  0.87724219596E+03  0.62532653493E+04  0.65000000000E+04  0.00000000000E+00 0.  1.
</event>
<event>
 4   1  0.3671700E-05  0.8062258E+02  0.7546771E-02  0.1202337E+00
      -11   -1    0    0    0    0  0.00000000000E+00  0.00000000000E+00  0.65000000000E+04  0.65000000000E+04  0.00000000000E+00 0. -1.
       11   -1    0    0    0    0 -0.00000000000E+00 -0.00000000000E+00 -0.65000000000E+04  0.65000000000E+04  0.00000000000E+00 0.  1.
       22    1    1    2    0    0  0.18605187901E+04 -0.72581035283E+03 -0.61856017624E+04  0.65000000000E+04  0.00000000000E+00 0.  1.
       22    1    1    2    0    0 -0.18605187901E+04  0.72581035283E+03  0.61856017624E+04  0.65000000000E+04  0.00000000000E+00 0. -1.
</event>
<event>
 5   2  0.3671700E-05  0.7823323E+02  0.7546771E-02  0.1207926E+00
      -11   -1    0    0    0    0  0.00000000000E+00  0.00000000000E+00  0.65000000000E+04  0.65000000000E+04  0.00000000000E+00 0.  1.
       11   -1    0    0    0    0 -0.00000000000E+00 -0.00000000000E+00 -0.65000000000E+04  0.65000000000E+04  0.00000000000E+00 0. -1.
       22    1    1    2    0    0 -0.50389412792E+04  0.25299576080E+04  0.16383289508E+04  0.58716042497E+04  0.00000000000E+00 0.  1.
       22    1    1    2    0    0  0.51980313853E+04 -0.30313874449E+04 -0.21544385489E+04  0.63914353305E+04  0.00000000000E+00 0. -1.
       22    1    1    2    0    0 -0.15909010602E+03  0.50142983687E+03  0.51610959805E+03  0.73696041979E+03  0.00000000000E+00 0.  1.
</event>
<event>
 4   1  0.3671700E-05  0.8062258E+02  0.7546771E-02  0.1202337E+00
      -11   -1    0    0    0    0  0.00000000000E+00  0.00000000000E+00  0.65000000000E+04  0.65000000000E+04  0.00000000000E+00 0.  1.
       11   -1    0    0    0    0 -0.00000000000E+00 -0.00000000000E+00 -0.65000000000E+04  0.65000000000E+04  0.00000000000E+00 0. -1.
       22    1    1    2    0    0 -0.16201244121E+04 -0.77353965331E+03 -0.62471460119E+04  0.65000000000E+04  0.00000000000E+00 0. -1.
       22    1    1    2    0    0  0.16201244121E+04  0.77353965331E+03  0.62471460119E+04  0.65000000000E+04  0.00000000000E+00 0.  1.
</event>
<event>
 4   1  0.3671700E-05  0.8062258E+02  0.7546771E-02  0.1202337E+00
      -11   -1    0    0    0    0  0.00000000000E+00  0.00000000000E+00  0.65000000000E+04  0.65000000000E+04  0.00000000000E+00 0.  1.
       11   -1    0    0    0    0 -0.00000000000E+00 -0.00000000000E+00 -0.65000000000E+04  0.65000000000E+04  0.00000000000E+00 0. -1.
       22    1    1    2    0    0 -0.44447460372E+03  0.11759614324E+04  0.63772687756E+04  0.65000000000E+04  0.00000000000E+00 0.  1.
       22    1    1    2    0    0  0.44447460372E+03 -0.11759614324E+04 -0.63772687756E+04  0.65000000000E+04  0.00000000000E+00 0. -1.
</event>
<event>
 4   1  0.3671700E-05  0.8062258E+02  0.7546771E-02  0.1202337E+00
      -11   -1    0    0    0    0  0.00000000000E+00  0.00000000000E+00  0.65000000000E+04  0.65000000000E+04  0.00000000000E+00 0.  1.
       11   -1    0    0    0    0 -0.00000000000E+00 -0.00000000000E+00 -0.65000000000E+04  0.65000000000E+04  0.00000000000E+00 0. -1.
       22    1    1    2    0    0 -0.37996029861E+04  0.18337985553E+03 -0.52706156165E+04  0.65000000000E+04  0.00000000000E+00 0. -1.
       22    1    1    2    0    0  0.37996029861E+04 -0.18337985553E+03  0.52706156165E+04  0.65000000000E+04  0.00000000000E+00 0.  1.
</event>
<event>
 4   1  0.3671700E-05  0.8062258E+02  0.7546771E-02  0.1202337E+00
      -11   -1    0    0    0    0  0.00000000000E+00  0.00000000000E+00  0.65000000000E+04  0.65000000000E+04  0.00000000000E+00 0. -1.
       11   -1    0    0    0    0 -0.00000000000E+00 -0.00000000000E+00 -0.65000000000E+04  0.65000000000E+04  0.00000000000E+00 0.  1.
       22    1    1    2    0    0 -0.65787021700E+03 -0.57112621482E+04 -0.30329344622E+04  0.65000000000E+04  0.00000000000E+00 0.  1.
       22    1    1    2    0    0  0.65787021700E+03  0.57112621482E+04  0.30329344622E+04  0.65000000000E+04  0.00000000000E+00 0. -1.
</event>
<event>
 5   2  0.3671700E-05  0.8054182E+02  0.7546771E-02  0.1202523E+00
      -11   -1    0    0    0    0  0.00000000000E+00  0.00000000000E+00  0.65000000000E+04  0.65000000000E+04  0.00000000000E+00 0.  1.
       11   -1    0    0    0    0 -0.00000000000E+00 -0.00000000000E+00 -0.65000000000E+04  0.65000000000E+04  0.00000000000E+00 0. -1.
       22    1    1    2    0    0  0.17498972586E+04 -0.51154704229E+04 -0.36033035320E+04  0.64972282096E+04  0.00000000000E+00 0. -1.
       22    1    1    2    0    0  0.37719740349E+01  0.10879267918E+02  0.23316029857E+02  0.26004297854E+02  0.00000000000E+00 0. -1.
       22    1    1    2    0    0 -0.17536692327E+04  0.51045911550E+04  0.35799875022E+04  0.64767674926E+04  0.00000000000E+00 0.  1.
</event>
<event>
 4   1  0.3671700E-05  0.8062258E+02  0.7546771E-02  0.1202337E+00
      -11   -1    0    0    0    0  0.00000000000E+00  0.00000000000E+00  0.65000000000E+04  0.65000000000E+04  0.00000000000E+00 0.  1.
       11   -1    0    0    0    0 -0.00000000000E+00 -0.00000000000E+00 -0.65000000000E+04  0.65000000000E+04  0.00000000000E+00 0. -1.
       22    1    1    2    0    0 -0.10157236330E+04 -0.15503678938E+04  0.62301416433E+04  0.65000000000E+04  0.00000000000E+00 0.  1.
       22    1    1    2    0    0  0.10157236330E+04  0.15503678938E+04 -0.62301416433E+04  0.65000000000E+04  0.00000000000E+00 0. -1.
</event>
<event>
 4   1  0.3671700E-05  0.8062258E+02  0.7546771E-02  0.1202337E+00
      -11   -1    0    0    0    0  0.00000000000E+00  0.00000000000E+00  0.65000000000E+04  0.65000000000E+04  0.00000000000E+00 0. -1.
       11   -1    0    0    0    0 -0.00000000000E+00 -0.00000000000E+00 -0.65000000000E+04  0.65000000000E+04  0.00000000000E+00 0.  1.
       22    1    1    2    0    0 -0.37704255325E+04  0.14054692703E+04  0.51047573335E+04  0.65000000000E+04  0.00000000000E+00 0. -1.
       22    1    1    2    0    0  0.37704255325E+04 -0.14054692703E+04 -0.51047573335E+04  0.65000000000E+04  0.00000000000E+00 0.  1.
</event>
<event>
 4   1  0.3671700E-05  0.8062258E+02  0.7546771E-02  0.1202337E+00
      -11   -1    0    0    0    0  0.00000000000E+00  0.00000000000E+00  0.65000000000E+04  0.65000000000E+04  0.00000000000E+00 0. -1.
       11   -1    0    0    0    0 -0.00000000000E+00 -0.00000000000E+00 -0.65000000000E+04  0.65000000000E+04  0.00000000000E+00 0.  1.
       22    1    1    2    0    0  0.85706792054E+03  0.91830286251E+03  0.63774724172E+04  0.65000000000E+04  0.00000000000E+00 0. -1.
       22    1    1    2    0    0 -0.85706792054E+03 -0.91830286251E+03 -0.63774724172E+04  0.65000000000E+04  0.00000000000E+00 0.  1.
</event>
<event>
 4   1  0.3671700E-05  0.8062258E+02  0.7546771E-02  0.1202337E+00
      -11   -1    0    0    0    0  0.00000000000E+00  0.00000000000E+00  0.65000000000E+04  0.65000000000E+04  0.00000000000E+00 0. -1.
       11   -1    0    0    0    0 -0.00000000000E+00 -0.00000000000E+00 -0.65000000000E+04  0.65000000000E+04  0.00000000000E+00 0.  1.
       22    1    1    2    0    0  0.19205080435E+04  0.60314928206E+04 -0.14774109819E+04  0.65000000000E+04  0.00000000000E+00 0. -1.
       22    1    1    2    0    0 -0.19205080435E+04 -0.60314928206E+04  0.14774109819E+04  0.65000000000E+04  0.00000000000E+00 0.  1.
</event>
<event>
 4   1  0.3671700E-05  0.8062258E+02  0.7546771E-02  0.1202337E+00
      -11   -1    0    0    0    0  0.00000000000E+00  0.00000000000E+00  0.65000000000E+04  0.65000000000E+04  0.00000000000E+00 0.  1.
       11   -1    0    0    0    0 -0.00000000000E+00 -0.00000000000E+00 -0.65000000000E+04  0.65000000000E+04  0.00000000000E+00 0. -1.
       22    1    1    2    0    0 -0.18571881027E+04  0.15013722842E+04 -0.60453894511E+04  0.65000000000E+04  0.00000000000E+00 0. -1.
       22    1    1    2    0    0  0.18571881027E+04 -0.15013722842E+04  0.60453894511E+04  0.65000000000E+04  0.00000000000E+00 0.  1.
</event>
<event>
 4   1  0.3671700E-05  0.8062258E+02  0.7546771E-02  0.1202337E+00
      -11   -1    0    0    0    0  0.00000000000E+00  0.00000000000E+00  0.65000000000E+04  0.65000000000E+04  0.00000000000E+00 0.  1.
       11   -1    0    0    0    0 -0.00000000000E+00 -0.00000000000E+00 -0.65000000000E+04  0.65000000000E+04  0.00000000000E+00 0. -1.
       22    1    1    2    0    0  0.13665471653E+04 -0.53732065787E+03 -0.63319693110E+04  0.65000000000E+04  0.00000000000E+00 0. -1.
       22    1    1    2    0    0 -0.13665471653E+04  0.53732065787E+03  0.63319693110E+04  0.65000000000E+04  0.00000000000E+00 0.  1.
</event>
<event>
 4   1  0.3671700E-05  0.8062258E+02  0.7546771E-02  0.1202337E+00
      -11   -1    0    0    0    0  0.00000000000E+00  0.00000000000E+00  0.65000000000E+04  0.65000000000E+04  0.00000000000E+00 0.  1.
       11   -1    0    0    0    0 -0.00000000000E+00 -0.00000000000E+00 -0.65000000000E+04  0.65000000000E+04  0.00000000000E+00 0. -1.
       22    1    1    2    0    0  0.10420794593E+04 -0.91736044183E+03  0.63500015921E+04  0.65000000000E+04  0.00000000000E+00 0.  1.
       22    1    1    2    0    0 -0.10420794593E+04  0.91736044183E+03 -0.63500015921E+04  0.65000000000E+04  0.00000000000E+00 0. -1.
</event>
<event>
 5   2  0.3671700E-05  0.6805080E+02  0.7546771E-02  0.1234542E+00
      -11   -1    0    0    0    0  0.00000000000E+00  0.00000000000E+00  0.65000000000E+04  0.65000000000E+04  0.00000000000E+00 0.  1.
       11   -1    0    0    0    0 -0.00000000000E+00 -0.00000000000E+00 -0.65000000000E+04  0.65000000000E+04  0.00000000000E+00 0. -1.
       22    1    1    2    0    0 -0.32990418117E+04 -0.28836050636E+04  0.52339319201E+03  0.44127990518E+04  0.00000000000E+00 0. -1.
       22    1    1    2    0    0  0.39667691223E+04  0.25629344967E+04  0.25904299851E+04  0.53864847546E+04  0.00000000000E+00 0.  1.
       22    1    1    2    0    0 -0.66772731056E+03  0.32067056689E+03 -0.31138231771E+04  0.32007161936E+04  0.00000000000E+00 0.  1.
</event>
<event>
 4   1  0.3671700E-05  0.8062258E+02  0.7546771E-02  0.1202337E+00
      -11   -1    0    0    0    0  0.00000000000E+00  0.00000000000E+00  0.65000000000E+04  0.65000000000E+04  0.00000000000E+00 0.  1.
       11   -1    0    0    0    0 -0.00000000000E+00 -0.00000000000E+00 -0.65000000000E+04  0.65000000000E+04  0.00000000000E+00 0. -1.
       22    1    1    2    0    0 -0.12696205078E+04  0.38017664040E+04  0.51170925315E+04  0.65000000000E+04  0.00000000000E+00 0.  1.
       22    1    1    2    0    0  0.12696205078E+04 -0.38017664040E+04 -0.51170925315E+04  0.65000000000E+04  0.00000000000E+00 0. -1.
</event>
<event>
 4   1  0.3671700E-05  0.8062258E+02  0.7546771E-02  0.1202337E+00
      -11   -1    0    0    0    0  0.00000000000E+00  0.00000000000E+00  0.65000000000E+04  0.65000000000E+04  0.00000000000E+00 0. -1.
       11   -1    0    0    0    0 -0.00000000000E+00 -0.00000000000E+00 -0.65000000000E+04  0.65000000000E+04  0.00000000000E+00 0.  1.
       22    1    1    2    0    0  0.57953749267E+03 -0.16184986978E+04  0.62685403612E+04  0.65000000000E+04  0.00000000000E+00 0. -1.
       22    1    1    2    0    0 -0.57953749267E+03  0.16184986978E+04 -0.62685403612E+04  0.65000000000E+04  0.00000000000E+00 0.  1.
</event>
<event>
 4   1  0.3671700E-05  0.8062258E+02  0.7546771E-02  0.1202337E+00
      -11   -1    0    0    0    0  0.00000000000E+00  0.00000000000E+00  0.65000000000E+04  0.65000000000E+04  0.00000000000E+00 0. -1.
       11   -1    0    0    0    0 -0.00000000000E+00 -0.00000000000E+00 -0.65000000000E+04  0.65000000000E+04  0.00000000000E+00 0.  1.
       22    1    1    2    0    0  0.32019355089E+04  0.39842330311E+04 -0.40154073456E+04  0.65000000000E+04  0.00000000000E+00 0.  1.
       22    1    1    2    0    0 -0.32019355089E+04 -0.39842330311E+04  0.40154073456E+04  0.65000000000E+04  0.00000000000E+00 0. -1.
</event>
<event>
 4   1  0.3671700E-05  0.8062258E+02  0.7546771E-02  0.1202337E+00
      -11   -1    0    0    0    0  0.00000000000E+00  0.00000000000E+00  0.65000000000E+04  0.65000000000E+04  0.00000000000E+00 0. -1.
       11   -1    0    0    0    0 -0.00000000000E+00 -0.00000000000E+00 -0.65000000000E+04  0.65000000000E+04  0.00000000000E+00 0.  1.
       22    1    1    2    0    0 -0.12832639411E+04  0.98823668732E+03 -0.62949679830E+04  0.65000000000E+04  0.00000000000E+00 0.  1.
       22    1    1    2    0    0  0.12832639411E+04 -0.98823668732E+03  0.62949679830E+04  0.65000000000E+04  0.00000000000E+00 0. -1.
</event>
<event>
 4   1  0.3671700E-05  0.8062258E+02  0.7546771E-02  0.1202337E+00
      -11   -1    0    0    0    0  0.00000000000E+00  0.00000000000E+00  0.65000000000E+04  0.65000000000E+04  0.00000000000E+00 0.  1.
       11   -1    0    0    0    0 -0.00000000000E+00 -0.00000000000E+00 -0.65000000000E+04  0.65000000000E+04  0.00000000000E+00 0. -1.
       22    1    1    2    0    0 -0.39410068708E+04 -0.27984568976E+04 -0.43459295711E+04  0.65000000000E+04  0.00000000000E+00 0. -1.
       22    1    1    2    0    0  0.39410068708E+04  0.27984568976E+04  0.43459295711E+04  0.65000000000E+04  0.00000000000E+00 0.  1.
</event>
<event>
 4   1  0.3671700E-05  0.8062258E+02  0.7546771E-02  0.1202337E+00
      -11   -1    0    0    0    0  0.00000000000E+00  0.00000000000E+00  0.65000000000E+04  0.65000000000E+04  0.00000000000E+00 0. -1.
       11   -1    0    0    0    0 -0.00000000000E+00 -0.00000000000E+00 -0.65000000000E+04  0.65000000000E+04  0.00000000000E+00 0.  1.
       22    1    1    2    0    0  0.91777971607E+03 -0.63799372207E+04 -0.83909561619E+03  0.65000000000E+04  0.00000000000E+00 0.  1.
       22    1    1    2    0    0 -0.91777971607E+03  0.63799372207E+04  0.83909561619E+03  0.65000000000E+04  0.00000000000E+00 0. -1.
</event>
<event>
 4   1  0.3671700E-05  0.8062258E+02  0.7546771E-02  0.1202337E+00
      -11   -1    0    0    0    0  0.00000000000E+00  0.00000000000E+00  0.65000000000E+04  0.65000000000E+04  0.00000000000E+00 0.  1.
       11   -1    0    0    0    0 -0.00000000000E+00 -0.00000000000E+00 -0.65000000000E+04  0.65000000000E+04  0.00000000000E+00 0. -1.
       22    1    1    2    0    0 -0.32162179774E+03 -0.13272259190E+04 -0.63549217760E+04  0.65000000000E+04  0.00000000000E+00 0. -1.
       22    1    1    2    0    0  0.32162179774E+03  0.13272259190E+04  0.63549217760E+04  0.65000000000E+04  0.00000000000E+00 0.  1.
</event>
<event>
 4   1  0.3671700E-05  0.8062258E+02  0.7546771E-02  0.1202337E+00
      -11   -1    0    0    0    0  0.00000000000E+00  0.00000000000E+00  0.65000000000E+04  0.65000000000E+04  0.00000000000E+00 0.  1.
       11   -1    0    0    0    0 -0.00000000000E+00 -0.00000000000E+00 -0.65000000000E+04  0.65000000000E+04  0.00000000000E+00 0. -1.
       22    1    1    2    0    0  0.54337469801E+04  0.27064498149E+04  0.23236874048E+04  0.65000000000E+04  0.00000000000E+00 0.  1.
       22    1    1    2    0    0 -0.54337469801E+04 -0.27064498149E+04 -0.23236874048E+04  0.65000000000E+04  0.00000000000E+00 0. -1.
</event>
<event>
 4   1  0.3671700E-05  0.8062258E+02  0.7546771E-02  0.1202337E+00
      -11   -1    0    0    0    0  0.00000000000E+00  0.00000000000E+00  0.65000000000E+04  0.65000000000E+04  0.00000000000E+00 0.  1.
       11   -1    0    0    0    0 -0.00000000000E+00 -0.00000000000E+00 -0.65000000000E+04  0.65000000000E+04  0.00000000000E+00 0. -1.
       22    1    1    2    0    0 -0.36876412054E+02  0.14940041668E+04  0.63258668718E+04  0.65000000000E+04  0.00000000000E+00 0.  1.
       22    1    1    2    0    0  0.36876412054E+02 -0.14940041668E+04 -0.63258668718E+04  0.65000000000E+04  0.00000000000E+00 0. -1.
</event>
<event>
 4   1  0.3671700E-05  0.8062258E+02  0.7546771E-02  0.1202337E+00
      -11   -1    0    0    0    0  0.00000000000E+00  0.00000000000E+00  0.65000000000E+04  0.65000000000E+04  0.00000000000E+00 0. -1.
       11   -1    0    0    0    0 -0.00000000000E+00 -0.00000000000E+00 -0.65000000000E+04  0.65000000000E+04  0.00000000000E+00 0.  1.
       22    1    1    2    0    0  0.56784756884E+04  0.30846542658E+04 -0.69987278585E+03  0.65000000000E+04  0.00000000000E+00 0.  1.
       22    1    1    2    0    0 -0.56784756884E+04 -0.30846542658E+04  0.69987278585E+03  0.65000000000E+04  0.00000000000E+00 0. -1.
</event>
<event>
 4   1  0.3671700E-05  0.8062258E+02  0.7546771E-02  0.1202337E+00
      -11   -1    0    0    0    0  0.00000000000E+00  0.00000000000E+00  0.65000000000E+04  0.65000000000E+04  0.00000000000E+00 0. -1.
       11   -1    0    0    0    0 -0.00000000000E+00 -0.00000000000E+00 -0.65000000000E+04  0.65000000000E+04  0.00000000000E+00 0.  1.
       22    1    1    2    0    0  0.12603715800E+04 -0.15592288201E+04 -0.61830630732E+04  0.65000000000E+04  0.00000000000E+00 0.  1.
       22    1    1    2    0    0 -0.12603715800E+04  0.15592288201E+04  0.61830630732E+04  0.65000000000E+04  0.00000000000E+00 0. -1.
</event>
<event>
 4   1  0.3671700E-05  0.8062258E+02  0.7546771E-02  0.1202337E+00
      -11   -1    0    0    0    0  0.00000000000E+00  0.00000000000E+00  0.65000000000E+04  0.65000000000E+04  0.00000000000E+00 0.  1.
       11   -1    0    0    0    0 -0.00000000000E+00 -0.00000000000E+00 -0.65000000000E+04  0.65000000000E+04  0.00000000000E+00 0. -1.
       22    1    1    2    0    0 -0.20459142491E+04  0.99506237971E+03 -0.60888492957E+04  0.65000000000E+04  0.00000000000E+00 0. -1.
       22    1    1    2    0    0  0.20459142491E+04 -0.99506237971E+03  0.60888492957E+04  0.65000000000E+04  0.00000000000E+00 0.  1.
</event>
<event>
 4   1  0.3671700E-05  0.8062258E+02  0.7546771E-02  0.1202337E+00
      -11   -1    0    0    0    0  0.00000000000E+00  0.00000000000E+00  0.65000000000E+04  0.65000000000E+04  0.00000000000E+00 0. -1.
       11   -1    0    0    0    0 -0.00000000000E+00 -0.00000000000E+00 -0.65000000000E+04  0.65000000000E+04  0.00000000000E+00 0.  1.
       22    1    1    2    0    0  0.23352829089E+04  0.57386760105E+04  0.19657190497E+04  0.65000000000E+04  0.00000000000E+00 0. -1.
       22    1    1    2    0    0 -0.23352829089E+04 -0.57386760105E+04 -0.19657190497E+04  0.65000000000E+04  0.00000000000E+00 0.  1.
</event>
<event>
 4   1  0.3671700E-05  0.8062258E+02  0.7546771E-02  0.1202337E+00
      -11   -1    0    0    0    0  0.00000000000E+00  0.00000000000E+00  0.65000000000E+04  0.65000000000E+04  0.00000000000E+00 0.  1.
       11   -1    0    0    0    0 -0.00000000000E+00 -0.00000000000E+00 -0.65000000000E+04  0.65000000000E+04  0.00000000000E+00 0. -1.
       22    1    1    2    0    0 -0.61000107990E+03 -0.47424891133E+04  0.44030325564E+04  0.65000000000E+04  0.00000000000E+00 0.  1.
       22    1    1    2    0    0  0.61000107990E+03  0.47424891133E+04 -0.44030325564E+04  0.65000000000E+04  0.00000000000E+00 0. -1.
</event>
<event>
 5   2  0.3671700E-05  0.7825948E+02  0.7546771E-02  0.1207864E+00
      -11   -1    0    0    0    0  0.00000000000E+00  0.00000000000E+00  0.65000000000E+04  0.65000000000E+04  0.00000000000E+00 0. -1.
       11   -1    0    0    0    0 -0.00000000000E+00 -0.00000000000E+00 -0.65000000000E+04  0.65000000000E+04  0.00000000000E+00 0.  1.
       22    1    1    2    0    0 -0.22417506685E+03 -0.16047475413E+03  0.67509763567E+03  0.72922110845E+03  0.00000000000E+00 0. -1.
       22    1    1    2    0    0  0.29043371551E+04 -0.10352389355E+04 -0.56834230663E+04  0.64659254338E+04  0.00000000000E+00 0.  1.
       22    1    1    2    0    0 -0.26801620882E+04  0.11957136897E+04  0.50083254307E+04  0.58048534578E+04  0.00000000000E+00 0. -1.
</event>
<event>
 4   1  0.3671700E-05  0.8062258E+02  0.7546771E-02  0.1202337E+00
      -11   -1    0    0    0    0  0.00000000000E+00  0.00000000000E+00  0.65000000000E+04  0.65000000000E+04  0.00000000000E+00 0. -1.
       11   -1    0    0    0    0 -0.00000000000E+00 -0.00000000000E+00 -0.65000000000E+04  0.65000000000E+04  0.00000000000E+00 0.  1.
       22    1    1    2    0    0 -0.22917315840E+04 -0.68870655779E+03 -0.60434799267E+04  0.65000000000E+04  0.00000000000E+00 0.  1.
       22    1    1    2    0    0  0.22917315840E+04  0.68870655779E+03  0.60434799267E+04  0.65000000000E+04  0.00000000000E+00 0. -1.
</event>
<event>
 4   1  0.3671700E-05  0.8062258E+02  0.7546771E-02  0.1202337E+00
      -11   -1    0    0    0    0  0.00000000000E+00  0.00000000000E+00  0.65000000000E+04  0.65000000000E+04  0.00000000000E+00 0.  1.
       11   -1    0    0    0    0 -0.00000000000E+00 -0.00000000000E+00 -0.65000000000E+04  0.65000000000E+04  0.00000000000E+00 0. -1.
       22    1    1    2    0    0 -0.11257666119E+04 -0.73638971620E+03 -0.63592750940E+04  0.65000000000E+04  0.00000000000E+00 0. -1.
       22    1    1    2    0    0  0.11257666119E+04  0.73638971620E+03  0.63592750940E+04  0.65000000000E+04  0.00000000000E+00 0.  1.
</event>
<event>
 4   1  0.3671700E-05  0.8062258E+02  0.7546771E-02  0.1202337E+00
      -11   -1    0    0    0    0  0.00000000000E+00  0.00000000000E+00  0.65000000000E+04  0.65000000000E+04  0.00000000000E+00 0. -1.
       11   -1    0    0    0    0 -0.00000000000E+00 -0.00000000000E+00 -0.65000000000E+04  0.65000000000E+04  0.00000000000E+00 0.  1.
       22    1    1    2    0    0 -0.16625262434E+04 -0.33900381661E+03  0.62746380694E+04  0.65000000000E+04  0.00000000000E+00 0. -1.
       22    1    1    2    0    0  0.16625262434E+04  0.33900381661E+03 -0.62746380694E+04  0.65000000000E+04  0.00000000000E+00 0.  1.
</event>
<event>
 4   1  0.3671700E-05  0.8062258E+02  0.7546771E-02  0.1202337E+00
      -11   -1    0    0    0    0  0.00000000000E+00  0.00000000000E+00  0.65000000000E+04  0.65000000000E+04  0.00000000000E+00 0.  1.
       11   -1    0    0    0    0 -0.00000000000E+00 -0.00000000000E+00 -0.65000000000E+04  0.65000000000E+04  0.00000000000E+00 0. -1.
       22    1    1    2    0    0 -0.41319806602E+04 -0.28360154295E+04 -0.41392936966E+04  0.65000000000E+04  0.00000000000E+00 0. -1.
       22    1    1    2    0    0  0.41319806602E+04  0.28360154295E+04  0.41392936966E+04  0.65000000000E+04  0.00000000000E+00 0.  1.
</event>
<event>
 4   1  0.3671700E-05  0.8062258E+02  0.7546771E-02  0.1202337E+00
      -11   -1    0    0    0    0  0.00000000000E+00  0.00000000000E+00  0.65000000000E+04  0.65000000000E+04  0.00000000000E+00 0. -1.
       11   -1    0    0    0    0 -0.00000000000E+00 -0.00000000000E+00 -0.65000000000E+04  0.65000000000E+04  0.00000000000E+00 0.  1.
       22    1    1    2    0    0 -0.14766760558E+03 -0.23241033928E+04 -0.60685037446E+04  0.65000000000E+04  0.00000000000E+00 0.  1.
       22    1    1    2    0    0  0.14766760558E+03  0.23241033928E+04  0.60685037446E+04  0.65000000000E+04  0.00000000000E+00 0. -1.
</event>
<event>
 4   1  0.3671700E-05  0.8062258E+02  0.7546771E-02  0.1202337E+00
      -11   -1    0    0    0    0  0.00000000000E+00  0.00000000000E+00  0.65000000000E+04  0.65000000000E+04  0.00000000000E+00 0.  1.
       11   -1    0    0    0    0 -0.00000000000E+00 -0.00000000000E+00 -0.65000000000E+04  0.65000000000E+04  0.00000000000E+00 0. -1.
       22    1    1    2    0    0  0.20765669862E+04  0.24609407068E+04  0.56463829475E+04  0.65000000000E+04  0.00000000000E+00 0.  1.
       22    1    1    2    0    0 -0.20765669862E+04 -0.24609407068E+04 -0.56463829475E+04  0.65000000000E+04  0.00000000000E+00 0. -1.
</event>
<event>
 4   1  0.3671700E-05  0.8062258E+02  0.7546771E-02  0.1202337E+00
      -11   -1    0    0    0    0  0.00000000000E+00  0.00000000000E+00  0.65000000000E+04  0.65000000000E+04  0.00000000000E+00 0. -1.
       11   -1    0    0    0    0 -0.00000000000E+00 -0.00000000000E+00 -0.65000000000E+04  0.65000000000E+04  0.00000000000E+00 0.  1.
       22    1    1    2    0    0 -0.55979476789E+03 -0.21492559254E+04 -0.61087911067E+04  0.65000000000E+04  0.00000000000E+00 0.  1.
       22    1    1    2    0    0  0.55979476789E+03  0.21492559254E+04  0.61087911067E+04  0.65000000000E+04  0.00000000000E+00 0. -1.
</event>
<event>
 4   1  0.3671700E-05  0.8062258E+02  0.7546771E-02  0.1202337E+00
      -11   -1    0    0    0    0  0.00000000000E+00  0.00000000000E+00  0.65000000000E+04  0.65000000000E+04  0.00000000000E+00 0.  1.
       11   -1    0    0    0    0 -0.00000000000E+00 -0.00000000000E+00 -0.65000000000E+04  0.65000000000E+04  0.00000000000E+00 0. -1.
       22    1    1    2    0    0  0.12954817175E+04  0.11002239864E+03 -0.63686436697E+04  0.65000000000E+04  0.00000000000E+00 0. -1.
       22    1    1    2    0    0 -0.12954817175E+04 -0.11002239864E+03  0.63686436697E+04  0.65000000000E+04  0.00000000000E+00 0.  1.
</event>
<event>
 4   1  0.3671700E-05  0.8062258E+02  0.7546771E-02  0.1202337E+00
      -11   -1    0    0    0    0  0.00000000000E+00  0.00000000000E+00  0.65000000000E+04  0.65000000000E+04  0.00000000000E+00 0. -1.
       11   -1    0    0    0    0 -0.00000000000E+00 -0.00000000000E+00 -0.65000000000E+04  0.65000000000E+04  0.00000000000E+00 0.  1.
       22    1    1    2    0    0  0.26683469355E+03  0.61835925924E+04  0.19854424942E+04  0.65000000000E+04  0.00000000000E+00 0. -1.
       22    1    1    2    0    0 -0.26683469355E+03 -0.61835925924E+04 -0.19854424942E+04  0.65000000000E+04  0.00000000000E+00 0.  1.
</event>
<event>
 4   1  0.3671700E-05  0.8062258E+02  0.7546771E-02  0.1202337E+00
      -11   -1    0    0    0    0  0.00000000000E+00  0.00000000000E+00  0.65000000000E+04  0.65000000000E+04  0.00000000000E+00 0. -1.
       11   -1    0    0    0    0 -0.00000000000E+00 -0.00000000000E+00 -0.65000000000E+04  0.65000000000E+04  0.00000000000E+00 0.  1.
       22    1    1    2    0    0  0.52501992259E+04  0.86049103477E+03 -0.37342955517E+04  0.65000000000E+04  0.00000000000E+00 0.  1.
       22    1    1    2    0    0 -0.52501992259E+04 -0.86049103477E+03  0.37342955517E+04  0.65000000000E+04  0.00000000000E+00 0. -1.
</event>
<event>
 4   1  0.3671700E-05  0.8062258E+02  0.7546771E-02  0.1202337E+00
      -11   -1    0    0    0    0  0.00000000000E+00  0.00000000000E+00  0.65000000000E+04  0.65000000000E+04  0.00000000000E+00 0. -1.
       11   -1    0    0    0    0 -0.00000000000E+00 -0.00000000000E+00 -0.65000000000E+04  0.65000000000E+04  0.00000000000E+00 0.  1.
       22    1    1    2    0    0  0.33755373223E+04  0.16749732885E+04  0.52962451103E+04  0.65000000000E+04  0.00000000000E+00 0. -1.
       22    1    1    2    0    0 -0.33755373223E+04 -0.16749732885E+04 -0.52962451103E+04  0.65000000000E+04  0.00000000000E+00 0.  1.
</event>
<event>
 4   1  0.3671700E-05  0.8062258E+02  0.7546771E-02  0.1202337E+00
      -11   -1    0    0    0    0  0.00000000000E+00  0.00000000000E+00  0.65000000000E+04  0.65000000000E+04  0.00000000000E+00 0.  1.
       11   -1    0    0    0    0 -0.00000000000E+00 -0.00000000000E+00 -0.65000000000E+04  0.65000000000E+04  0.00000000000E+00 0. -1.
       22    1    1    2    0    0  0.59598381562E+04  0.25927601421E+04  0.89016840348E+02  0.65000000000E+04  0.00000000000E+00 0.  1.
       22    1    1    2    0    0 -0.59598381562E+04 -0.25927601421E+04 -0.89016840348E+02  0.65000000000E+04  0.00000000000E+00 0. -1.
</event>
<event>
 4   1  0.3671700E-05  0.8062258E+02  0.7546771E-02  0.1202337E+00
      -11   -1    0    0    0    0  0.00000000000E+00  0.00000000000E+00  0.65000000000E+04  0.65000000000E+04  0.00000000000E+00 0. -1.
       11   -1    0    0    0    0 -0.00000000000E+00 -0.00000000000E+00 -0.65000000000E+04  0.65000000000E+04  0.00000000000E+00 0.  1.
       22    1    1    2    0    0 -0.22446355842E+03 -0.38523426860E+04  0.52305900184E+04  0.65000000000E+04  0.00000000000E+00 0. -1.
       22    1    1    2    0    0  0.22446355842E+03  0.38523426860E+04 -0.52305900184E+04  0.65000000000E+04  0.00000000000E+00 0.  1.
</event>
<event>
 4   1  0.3671700E-05  0.8062258E+02  0.7546771E-02  0.1202337E+00
      -11   -1    0    0    0    0  0.00000000000E+00  0.00000000000E+00  0.65000000000E+04  0.65000000000E+04  0.00000000000E+00 0. -1.
       11   -1    0    0    0    0 -0.00000000000E+00 -0.00000000000E+00 -0.65000000000E+04  0.65000000000E+04  0.00000000000E+00 0.  1.
       22    1    1    2    0    0 -0.97204215991E+03 -0.36944740198E+04 -0.52588968193E+04  0.65000000000E+04  0.00000000000E+00 0.  1.
       22    1    1    2    0    0  0.97204215991E+03  0.36944740198E+04  0.52588968193E+04  0.65000000000E+04  0.00000000000E+00 0. -1.
</event>
<event>
 4   1  0.3671700E-05  0.8062258E+02  0.7546771E-02  0.1202337E+00
      -11   -1    0    0    0    0  0.00000000000E+00  0.00000000000E+00  0.65000000000E+04  0.65000000000E+04  0.00000000000E+00 0.  1.
       11   -1    0    0    0    0 -0.00000000000E+00 -0.00000000000E+00 -0.65000000000E+04  0.65000000000E+04  0.00000000000E+00 0. -1.
       22    1    1    2    0    0  0.96655335887E+03  0.85535582094E+03  0.63705683439E+04  0.65000000000E+04  0.00000000000E+00 0.  1.
       22    1    1    2    0    0 -0.96655335887E+03 -0.85535582094E+03 -0.63705683439E+04  0.65000000000E+04  0.00000000000E+00 0. -1.
</event>
<event>
 4   1  0.3671700E-05  0.8062258E+02  0.7546771E-02  0.1202337E+00
      -11   -1    0    0    0    0  0.00000000000E+00  0.00000000000E+00  0.65000000000E+04  0.65000000000E+04  0.00000000000E+00 0. -1.
       11   -1    0    0    0    0 -0.00000000000E+00 -0.00000000000E+00 -0.65000000000E+04  0.65000000000E+04  0.00000000000E+00 0.  1.
       22    1    1    2    0    0 -0.48744189569E+04  0.34892547779E+04  0.25129944145E+04  0.65000000000E+04  0.00000000000E+00 0.  1.
       22    1    1    2    0    0  0.48744189569E+04 -0.34892547779E+04 -0.25129944145E+04  0.65000000000E+04  0.00000000000E+00 0. -1.
</event>
<event>
 4   1  0.3671700E-05  0.8062258E+02  0.7546771E-02  0.1202337E+00
      -11   -1    0    0    0    0  0.00000000000E+00  0.00000000000E+00  0.65000000000E+04  0.65000000000E+04  0.00000000000E+00 0. -1.
       11   -1    0    0    0    0 -0.00000000000E+00 -0.00000000000E+00 -0.65000000000E+04  0.65000000000E+04  0.00000000000E+00 0.  1.
       22    1    1    2    0    0  0.26080637379E+04 -0.20819864862E+03  0.59501812461E+04  0.65000000000E+04  0.00000000000E+00 0. -1.
       22    1    1    2    0    0 -0.26080637379E+04  0.20819864862E+03 -0.59501812461E+04  0.65000000000E+04  0.00000000000E+00 0.  1.
</event>
<event>
 4   1  0.3671700E-05  0.8062258E+02  0.7546771E-02  0.1202337E+00
      -11   -1    0    0    0    0  0.00000000000E+00  0.00000000000E+00  0.65000000000E+04  0.65000000000E+04  0.00000000000E+00 0.  1.
       11   -1    0    0    0    0 -0.00000000000E+00 -0.00000000000E+00 -0.65000000000E+04  0.65000000000E+04  0.00000000000E+00 0. -1.
       22    1    1    2    0    0  0.27159755427E+04  0.45840932842E+03  0.58875578757E+04  0.65000000000E+04  0.00000000000E+00 0.  1.
       22    1    1    2    0    0 -0.27159755427E+04 -0.45840932842E+03 -0.58875578757E+04  0.65000000000E+04  0.00000000000E+00 0. -1.
</event>
<event>
 4   1  0.3671700E-05  0.8062258E+02  0.7546771E-02  0.1202337E+00
      -11   -1    0    0    0    0  0.00000000000E+00  0.00000000000E+00  0.65000000000E+04  0.65000000000E+04  0.00000000000E+00 0. -1.
       11   -1    0    0    0    0 -0.00000000000E+00 -0.00000000000E+00 -0.65000000000E+04  0.65000000000E+04  0.00000000000E+00 0.  1.
       22    1    1    2    0    0 -0.63746747573E+04  0.81340482554E+03  0.97565072044E+03  0.65000000000E+04  0.00000000000E+00 0.  1.
       22    1    1    2    0    0  0.63746747573E+04 -0.81340482554E+03 -0.97565072044E+03  0.65000000000E+04  0.00000000000E+00 0. -1.
</event>
<event>
 5   2  0.3671700E-05  0.7910736E+02  0.7546771E-02  0.1205856E+00
      -11   -1    0    0    0    0  0.00000000000E+00  0.00000000000E+00  0.65000000000E+04  0.65000000000E+04  0.00000000000E+00 0. -1.
       11   -1    0    0    0    0 -0.00000000000E+00 -0.00000000000E+00 -0.65000000000E+04  0.65000000000E+04  0.00000000000E+00 0.  1.
       22    1    1    2    0    0 -0.46430054163E+04 -0.31735663743E+04  0.26869194727E+04  0.62328612275E+04  0.00000000000E+00 0. -1.
       22    1    1    2    0    0 -0.86642798338E+02  0.32742985023E+03  0.33308607408E+03  0.47504064465E+03  0.00000000000E+00 0.  1.
       22    1    1    2    0    0  0.47296482146E+04  0.28461365241E+04 -0.30200055468E+04  0.62920981279E+04  0.00000000000E+00 0.  1.
</event>
<event>
 4   1  0.3671700E-05  0.8062258E+02  0.7546771E-02  0.1202337E+00
      -11   -1    0    0    0    0  0.00000000000E+00  0.00000000000E+00  0.65000000000E+04  0.65000000000E+04  0.00000000000E+00 0. -1.
       11   -1    0    0    0    0 -0.00000000000E+00 -0.00000000000E+00 -0.65000000000E+04  0.65000000000E+04  0.00000000000E+00 0.  1.
       22    1    1    2    0    0  0.93427327655E+03 -0.24146593935E+04  0.59620930434E+04  0.65000000000E+04  0.00000000000E+00 0. -1.
       22    1    1    2    0    0 -0.93427327655E+03  0.24146593935E+04 -0.59620930434E+04  0.65000000000E+04  0.00000000000E+00 0.  1.
</event>
<event>
 4   1  0.3671700E-05  0.8062258E+02  0.7546771E-02  0.1202337E+00
      -11   -1    0    0    0    0  0.00000000000E+00  0.00000000000E+00  0.65000000000E+04  0.65000000000E+04  0.00000000000E+00 0. -1.
       11   -1    0    0    0    0 -0.00000000000E+00 -0.00000000000E+00 -0.65000000000E+04  0.65000000000E+04  0.00000000000E+00 0.  1.
       22    1    1    2    0    0  0.79494328577E+03  0.17676546806E+04 -0.62043099618E+04  0.65000000000E+04  0.00000000000E+00 0.  1.
       22    1    1    2    0    0 -0.79494328577E+03 -0.17676546806E+04  0.62043099618E+04  0.65000000000E+04  0.00000000000E+00 0. -1.
</event>
<event>
 4   1  0.3671700E-05  0.8062258E+02  0.7546771E-02  0.1202337E+00
      -11   -1    0    0    0    0  0.00000000000E+00  0.00000000000E+00  0.65000000000E+04  0.65000000000E+04  0.00000000000E+00 0.  1.
       11   -1    0    0    0    0 -0.00000000000E+00 -0.00000000000E+00 -0.65000000000E+04  0.65000000000E+04  0.00000000000E+00 0. -1.
       22    1    1    2    0    0 -0.46840598520E+03 -0.20395101417E+04 -0.61539413561E+04  0.65000000000E+04  0.00000000000E+00 0. -1.
       22    1    1    2    0    0  0.46840598520E+03  0.20395101417E+04  0.61539413561E+04  0.65000000000E+04  0.00000000000E+00 0.  1.
</event>
<event>
 4   1  0.3671700E-05  0.8062258E+02  0.7546771E-02  0.1202337E+00
      -11   -1    0    0    0    0  0.00000000000E+00  0.00000000000E+00  0.65000000000E+04  0.65000000000E+04  0.00000000000E+00 0.  1.
       11   -1    0    0    0    0 -0.00000000000E+00 -0.00000000000E+00 -0.65000000000E+04  0.65000000000E+04  0.00000000000E+00 0. -1.
       22    1    1    2    0    0 -0.47027047186E+03  0.16723724226E+04  0.62635466122E+04  0.65000000000E+04  0.00000000000E+00 0.  1.
       22    1    1    2    0    0  0.47027047186E+03 -0.16723724226E+04 -0.62635466122E+04  0.65000000000E+04  0.00000000000E+00 0. -1.
</event>
<event>
 4   1  0.3671700E-05  0.8062258E+02  0.7546771E-02  0.1202337E+00
      -11   -1    0    0    0    0  0.00000000000E+00  0.00000000000E+00  0.65000000000E+04  0.65000000000E+04  0.00000000000E+00 0.  1.
       11   -1    0    0    0    0 -0.00000000000E+00 -0.00000000000E+00 -0.65000000000E+04  0.65000000000E+04  0.00000000000E+00 0. -1.
       22    1    1    2    0    0  0.50932983256E+03 -0.12250274999E+04  0.63631667231E+04  0.65000000000E+04  0.00000000000E+00 0.  1.
       22    1    1    2    0    0 -0.50932983256E+03  0.12250274999E+04 -0.63631667231E+04  0.65000000000E+04  0.00000000000E+00 0. -1.
</event>
<event>
 5   2  0.3671700E-05  0.8056860E+02  0.7546771E-02  0.1202461E+00
      -11   -1    0    0    0    0  0.00000000000E+00  0.00000000000E+00  0.65000000000E+04  0.65000000000E+04  0.00000000000E+00 0. -1.
       11   -1    0    0    0    0 -0.00000000000E+00 -0.00000000000E+00 -0.65000000000E+04  0.65000000000E+04  0.00000000000E+00 0.  1.
       22    1    1    2    0    0 -0.33001503535E+04  0.54804431251E+04  0.10633201785E+04  0.64851290662E+04  0.00000000000E+00 0.  1.
       22    1    1    2    0    0  0.41231204518E+01  0.16085853599E+02  0.51590155405E+01  0.17388796669E+02  0.00000000000E+00 0. -1.
       22    1    1    2    0    0  0.32960272331E+04 -0.54965289787E+04 -0.10684791940E+04  0.64974821372E+04  0.00000000000E+00 0. -1.
</event>
<event>
 4   1  0.3671700E-05  0.8062258E+02  0.7546771E-02  0.1202337E+00
      -11   -1    0    0    0    0  0.00000000000E+00  0.00000000000E+00  0.65000000000E+04  0.65000000000E+04  0.00000000000E+00 0.  1.
       11   -1    0    0    0    0 -0.00000000000E+00 -0.00000000000E+00 -0.65000000000E+04  0.65000000000E+04  0.00000000000E+00 0. -1.
       22    1    1    2    0    0 -0.62310576085E+04  0.15122013334E+03  0.18441945533E+04  0.65000000000E+04  0.00000000000E+00 0.  1.
       22    1    1    2    0    0  0.62310576085E+04 -0.15122013334E+03 -0.18441945533E+04  0.65000000000E+04  0.00000000000E+00 0. -1.
</event>
<event>
 5   2  0.3671700E-05  0.7778669E+02  0.7546771E-02  0.1208996E+00
      -11   -1    0    0    0    0  0.00000000000E+00  0.00000000000E+00  0.65000000000E+04  0.65000000000E+04  0.00000000000E+00 0. -1.
       11   -1    0    0    0    0 -0.00000000000E+00 -0.00000000000E+00 -0.65000000000E+04  0.65000000000E+04  0.00000000000E+00 0.  1.
       22    1    1    2    0    0  0.28656845071E+04  0.37761338431E+04 -0.32810010041E+04  0.57650934151E+04  0.00000000000E+00 0.  1.
       22    1    1    2    0    0 -0.27982970227E+04 -0.39614480150E+04  0.41257041254E+04  0.63674933163E+04  0.00000000000E+00 0. -1.
       22    1    1    2    0    0 -0.67387484439E+02  0.18531417182E+03 -0.84470312137E+03  0.86741326863E+03  0.00000000000E+00 0.  1.
</event>
<event>
 4   1  0.3671700E-05  0.8062258E+02  0.7546771E-02  0.1202337E+00
      -11   -1    0    0    0    0  0.00000000000E+00  0.00000000000E+00  0.65000000000E+04  0.65000000000E+04  0.00000000000E+00 0. -1.
       11   -1    0    0    0    0 -0.00000000000E+00 -0.00000000000E+00 -0.65000000000E+04  0.65000000000E+04  0.00000000000E+00 0.  1.
       22    1    1    2    0    0 -0.28848172347E+04  0.31876424816E+04 -0.48751169147E+04  0.65000000000E+04  0.00000000000E+00 0.  1.
       22    1    1    2    0    0  0.28848172347E+04 -0.31876424816E+04  0.48751169147E+04  0.65000000000E+04  0.00000000000E+00 0. -1.
</event>
<event>
 4   1  0.3671700E-05  0.8062258E+02  0.7546771E-02  0.1202337E+00
      -11   -1    0    0    0    0  0.00000000000E+00  0.00000000000E+00  0.65000000000E+04  0.65000000000E+04  0.00000000000E+00 0.  1.
       11   -1    0    0    0    0 -0.00000000000E+00 -0.00000000000E+00 -0.65000000000E+04  0.65000000000E+04  0.00000000000E+00 0. -1.
       22    1    1    2    0    0  0.54792662908E+04  0.23471574748E+04 -0.25920055369E+04  0.65000000000E+04  0.00000000000E+00 0.  1.
       22    1    1    2    0    0 -0.54792662908E+04 -0.23471574748E+04  0.25920055369E+04  0.65000000000E+04  0.00000000000E+00 0. -1.
</event>
<event>
 4   1  0.3671700E-05  0.8062258E+02  0.7546771E-02  0.1202337E+00
      -11   -1    0    0    0    0  0.00000000000E+00  0.00000000000E+00  0.65000000000E+04  0.65000000000E+04  0.00000000000E+00 0. -1.
       11   -1    0    0    0    0 -0.00000000000E+00 -0.00000000000E+00 -0.65000000000E+04  0.65000000000E+04  0.00000000000E+00 0.  1.
       22    1    1    2    0    0 -0.12211937346E+04  0.35101482101E+03  0.63745960231E+04  0.65000000000E+04  0.00000000000E+00 0. -1.
       22    1    1    2    0    0  0.12211937346E+04 -0.35101482101E+03 -0.63745960231E+04  0.65000000000E+04  0.00000000000E+00 0.  1.
</event>
<event>
 4   1  0.3671700E-05  0.8062258E+02  0.7546771E-02  0.1202337E+00
      -11   -1    0    0    0    0  0.00000000000E+00  0.00000000000E+00  0.65000000000E+04  0.65000000000E+04  0.00000000000E+00 0. -1.
       11   -1    0    0    0    0 -0.00000000000E+00 -0.00000000000E+00 -0.65000000000E+04  0.65000000000E+04  0.00000000000E+00 0.  1.
       22    1    1    2    0    0 -0.87755537296E+03  0.10199200359E+04 -0.63592184809E+04  0.65000000000E+04  0.00000000000E+00 0.  1.
       22    1    1    2    0    0  0.87755537296E+03 -0.10199200359E+04  0.63592184809E+04  0.65000000000E+04  0.00000000000E+00 0. -1.
</event>
<event>
 4   1  0.3671700E-05  0.8062258E+02  0.7546771E-02  0.1202337E+00
      -11   -1    0    0    0    0  0.00000000000E+00  0.00000000000E+00  0.65000000000E+04  0.65000000000E+04  0.00000000000E+00 0. -1.
       11   -1    0    0    0    0 -0.00000000000E+00 -0.00000000000E+00 -0.65000000000E+04  0.65000000000E+04  0.00000000000E+00 0.  1.
       22    1    1    2    0    0  0.42581367187E+03 -0.22631392589E+04  0.60783948055E+04  0.65000000000E+04  0.00000000000E+00 0. -1.
       22    1    1    2    0    0 -0.42581367187E+03  0.22631392589E+04 -0.60783948055E+04  0.65000000000E+04  0.00000000000E+00 0.  1.
</event>
<event>
 4   1  0.3671700E-05  0.8062258E+02  0.7546771E-02  0.1202337E+00
      -11   -1    0    0    0    0  0.00000000000E+00  0.00000000000E+00  0.65000000000E+04  0.65000000000E+04  0.00000000000E+00 0. -1.
       11   -1    0    0    0    0 -0.00000000000E+00 -0.00000000000E+00 -0.65000000000E+04  0.65000000000E+04  0.00000000000E+00 0.  1.
       22    1    1    2    0    0  0.29330358609E+03  0.10230685481E+04 -0.64122775792E+04  0.65000000000E+04  0.00000000000E+00 0.  1.
       22    1    1    2    0    0 -0.29330358609E+03 -0.10230685481E+04  0.64122775792E+04  0.65000000000E+04  0.00000000000E+00 0. -1.
</event>
<event>
 4   1  0.3671700E-05  0.8062258E+02  0.7546771E-02  0.1202337E+00
      -11   -1    0    0    0    0  0.00000000000E+00  0.00000000000E+00  0.65000000000E+04  0.65000000000E+04  0.00000000000E+00 0.  1.
       11   -1    0    0    0    0 -0.00000000000E+00 -0.00000000000E+00 -0.65000000000E+04  0.65000000000E+04  0.00000000000E+00 0. -1.
       22    1    1    2    0    0  0.39464370039E+04  0.83238310569E+03 -0.50973300207E+04  0.65000000000E+04  0.00000000000E+00 0. -1.
       22    1    1    2    0    0 -0.39464370039E+04 -0.83238310569E+03  0.50973300207E+04  0.65000000000E+04  0.00000000000E+00 0.  1.
</event>
<event>
 4   1  0.3671700E-05  0.8062258E+02  0.7546771E-02  0.1202337E+00
      -11   -1    0    0    0    0  0.00000000000E+00  0.00000000000E+00  0.65000000000E+04  0.65000000000E+04  0.00000000000E+00 0. -1.
       11   -1    0    0    0    0 -0.00000000000E+00 -0.00000000000E+00 -0.65000000000E+04  0.65000000000E+04  0.00000000000E+00 0.  1.
       22    1    1    2    0    0 -0.13206371625E+04 -0.51436433708E+04  0.37481796060E+04  0.65000000000E+04  0.00000000000E+00 0. -1.
       22    1    1    2    0    0  0.13206371625E+04  0.51436433708E+04 -0.37481796060E+04  0.65000000000E+04  0.00000000000E+00 0.  1.
</event>
<event>
 4   1  0.3671700E-05  0.8062258E+02  0.7546771E-02  0.1202337E+00
      -11   -1    0    0    0    0  0.00000000000E+00  0.00000000000E+00  0.65000000000E+04  0.65000000000E+04  0.00000000000E+00 0. -1.
       11   -1    0    0    0    0 -0.00000000000E+00 -0.00000000000E+00 -0.65000000000E+04  0.65000000000E+04  0.00000000000E+00 0.  1.
       22    1    1    2    0    0  0.17971649748E+04  0.27055861998E+04 -0.56302754256E+04  0.65000000000E+04  0.00000000000E+00 0.  1.
       22    1    1    2    0    0 -0.17971649748E+04 -0.27055861998E+04  0.56302754256E+04  0.65000000000E+04  0.00000000000E+00 0. -1.
</event>
<event>
 4   1  0.3671700E-05  0.8062258E+02  0.7546771E-02  0.1202337E+00
      -11   -1    0    0    0    0  0.00000000000E+00  0.00000000000E+00  0.65000000000E+04  0.65000000000E+04  0.00000000000E+00 0. -1.
       11   -1    0    0    0    0 -0.00000000000E+00 -0.00000000000E+00 -0.65000000000E+04  0.65000000000E+04  0.00000000000E+00 0.  1.
       22    1    1    2    0    0  0.16678037376E+04  0.53874441119E+02 -0.62821595202E+04  0.65000000000E+04  0.00000000000E+00 0.  1.
       22    1    1    2    0    0 -0.16678037376E+04 -0.53874441119E+02  0.62821595202E+04  0.65000000000E+04  0.00000000000E+00 0. -1.
</event>
<event>
 4   1  0.3671700E-05  0.8062258E+02  0.7546771E-02  0.1202337E+00
      -11   -1    0    0    0    0  0.00000000000E+00  0.00000000000E+00  0.65000000000E+04  0.65000000000E+04  0.00000000000E+00 0. -1.
       11   -1    0    0    0    0 -0.00000000000E+00 -0.00000000000E+00 -0.65000000000E+04  0.65000000000E+04  0.00000000000E+00 0.  1.
       22    1    1    2    0    0  0.21008346736E+04  0.18726128899E+04  0.58591650121E+04  0.65000000000E+04  0.00000000000E+00 0. -1.
       22    1    1    2    0    0 -0.21008346736E+04 -0.18726128899E+04 -0.58591650121E+04  0.65000000000E+04  0.00000000000E+00 0.  1.
</event>
<event>
 4   1  0.3671700E-05  0.8062258E+02  0.7546771E-02  0.1202337E+00
      -11   -1    0    0    0    0  0.00000000000E+00  0.00000000000E+00  0.65000000000E+04  0.65000000000E+04  0.00000000000E+00 0.  1.
       11   -1    0    0    0    0 -0.00000000000E+00 -0.00000000000E+00 -0.65000000000E+04  0.65000000000E+04  0.00000000000E+00 0. -1.
       22    1    1    2    0    0 -0.10002824514E+04  0.16056228941E+04 -0.62186341056E+04  0.65000000000E+04  0.00000000000E+00 0. -1.
       22    1    1    2    0    0  0.10002824514E+04 -0.16056228941E+04  0.62186341056E+04  0.65000000000E+04  0.00000000000E+00 0.  1.
</event>
<event>
 4   1  0.3671700E-05  0.8062258E+02  0.7546771E-02  0.1202337E+00
      -11   -1    0    0    0    0  0.00000000000E+00  0.00000000000E+00  0.65000000000E+04  0.65000000000E+04  0.00000000000E+00 0. -1.
       11   -1    0    0    0    0 -0.00000000000E+00 -0.00000000000E+00 -0.65000000000E+04  0.65000000000E+04  0.00000000000E+00 0.  1.
       22    1    1    2    0    0 -0.17300223954E+04  0.26572114701E+04  0.56741739235E+04  0.65000000000E+04  0.00000000000E+00 0. -1.
       22    1    1    2    0    0  0.17300223954E+04 -0.26572114701E+04 -0.56741739235E+04  0.65000000000E+04  0.00000000000E+00 0.  1.
</event>
<event>
 4   1  0.3671700E-05  0.8062258E+02  0.7546771E-02  0.1202337E+00
      -11   -1    0    0    0    0  0.00000000000E+00  0.00000000000E+00  0.65000000000E+04  0.65000000000E+04  0.00000000000E+00 0. -1.
       11   -1    0    0    0    0 -0.00000000000E+00 -0.00000000000E+00 -0.65000000000E+04  0.65000000000E+04  0.00000000000E+00 0.  1.
       22    1    1    2    0    0  0.33367248218E+04 -0.17933269935E+04 -0.52820683220E+04  0.65000000000E+04  0.00000000000E+00 0.  1.
       22    1    1    2    0    0 -0.33367248218E+04  0.17933269935E+04  0.52820683220E+04  0.65000000000E+04  0.00000000000E+00 0. -1.
</event>
<event>
 4   1  0.3671700E-05  0.8062258E+02  0.7546771E-02  0.1202337E+00
      -11   -1    0    0    0    0  0.00000000000E+00  0.00000000000E+00  0.65000000000E+04  0.65000000000E+04  0.00000000000E+00 0.  1.
       11   -1    0    0    0    0 -0.00000000000E+00 -0.00000000000E+00 -0.65000000000E+04  0.65000000000E+04  0.00000000000E+00 0. -1.
       22    1    1    2    0    0 -0.25111136505E+04 -0.63589066387E+03  0.59615393396E+04  0.65000000000E+04  0.00000000000E+00 0.  1.
       22    1    1    2    0    0  0.25111136505E+04  0.63589066387E+03 -0.59615393396E+04  0.65000000000E+04  0.00000000000E+00 0. -1.
</event>
<event>
 4   1  0.3671700E-05  0.8062258E+02  0.7546771E-02  0.1202337E+00
      -11   -1    0    0    0    0  0.00000000000E+00  0.00000000000E+00  0.65000000000E+04  0.65000000000E+04  0.00000000000E+00 0.  1.
       11   -1    0    0    0    0 -0.00000000000E+00 -0.00000000000E+00 -0.65000000000E+04  0.65000000000E+04  0.00000000000E+00 0. -1.
       22    1    1    2    0    0 -0.41934382854E+04  0.27281308091E+04 -0.41499852572E+04  0.65000000000E+04  0.00000000000E+00 0. -1.
       22    1    1    2    0    0  0.41934382854E+04 -0.27281308091E+04  0.41499852572E+04  0.65000000000E+04  0.00000000000E+00 0.  1.
</event>
<event>
 4   1  0.3671700E-05  0.8062258E+02  0.7546771E-02  0.1202337E+00
      -11   -1    0    0    0    0  0.00000000000E+00  0.00000000000E+00  0.65000000000E+04  0.65000000000E+04  0.00000000000E+00 0.  1.
       11   -1    0    0    0    0 -0.00000000000E+00 -0.00000000000E+00 -0.65000000000E+04  0.65000000000E+04  0.00000000000E+00 0. -1.
       22    1    1    2    0    0  0.82686930139E+03 -0.56450324752E+04  0.31144655259E+04  0.65000000000E+04  0.00000000000E+00 0.  1.
       22    1    1    2    0    0 -0.82686930139E+03  0.56450324752E+04 -0.31144655259E+04  0.65000000000E+04  0.00000000000E+00 0. -1.
</event>
<event>
 4   1  0.3671700E-05  0.8062258E+02  0.7546771E-02  0.1202337E+00
      -11   -1    0    0    0    0  0.00000000000E+00  0.00000000000E+00  0.65000000000E+04  0.65000000000E+04  0.00000000000E+00 0. -1.
       11   -1    0    0    0    0 -0.00000000000E+00 -0.00000000000E+00 -0.65000000000E+04  0.65000000000E+04  0.00000000000E+00 0.  1.
       22    1    1    2    0    0  0.13164767291E+04 -0.99307173955E+02 -0.63645131084E+04  0.65000000000E+04  0.00000000000E+00 0.  1.
       22    1    1    2    0    0 -0.13164767291E+04  0.99307173955E+02  0.63645131084E+04  0.65000000000E+04  0.00000000000E+00 0. -1.
</event>
<event>
 4   1  0.3671700E-05  0.8062258E+02  0.7546771E-02  0.1202337E+00
      -11   -1    0    0    0    0  0.00000000000E+00  0.00000000000E+00  0.65000000000E+04  0.65000000000E+04  0.00000000000E+00 0. -1.
       11   -1    0    0    0    0 -0.00000000000E+00 -0.00000000000E+00 -0.65000000000E+04  0.65000000000E+04  0.00000000000E+00 0.  1.
       22    1    1    2    0    0  0.14362925768E+04  0.30184158642E+04  0.55746057533E+04  0.65000000000E+04  0.00000000000E+00 0. -1.
       22    1    1    2    0    0 -0.14362925768E+04 -0.30184158642E+04 -0.55746057533E+04  0.65000000000E+04  0.00000000000E+00 0.  1.
</event>
<event>
 4   1  0.3671700E-05  0.8062258E+02  0.7546771E-02  0.1202337E+00
      -11   -1    0    0    0    0  0.00000000000E+00  0.00000000000E+00  0.65000000000E+04  0.65000000000E+04  0.00000000000E+00 0.  1.
       11   -1    0    0    0    0 -0.00000000000E+00 -0.00000000000E+00 -0.65000000000E+04  0.65000000000E+04  0.00000000000E+00 0. -1.
       22    1    1    2    0    0  0.56195506694E+04 -0.90316206252E+03  0.31392592379E+04  0.65000000000E+04  0.00000000000E+00 0.  1.
       22    1    1    2    0    0 -0.56195506694E+04  0.90316206252E+03 -0.31392592379E+04  0.65000000000E+04  0.00000000000E+00 0. -1.
</event>
<event>
 4   1  0.3671700E-05  0.8062258E+02  0.7546771E-02  0.1202337E+00
      -11   -1    0    0    0    0  0.00000000000E+00  0.00000000000E+00  0.65000000000E+04  0.65000000000E+04  0.00000000000E+00 0. -1.
       11   -1    0    0    0    0 -0.00000000000E+00 -0.00000000000E+00 -0.65000000000E+04  0.65000000000E+04  0.00000000000E+00 0.  1.
       22    1    1    2    0    0  0.42477636303E+03  0.16264355629E+04  0.62788750904E+04  0.65000000000E+04  0.00000000000E+00 0. -1.
       22    1    1    2    0    0 -0.42477636303E+03 -0.16264355629E+04 -0.62788750904E+04  0.65000000000E+04  0.00000000000E+00 0.  1.
</event>
<event>
 4   1  0.3671700E-05  0.8062258E+02  0.7546771E-02  0.1202337E+00
      -11   -1    0    0    0    0  0.00000000000E+00  0.00000000000E+00  0.65000000000E+04  0.65000000000E+04  0.00000000000E+00 0. -1.
       11   -1    0    0    0    0 -0.00000000000E+00 -0.00000000000E+00 -0.65000000000E+04  0.65000000000E+04  0.00000000000E+00 0.  1.
       22    1    1    2    0    0 -0.10927239455E+04 -0.39530503920E+03  0.63952864131E+04  0.65000000000E+04  0.00000000000E+00 0. -1.
       22    1    1    2    0    0  0.10927239455E+04  0.39530503920E+03 -0.63952864131E+04  0.65000000000E+04  0.00000000000E+00 0.  1.
</event>
<event>
 4   1  0.3671700E-05  0.8062258E+02  0.7546771E-02  0.1202337E+00
      -11   -1    0    0    0    0  0.00000000000E+00  0.00000000000E+00  0.65000000000E+04  0.65000000000E+04  0.00000000000E+00 0. -1.
       11   -1    0    0    0    0 -0.00000000000E+00 -0.00000000000E+00 -0.65000000000E+04  0.65000000000E+04  0.00000000000E+00 0.  1.
       22    1    1    2    0    0  0.57140408308E+04  0.21701716479E+04 -0.22113553316E+04  0.65000000000E+04  0.00000000000E+00 0.  1.
       22    1    1    2    0    0 -0.57140408308E+04 -0.21701716479E+04  0.22113553316E+04  0.65000000000E+04  0.00000000000E+00 0. -1.
</event>
<event>
 5   2  0.3671700E-05  0.7999910E+02  0.7546771E-02  0.1203775E+00
      -11   -1    0    0    0    0  0.00000000000E+00  0.00000000000E+00  0.65000000000E+04  0.65000000000E+04  0.00000000000E+00 0.  1.
       11   -1    0    0    0    0 -0.00000000000E+00 -0.00000000000E+00 -0.65000000000E+04  0.65000000000E+04  0.00000000000E+00 0. -1.
       22    1    1    2    0    0 -0.40962413223E+04 -0.48161817836E+04 -0.97826383462E+03  0.63977965014E+04  0.00000000000E+00 0. -1.
       22    1    1    2    0    0  0.42288185048E+02  0.51832601374E-01 -0.19419256825E+03  0.19874367121E+03  0.00000000000E+00 0. -1.
       22    1    1    2    0    0  0.40539531372E+04  0.48161299510E+04  0.11724564029E+04  0.64034598274E+04  0.00000000000E+00 0.  1.
</event>
<event>
 4   1  0.3671700E-05  0.8062258E+02  0.7546771E-02  0.1202337E+00
      -11   -1    0    0    0    0  0.00000000000E+00  0.00000000000E+00  0.65000000000E+04  0.65000000000E+04  0.00000000000E+00 0. -1.
       11   -1    0    0    0    0 -0.00000000000E+00 -0.00000000000E+00 -0.65000000000E+04  0.65000000000E+04  0.00000000000E+00 0.  1.
       22    1    1    2    0    0 -0.26332138232E+04 -0.34875682085E+04  0.48117619384E+04  0.65000000000E+04  0.00000000000E+00 0. -1.
       22    1    1    2    0    0  0.26332138232E+04  0.34875682085E+04 -0.48117619384E+04  0.65000000000E+04  0.00000000000E+00 0.  1.
</event>
<event>
 4   1  0.3671700E-05  0.8062258E+02  0.7546771E-02  0.1202337E+00
      -11   -1    0    0    0    0  0.00000000000E+00  0.00000000000E+00  0.65000000000E+04  0.65000000000E+04  0.00000000000E+00 0. -1.
       11   -1    0    0    0    0 -0.00000000000E+00 -0.00000000000E+00 -0.65000000000E+04  0.65000000000E+04  0.00000000000E+00 0.  1.
       22    1    1    2    0    0 -0.41966151134E+04  0.47411147754E+04  0.14697796694E+04  0.65000000000E+04  0.00000000000E+00 0. -1.
       22    1    1    2    0    0  0.41966151134E+04 -0.47411147754E+04 -0.14697796694E+04  0.65000000000E+04  0.00000000000E+00 0.  1.
</event>
<event>
 4   1  0.3671700E-05  0.8062258E+02  0.7546771E-02  0.1202337E+00
      -11   -1    0    0    0    0  0.00000000000E+00  0.00000000000E+00  0.65000000000E+04  0.65000000000E+04  0.00000000000E+00 0.  1.
       11   -1    0    0    0    0 -0.00000000000E+00 -0.00000000000E+00 -0.65000000000E+04  0.65000000000E+04  0.00000000000E+00 0. -1.
       22    1    1    2    0    0  0.12648187170E+04 -0.14100016204E+04 -0.62178878282E+04  0.65000000000E+04  0.00000000000E+00 0. -1.
       22    1    1    2    0    0 -0.12648187170E+04  0.14100016204E+04  0.62178878282E+04  0.65000000000E+04  0.00000000000E+00 0.  1.
</event>
<event>
 4   1  0.3671700E-05  0.8062258E+02  0.7546771E-02  0.1202337E+00
      -11   -1    0    0    0    0  0.00000000000E+00  0.00000000000E+00  0.65000000000E+04  0.65000000000E+04  0.00000000000E+00 0.  1.
       11   -1    0    0    0    0 -0.00000000000E+00 -0.00000000000E+00 -0.65000000000E+04  0.65000000000E+04  0.00000000000E+00 0. -1.
       22    1    1    2    0    0 -0.34003970872E+04  0.52134526320E+04  0.18727550036E+04  0.65000000000E+04  0.00000000000E+00 0.  1.
       22    1    1    2    0    0  0.34003970872E+04 -0.52134526320E+04 -0.18727550036E+04  0.65000000000E+04  0.00000000000E+00 0. -1.
</event>
<event>
 4   1  0.3671700E-05  0.8062258E+02  0.7546771E-02  0.1202337E+00
      -11   -1    0    0    0    0  0.00000000000E+00  0.00000000000E+00  0.65000000000E+04  0.65000000000E+04  0.00000000000E+00 0. -1.
       11   -1    0    0    0    0 -0.00000000000E+00 -0.00000000000E+00 -0.65000000000E+04  0.65000000000E+04  0.00000000000E+00 0.  1.
       22    1    1    2    0    0  0.10466757490E+04  0.22244791471E+04  0.60171556736E+04  0.65000000000E+04  0.00000000000E+00 0. -1.
       22    1    1    2    0    0 -0.10466757490E+04 -0.22244791471E+04 -0.60171556736E+04  0.65000000000E+04  0.00000000000E+00 0.  1.
</event>
<event>
 4   1  0.3671700E-05  0.8062258E+02  0.7546771E-02  0.1202337E+00
      -11   -1    0    0    0    0  0.00000000000E+00  0.00000000000E+00  0.65000000000E+04  0.65000000000E+04  0.00000000000E+00 0. -1.
       11   -1    0    0    0    0 -0.00000000000E+00 -0.00000000000E+00 -0.65000000000E+04  0.65000000000E+04  0.00000000000E+00 0.  1.
       22    1    1    2    0    0  0.16521798566E+03  0.32296001107E+04  0.56384737423E+04  0.65000000000E+04  0.00000000000E+00 0. -1.
       22    1    1    2    0    0 -0.16521798566E+03 -0.32296001107E+04 -0.56384737423E+04  0.65000000000E+04  0.00000000000E+00 0.  1.
</event>
<event>
 4   1  0.3671700E-05  0.8062258E+02  0.7546771E-02  0.1202337E+00
      -11   -1    0    0    0    0  0.00000000000E+00  0.00000000000E+00  0.65000000000E+04  0.65000000000E+04  0.00000000000E+00 0.  1.
       11   -1    0    0    0    0 -0.00000000000E+00 -0.00000000000E+00 -0.65000000000E+04  0.65000000000E+04  0.00000000000E+00 0. -1.
       22    1    1    2    0    0  0.15886231324E+04 -0.46620534716E+04 -0.42416428387E+04  0.65000000000E+04  0.00000000000E+00 0. -1.
       22    1    1    2    0    0 -0.15886231324E+04  0.46620534716E+04  0.42416428387E+04  0.65000000000E+04  0.00000000000E+00 0.  1.
</event>
<event>
 4   1  0.3671700E-05  0.8062258E+02  0.7546771E-02  0.1202337E+00
      -11   -1    0    0    0    0  0.00000000000E+00  0.00000000000E+00  0.65000000000E+04  0.65000000000E+04  0.00000000000E+00 0.  1.
       11   -1    0    0    0    0 -0.00000000000E+00 -0.00000000000E+00 -0.65000000000E+04  0.65000000000E+04  0.00000000000E+00 0. -1.
       22    1    1    2    0    0  0.13421415943E+04  0.11811111294E+04  0.62492905550E+04  0.65000000000E+04  0.00000000000E+00 0.  1.
       22    1    1    2    0    0 -0.13421415943E+04 -0.11811111294E+04 -0.62492905550E+04  0.65000000000E+04  0.00000000000E+00 0. -1.
</event>
<event>
 4   1  0.3671700E-05  0.8062258E+02  0.7546771E-02  0.1202337E+00
      -11   -1    0    0    0    0  0.00000000000E+00  0.00000000000E+00  0.65000000000E+04  0.65000000000E+04  0.00000000000E+00 0. -1.
       11   -1    0    0    0    0 -0.00000000000E+00 -0.00000000000E+00 -0.65000000000E+04  0.65000000000E+04  0.00000000000E+00 0.  1.
       22    1    1    2    0    0 -0.40911092445E+03 -0.24502223163E+04 -0.60065829598E+04  0.65000000000E+04  0.00000000000E+00 0.  1.
       22    1    1    2    0    0  0.40911092445E+03  0.24502223163E+04  0.60065829598E+04  0.65000000000E+04  0.00000000000E+00 0. -1.
</event>
<event>
 4   1  0.3671700E-05  0.8062258E+02  0.7546771E-02  0.1202337E+00
      -11   -1    0    0    0    0  0.00000000000E+00  0.00000000000E+00  0.65000000000E+04  0.65000000000E+04  0.00000000000E+00 0.  1.
       11   -1    0    0    0    0 -0.00000000000E+00 -0.00000000000E+00 -0.65000000000E+04  0.65000000000E+04  0.00000000000E+00 0. -1.
       22    1    1    2    0    0 -0.50341130286E+03 -0.14642112519E+04  0.63128965198E+04  0.65000000000E+04  0.00000000000E+00 0.  1.
       22    1    1    2    0    0  0.50341130286E+03  0.14642112519E+04 -0.63128965198E+04  0.65000000000E+04  0.00000000000E+00 0. -1.
</event>
<event>
 4   1  0.3671700E-05  0.8062258E+02  0.7546771E-02  0.1202337E+00
      -11   -1    0    0    0    0  0.00000000000E+00  0.00000000000E+00  0.65000000000E+04  0.65000000000E+04  0.00000000000E+00 0. -1.
       11   -1    0    0    0    0 -0.00000000000E+00 -0.00000000000E+00 -0.65000000000E+04  0.65000000000E+04  0.00000000000E+00 0.  1.
       22    1    1    2    0    0 -0.19391646413E+04 -0.33432572147E+04 -0.52261143970E+04  0.65000000000E+04  0.00000000000E+00 0.  1.
       22    1    1    2    0    0  0.19391646413E+04  0.33432572147E+04  0.52261143970E+04  0.65000000000E+04  0.00000000000E+00 0. -1.
</event>
<event>
 4   1  0.3671700E-05  0.8062258E+02  0.7546771E-02  0.1202337E+00
      -11   -1    0    0    0    0  0.00000000000E+00  0.00000000000E+00  0.65000000000E+04  0.65000000000E+04  0.00000000000E+00 0.  1.
       11   -1    0    0    0    0 -0.00000000000E+00 -0.00000000000E+00 -0.65000000000E+04  0.65000000000E+04  0.00000000000E+00 0. -1.
       22    1    1    2    0    0  0.31293984892E+04 -0.49533584717E+04 -0.28144457619E+04  0.65000000000E+04  0.00000000000E+00 0. -1.
       22    1    1    2    0    0 -0.31293984892E+04  0.49533584717E+04  0.28144457619E+04  0.65000000000E+04  0.00000000000E+00 0.  1.
</event>
<event>
 4   1  0.3671700E-05  0.8062258E+02  0.7546771E-02  0.1202337E+00
      -11   -1    0    0    0    0  0.00000000000E+00  0.00000000000E+00  0.65000000000E+04  0.65000000000E+04  0.00000000000E+00 0. -1.
       11   -1    0    0    0    0 -0.00000000000E+00 -0.00000000000E+00 -0.65000000000E+04  0.65000000000E+04  0.00000000000E+00 0.  1.
       22    1    1    2    0    0  0.19509131808E+04  0.61727612476E+04 -0.58391466891E+03  0.65000000000E+04  0.00000000000E+00 0. -1.
       22    1    1    2    0    0 -0.19509131808E+04 -0.61727612476E+04  0.58391466891E+03  0.65000000000E+04  0.00000000000E+00 0.  1.
</event>
<event>
 4   1  0.3671700E-05  0.8062258E+02  0.7546771E-02  0.1202337E+00
      -11   -1    0    0    0    0  0.00000000000E+00  0.00000000000E+00  0.65000000000E+04  0.65000000000E+04  0.00000000000E+00 0. -1.
       11   -1    0    0    0    0 -0.00000000000E+00 -0.00000000000E+00 -0.65000000000E+04  0.65000000000E+04  0.00000000000E+00 0.  1.
       22    1    1    2    0    0 -0.14773520853E+04  0.76724045864E+03 -0.62832135802E+04  0.65000000000E+04  0.00000000000E+00 0.  1.
       22    1    1    2    0    0  0.14773520853E+04 -0.76724045864E+03  0.62832135802E+04  0.65000000000E+04  0.00000000000E+00 0. -1.
</event>
<event>
 4   1  0.3671700E-05  0.8062258E+02  0.7546771E-02  0.1202337E+00
      -11   -1    0    0    0    0  0.00000000000E+00  0.00000000000E+00  0.65000000000E+04  0.65000000000E+04  0.00000000000E+00 0. -1.
       11   -1    0    0    0    0 -0.00000000000E+00 -0.00000000000E+00 -0.65000000000E+04  0.65000000000E+04  0.00000000000E+00 0.  1.
       22    1    1    2    0    0 -0.42540846030E+03  0.24163248868E+04  0.60191695177E+04  0.65000000000E+04  0.00000000000E+00 0. -1.
       22    1    1    2    0    0  0.42540846030E+03 -0.24163248868E+04 -0.60191695177E+04  0.65000000000E+04  0.00000000000E+00 0.  1.
</event>
<event>
 5   2  0.3671700E-05  0.8018318E+02  0.7546771E-02  0.1203349E+00
      -11   -1    0    0    0    0  0.00000000000E+00  0.00000000000E+00  0.65000000000E+04  0.65000000000E+04  0.00000000000E+00 0.  1.
       11   -1    0    0    0    0 -0.00000000000E+00 -0.00000000000E+00 -0.65000000000E+04  0.65000000000E+04  0.00000000000E+00 0. -1.
       22    1    1    2    0    0  0.13240647255E+03 -0.31679017414E+02  0.34906532495E+02  0.14054714557E+03  0.00000000000E+00 0.  1.
       22    1    1    2    0    0 -0.26021530103E+04 -0.66468282216E+03  0.58513084410E+04  0.64382306587E+04  0.00000000000E+00 0.  1.
       22    1    1    2    0    0  0.24697465378E+04  0.69636183958E+03 -0.58862149735E+04  0.64212221957E+04  0.00000000000E+00 0. -1.
</event>
<event>
 4   1  0.3671700E-05  0.8062258E+02  0.7546771E-02  0.1202337E+00
      -11   -1    0    0    0    0  0.00000000000E+00  0.00000000000E+00  0.65000000000E+04  0.65000000000E+04  0.00000000000E+00 0.  1.
       11   -1    0    0    0    0 -0.00000000000E+00 -0.00000000000E+00 -0.65000000000E+04  0.65000000000E+04  0.00000000000E+00 0. -1.
       22    1    1    2    0    0  0.53016788860E+04 -0.13831611911E+04 -0.34970081655E+04  0.65000000000E+04  0.00000000000E+00 0. -1.
       22    1    1    2    0    0 -0.53016788860E+04  0.13831611911E+04  0.34970081655E+04  0.65000000000E+04  0.00000000000E+00 0.  1.
</event>
<event>
 4   1  0.3671700E-05  0.8062258E+02  0.7546771E-02  0.1202337E+00
      -11   -1    0    0    0    0  0.00000000000E+00  0.00000000000E+00  0.65000000000E+04  0.65000000000E+04  0.00000000000E+00 0. -1.
       11   -1    0    0    0    0 -0.00000000000E+00 -0.00000000000E+00 -0.65000000000E+04  0.65000000000E+04  0.00000000000E+00 0.  1.
       22    1    1    2    0    0 -0.54018213491E+03 -0.50053625722E+04  0.41115141715E+04  0.65000000000E+04  0.00000000000E+00 0. -1.
       22    1    1    2    0    0  0.54018213491E+03  0.50053625722E+04 -0.41115141715E+04  0.65000000000E+04  0.00000000000E+00 0.  1.
</event>
<event>
 4   1  0.3671700E-05  0.8062258E+02  0.7546771E-02  0.1202337E+00
      -11   -1    0    0    0    0  0.00000000000E+00  0.00000000000E+00  0.65000000000E+04  0.65000000000E+04  0.00000000000E+00 0. -1.
       11   -1    0    0    0    0 -0.00000000000E+00 -0.00000000000E+00 -0.65000000000E+04  0.65000000000E+04  0.00000000000E+00 0.  1.
       22    1    1    2    0    0  0.50963787684E+04  0.55927820537E+03 -0.39955139017E+04  0.65000000000E+04  0.00000000000E+00 0.  1.
       22    1    1    2    0    0 -0.50963787684E+04 -0.55927820537E+03  0.39955139017E+04  0.65000000000E+04  0.00000000000E+00 0. -1.
</event>
<event>
 4   1  0.3671700E-05  0.8062258E+02  0.7546771E-02  0.1202337E+00
      -11   -1    0    0    0    0  0.00000000000E+00  0.00000000000E+00  0.65000000000E+04  0.65000000000E+04  0.00000000000E+00 0.  1.
       11   -1    0    0    0    0 -0.00000000000E+00 -0.00000000000E+00 -0.65000000000E+04  0.65000000000E+04  0.00000000000E+00 0. -1.
       22    1    1    2    0    0 -0.26843897451E+04  0.56599433893E+04 -0.17346736079E+04  0.65000000000E+04  0.00000000000E+00 0. -1.
       22    1    1    2    0    0  0.26843897451E+04 -0.56599433893E+04  0.17346736079E+04  0.65000000000E+04  0.00000000000E+00 0.  1.
</event>
<event>
 4   1  0.3671700E-05  0.8062258E+02  0.7546771E-02  0.1202337E+00
      -11   -1    0    0    0    0  0.00000000000E+00  0.00000000000E+00  0.65000000000E+04  0.65000000000E+04  0.00000000000E+00 0. -1.
       11   -1    0    0    0    0 -0.00000000000E+00 -0.00000000000E+00 -0.65000000000E+04  0.65000000000E+04  0.00000000000E+00 0.  1.
       22    1    1    2    0    0 -0.11582457455E+04 -0.60610526682E+04  0.20425737065E+04  0.65000000000E+04  0.00000000000E+00 0. -1.
       22    1    1    2    0    0  0.11582457455E+04  0.60610526682E+04 -0.20425737065E+04  0.65000000000E+04  0.00000000000E+00 0.  1.
</event>
<event>
 4   1  0.3671700E-05  0.8062258E+02  0.7546771E-02  0.1202337E+00
      -11   -1    0    0    0    0  0.00000000000E+00  0.00000000000E+00  0.65000000000E+04  0.65000000000E+04  0.00000000000E+00 0. -1.
       11   -1    0    0    0    0 -0.00000000000E+00 -0.00000000000E+00 -0.65000000000E+04  0.65000000000E+04  0.00000000000E+00 0.  1.
       22    1    1    2    0    0  0.52992268771E+04 -0.37432400181E+04 -0.39540949960E+03  0.65000000000E+04  0.00000000000E+00 0. -1.
       22    1    1    2    0    0 -0.52992268771E+04  0.37432400181E+04  0.39540949960E+03  0.65000000000E+04  0.00000000000E+00 0.  1.
</event>
<event>
 4   1  0.3671700E-05  0.8062258E+02  0.7546771E-02  0.1202337E+00
      -11   -1    0    0    0    0  0.00000000000E+00  0.00000000000E+00  0.65000000000E+04  0.65000000000E+04  0.00000000000E+00 0. -1.
       11   -1    0    0    0    0 -0.00000000000E+00 -0.00000000000E+00 -0.65000000000E+04  0.65000000000E+04  0.00000000000E+00 0.  1.
       22    1    1    2    0    0  0.77658390796E+03 -0.81171191580E+03 -0.64021903439E+04  0.65000000000E+04  0.00000000000E+00 0.  1.
       22    1    1    2    0    0 -0.77658390796E+03  0.81171191580E+03  0.64021903439E+04  0.65000000000E+04  0.00000000000E+00 0. -1.
</event>
<event>
 4   1  0.3671700E-05  0.8062258E+02  0.7546771E-02  0.1202337E+00
      -11   -1    0    0    0    0  0.00000000000E+00  0.00000000000E+00  0.65000000000E+04  0.65000000000E+04  0.00000000000E+00 0. -1.
       11   -1    0    0    0    0 -0.00000000000E+00 -0.00000000000E+00 -0.65000000000E+04  0.65000000000E+04  0.00000000000E+00 0.  1.
       22    1    1    2    0    0 -0.28588229157E+04 -0.45595971966E+02  0.58373840497E+04  0.65000000000E+04  0.00000000000E+00 0. -1.
       22    1    1    2    0    0  0.28588229157E+04  0.45595971966E+02 -0.58373840497E+04  0.65000000000E+04  0.00000000000E+00 0.  1.
</event>
<event>
 4   1  0.3671700E-05  0.8062258E+02  0.7546771E-02  0.1202337E+00
      -11   -1    0    0    0    0  0.00000000000E+00  0.00000000000E+00  0.65000000000E+04  0.65000000000E+04  0.00000000000E+00 0.  1.
       11   -1    0    0    0    0 -0.00000000000E+00 -0.00000000000E+00 -0.65000000000E+04  0.65000000000E+04  0.00000000000E+00 0. -1.
       22    1    1    2    0    0 -0.34740297502E+04 -0.35690283298E+04  0.41765002185E+04  0.65000000000E+04  0.00000000000E+00 0.  1.
       22    1    1    2    0    0  0.34740297502E+04  0.35690283298E+04 -0.41765002185E+04  0.65000000000E+04  0.00000000000E+00 0. -1.
</event>
<event>
 4   1  0.3671700E-05  0.8062258E+02  0.7546771E-02  0.1202337E+00
      -11   -1    0    0    0    0  0.00000000000E+00  0.00000000000E+00  0.65000000000E+04  0.65000000000E+04  0.00000000000E+00 0. -1.
       11   -1    0    0    0    0 -0.00000000000E+00 -0.00000000000E+00 -0.65000000000E+04  0.65000000000E+04  0.00000000000E+00 0.  1.
       22    1    1    2    0    0 -0.97299482833E+03  0.63336367282E+03 -0.63954774272E+04  0.65000000000E+04  0.00000000000E+00 0.  1.
       22    1    1    2    0    0  0.97299482833E+03 -0.63336367282E+03  0.63954774272E+04  0.65000000000E+04  0.00000000000E+00 0. -1.
</event>
<event>
 4   1  0.3671700E-05  0.8062258E+02  0.7546771E-02  0.1202337E+00
      -11   -1    0    0    0    0  0.00000000000E+00  0.00000000000E+00  0.65000000000E+04  0.65000000000E+04  0.00000000000E+00 0. -1.
       11   -1    0    0    0    0 -0.00000000000E+00 -0.00000000000E+00 -0.65000000000E+04  0.65000000000E+04  0.00000000000E+00 0.  1.
       22    1    1    2    0    0  0.20010499212E+04 -0.76330455739E+03  0.61370322930E+04  0.65000000000E+04  0.00000000000E+00 0. -1.
       22    1    1    2    0    0 -0.20010499212E+04  0.76330455739E+03 -0.61370322930E+04  0.65000000000E+04  0.00000000000E+00 0.  1.
</event>
<event>
 4   1  0.3671700E-05  0.8062258E+02  0.7546771E-02  0.1202337E+00
      -11   -1    0    0    0    0  0.00000000000E+00  0.00000000000E+00  0.65000000000E+04  0.65000000000E+04  0.00000000000E+00 0.  1.
       11   -1    0    0    0    0 -0.00000000000E+00 -0.00000000000E+00 -0.65000000000E+04  0.65000000000E+04  0.00000000000E+00 0. -1.
       22    1    1    2    0    0  0.16171001708E+03 -0.10969201772E+04 -0.64047338739E+04  0.65000000000E+04  0.00000000000E+00 0. -1.
       22    1    1    2    0    0 -0.16171001708E+03  0.10969201772E+04  0.64047338739E+04  0.65000000000E+04  0.00000000000E+00 0.  1.
</event>
<event>
 4   1  0.3671700E-05  0.8062258E+02  0.7546771E-02  0.1202337E+00
      -11   -1    0    0    0    0  0.00000000000E+00  0.00000000000E+00  0.65000000000E+04  0.65000000000E+04  0.00000000000E+00 0.  1.
       11   -1    0    0    0    0 -0.00000000000E+00 -0.00000000000E+00 -0.65000000000E+04  0.65000000000E+04  0.00000000000E+00 0. -1.
       22    1    1    2    0    0 -0.21401449795E+04 -0.17901878274E+04  0.58706905053E+04  0.65000000000E+04  0.00000000000E+00 0.  1.
       22    1    1    2    0    0  0.21401449795E+04  0.17901878274E+04 -0.58706905053E+04  0.65000000000E+04  0.00000000000E+00 0. -1.
</event>
<event>
 4   1  0.3671700E-05  0.8062258E+02  0.7546771E-02  0.1202337E+00
      -11   -1    0    0    0    0  0.00000000000E+00  0.00000000000E+00  0.65000000000E+04  0.65000000000E+04  0.00000000000E+00 0.  1.
       11   -1    0    0    0    0 -0.00000000000E+00 -0.00000000000E+00 -0.65000000000E+04  0.65000000000E+04  0.00000000000E+00 0. -1.
       22    1    1    2    0    0 -0.41658217812E+04  0.49522755466E+04 -0.60901214955E+03  0.65000000000E+04  0.00000000000E+00 0.  1.
       22    1    1    2    0    0  0.41658217812E+04 -0.49522755466E+04  0.60901214955E+03  0.65000000000E+04  0.00000000000E+00 0. -1.
</event>
<event>
 4   1  0.3671700E-05  0.8062258E+02  0.7546771E-02  0.1202337E+00
      -11   -1    0    0    0    0  0.00000000000E+00  0.00000000000E+00  0.65000000000E+04  0.65000000000E+04  0.00000000000E+00 0. -1.
       11   -1    0    0    0    0 -0.00000000000E+00 -0.00000000000E+00 -0.65000000000E+04  0.65000000000E+04  0.00000000000E+00 0.  1.
       22    1    1    2    0    0 -0.16421774649E+04 -0.32983913589E+04  0.53547985599E+04  0.65000000000E+04  0.00000000000E+00 0. -1.
       22    1    1    2    0    0  0.16421774649E+04  0.32983913589E+04 -0.53547985599E+04  0.65000000000E+04  0.00000000000E+00 0.  1.
</event>
<event>
 4   1  0.3671700E-05  0.8062258E+02  0.7546771E-02  0.1202337E+00
      -11   -1    0    0    0    0  0.00000000000E+00  0.00000000000E+00  0.65000000000E+04  0.65000000000E+04  0.00000000000E+00 0. -1.
       11   -1    0    0    0    0 -0.00000000000E+00 -0.00000000000E+00 -0.65000000000E+04  0.65000000000E+04  0.00000000000E+00 0.  1.
       22    1    1    2    0    0 -0.33025042733E+03 -0.11289229898E+04  0.63926886001E+04  0.65000000000E+04  0.00000000000E+00 0. -1.
       22    1    1    2    0    0  0.33025042733E+03  0.11289229898E+04 -0.63926886001E+04  0.65000000000E+04  0.00000000000E+00 0.  1.
</event>
<event>
 4   1  0.3671700E-05  0.8062258E+02  0.7546771E-02  0.1202337E+00
      -11   -1    0    0    0    0  0.00000000000E+00  0.00000000000E+00  0.65000000000E+04  0.65000000000E+04  0.00000000000E+00 0.  1.
       11   -1    0    0    0    0 -0.00000000000E+00 -0.00000000000E+00 -0.65000000000E+04  0.65000000000E+04  0.00000000000E+00 0. -1.
       22    1    1    2    0    0 -0.37020105508E+04 -0.41112460293E+04  0.34121509298E+04  0.65000000000E+04  0.00000000000E+00 0.  1.
       22    1    1    2    0    0  0.37020105508E+04  0.41112460293E+04 -0.34121509298E+04  0.65000000000E+04  0.00000000000E+00 0. -1.
</event>
<event>
 4   1  0.3671700E-05  0.8062258E+02  0.7546771E-02  0.1202337E+00
      -11   -1    0    0    0    0  0.00000000000E+00  0.00000000000E+00  0.65000000000E+04  0.65000000000E+04  0.00000000000E+00 0. -1.
       11   -1    0    0    0    0 -0.00000000000E+00 -0.00000000000E+00 -0.65000000000E+04  0.65000000000E+04  0.00000000000E+00 0.  1.
       22    1    1    2    0    0 -0.90169099491E+03 -0.17166173864E+04  0.62040453011E+04  0.65000000000E+04  0.00000000000E+00 0. -1.
       22    1    1    2    0    0  0.90169099491E+03  0.17166173864E+04 -0.62040453011E+04  0.65000000000E+04  0.00000000000E+00 0.  1.
</event>
<event>
 4   1  0.3671700E-05  0.8062258E+02  0.7546771E-02  0.1202337E+00
      -11   -1    0    0    0    0  0.00000000000E+00  0.00000000000E+00  0.65000000000E+04  0.65000000000E+04  0.00000000000E+00 0.  1.
       11   -1    0    0    0    0 -0.00000000000E+00 -0.00000000000E+00 -0.65000000000E+04  0.65000000000E+04  0.00000000000E+00 0. -1.
       22    1    1    2    0    0 -0.22645535482E+04 -0.44889056487E+03  0.60762072453E+04  0.65000000000E+04  0.00000000000E+00 0.  1.
       22    1    1    2    0    0  0.22645535482E+04  0.44889056487E+03 -0.60762072453E+04  0.65000000000E+04  0.00000000000E+00 0. -1.
</event>
<event>
 5   2  0.3671700E-05  0.8006185E+02  0.7546771E-02  0.1203629E+00
      -11   -1    0    0    0    0  0.00000000000E+00  0.00000000000E+00  0.65000000000E+04  0.65000000000E+04  0.00000000000E+00 0.  1.
       11   -1    0    0    0    0 -0.00000000000E+00 -0.00000000000E+00 -0.65000000000E+04  0.65000000000E+04  0.00000000000E+00 0. -1.
       22    1    1    2    0    0 -0.43596299921E+04  0.28136508669E+04 -0.38570233009E+04  0.64652636151E+04  0.00000000000E+00 0. -1.
       22    1    1    2    0    0 -0.99662213345E+01 -0.28846943359E+02  0.17632821277E+03  0.17895002187E+03  0.00000000000E+00 0. -1.
       22    1    1    2    0    0  0.43695962134E+04 -0.27848039236E+04  0.36806950881E+04  0.63557863630E+04  0.00000000000E+00 0.  1.
</event>
<event>
 4   1  0.3671700E-05  0.8062258E+02  0.7546771E-02  0.1202337E+00
      -11   -1    0    0    0    0  0.00000000000E+00  0.00000000000E+00  0.65000000000E+04  0.65000000000E+04  0.00000000000E+00 0.  1.
       11   -1    0    0    0    0 -0.00000000000E+00 -0.00000000000E+00 -0.65000000000E+04  0.65000000000E+04  0.00000000000E+00 0. -1.
       22    1    1    2    0    0  0.53529939787E+03 -0.19933529275E+04 -0.61636027339E+04  0.65000000000E+04  0.00000000000E+00 0. -1.
       22    1    1    2    0    0 -0.53529939787E+03  0.19933529275E+04  0.61636027339E+04  0.65000000000E+04  0.00000000000E+00 0.  1.
</event>
<event>
 5   2  0.3671700E-05  0.8056167E+02  0.7546771E-02  0.1202477E+00
      -11   -1    0    0    0    0  0.00000000000E+00  0.00000000000E+00  0.65000000000E+04  0.65000000000E+04  0.00000000000E+00 0. -1.
       11   -1    0    0    0    0 -0.00000000000E+00 -0.00000000000E+00 -0.65000000000E+04  0.65000000000E+04  0.00000000000E+00 0.  1.
       22    1    1    2    0    0  0.13637351535E+02  0.44869444887E+01  0.13374717904E+02  0.19621241213E+02  0.00000000000E+00 0. -1.
       22    1    1    2    0    0 -0.11437014517E+04  0.11148199187E+03 -0.63955124373E+04  0.64979274066E+04  0.00000000000E+00 0.  1.
       22    1    1    2    0    0  0.11300641001E+04 -0.11596893636E+03  0.63821377194E+04  0.64824513522E+04  0.00000000000E+00 0. -1.
</event>
<event>
 5   2  0.3671700E-05  0.7991303E+02  0.7546771E-02  0.1203974E+00
      -11   -1    0    0    0    0  0.00000000000E+00  0.00000000000E+00  0.65000000000E+04  0.65000000000E+04  0.00000000000E+00 0.  1.
       11   -1    0    0    0    0 -0.00000000000E+00 -0.00000000000E+00 -0.65000000000E+04  0.65000000000E+04  0.00000000000E+00 0. -1.
       22    1    1    2    0    0 -0.25310157383E+04 -0.10167493750E+04 -0.57959381460E+04  0.64056786487E+04  0.00000000000E+00 0. -1.
       22    1    1    2    0    0  0.25094077365E+04  0.12292749605E+04  0.57227246423E+04  0.63685022924E+04  0.00000000000E+00 0.  1.
       22    1    1    2    0    0  0.21608001790E+02 -0.21252558550E+03  0.73213503688E+02  0.22581905888E+03  0.00000000000E+00 0. -1.
</event>
<event>
 5   2  0.3671700E-05  0.8043060E+02  0.7546771E-02  0.1202778E+00
      -11   -1    0    0    0    0  0.00000000000E+00  0.00000000000E+00  0.65000000000E+04  0.65000000000E+04  0.00000000000E+00 0.  1.
       11   -1    0    0    0    0 -0.00000000000E+00 -0.00000000000E+00 -0.65000000000E+04  0.65000000000E+04  0.00000000000E+00 0. -1.
       22    1    1    2    0    0  0.37127145167E+04 -0.26968613775E+04 -0.45947069079E+04  0.64937386721E+04  0.00000000000E+00 0. -1.
       22    1    1    2    0    0 -0.14583517539E+02 -0.33909587626E+01  0.59844185637E+02  0.61688768343E+02  0.00000000000E+00 0.  1.
       22    1    1    2    0    0 -0.36981309991E+04  0.27002523362E+04  0.45348627222E+04  0.64445725596E+04  0.00000000000E+00 0.  1.
</event>
<event>
 4   1  0.3671700E-05  0.8062258E+02  0.7546771E-02  0.1202337E+00
      -11   -1    0    0    0    0  0.00000000000E+00  0.00000000000E+00  0.65000000000E+04  0.65000000000E+04  0.00000000000E+00 0. -1.
       11   -1    0    0    0    0 -0.00000000000E+00 -0.00000000000E+00 -0.65000000000E+04  0.65000000000E+04  0.00000000000E+00 0.  1.
       22    1    1    2    0    0  0.29060147270E+04  0.20349160526E+04  0.54464846521E+04  0.65000000000E+04  0.00000000000E+00 0. -1.
       22    1    1    2    0    0 -0.29060147270E+04 -0.20349160526E+04 -0.54464846521E+04  0.65000000000E+04  0.00000000000E+00 0.  1.
</event>
<event>
 4   1  0.3671700E-05  0.8062258E+02  0.7546771E-02  0.1202337E+00
      -11   -1    0    0    0    0  0.00000000000E+00  0.00000000000E+00  0.65000000000E+04  0.65000000000E+04  0.00000000000E+00 0.  1.
       11   -1    0    0    0    0 -0.00000000000E+00 -0.00000000000E+00 -0.65000000000E+04  0.65000000000E+04  0.00000000000E+00 0. -1.
       22    1    1    2    0    0 -0.20630412039E+04 -0.54987543583E+02 -0.61636707700E+04  0.65000000000E+04  0.00000000000E+00 0. -1.
       22    1    1    2    0    0  0.20630412039E+04  0.54987543583E+02  0.61636707700E+04  0.65000000000E+04  0.00000000000E+00 0.  1.
</event>
<event>
 4   1  0.3671700E-05  0.8062258E+02  0.7546771E-02  0.1202337E+00
      -11   -1    0    0    0    0  0.00000000000E+00  0.00000000000E+00  0.65000000000E+04  0.65000000000E+04  0.00000000000E+00 0.  1.
       11   -1    0    0    0    0 -0.00000000000E+00 -0.00000000000E+00 -0.65000000000E+04  0.65000000000E+04  0.00000000000E+00 0. -1.
       22    1    1    2    0    0 -0.62797353448E+03 -0.28099966150E+04 -0.58274838707E+04  0.65000000000E+04  0.00000000000E+00 0. -1.
       22    1    1    2    0    0  0.62797353448E+03  0.28099966150E+04  0.58274838707E+04  0.65000000000E+04  0.00000000000E+00 0.  1.
</event>
<event>
 4   1  0.3671700E-05  0.8062258E+02  0.7546771E-02  0.1202337E+00
      -11   -1    0    0    0    0  0.00000000000E+00  0.00000000000E+00  0.65000000000E+04  0.65000000000E+04  0.00000000000E+00 0.  1.
       11   -1    0    0    0    0 -0.00000000000E+00 -0.00000000000E+00 -0.65000000000E+04  0.65000000000E+04  0.00000000000E+00 0. -1.
       22    1    1    2    0    0  0.23775159345E+04  0.11519233938E+04  0.59388964022E+04  0.65000000000E+04  0.00000000000E+00 0.  1.
       22    1    1    2    0    0 -0.23775159345E+04 -0.11519233938E+04 -0.59388964022E+04  0.65000000000E+04  0.00000000000E+00 0. -1.
</event>
<event>
 4   1  0.3671700E-05  0.8062258E+02  0.7546771E-02  0.1202337E+00
      -11   -1    0    0    0    0  0.00000000000E+00  0.00000000000E+00  0.65000000000E+04  0.65000000000E+04  0.00000000000E+00 0.  1.
       11   -1    0    0    0    0 -0.00000000000E+00 -0.00000000000E+00 -0.65000000000E+04  0.65000000000E+04  0.00000000000E+00 0. -1.
       22    1    1    2    0    0  0.23800413993E+04  0.64009490703E+03 -0.60146223030E+04  0.65000000000E+04  0.00000000000E+00 0. -1.
       22    1    1    2    0    0 -0.23800413993E+04 -0.64009490703E+03  0.60146223030E+04  0.65000000000E+04  0.00000000000E+00 0.  1.
</event>
<event>
 5   2  0.3671700E-05  0.8045410E+02  0.7546771E-02  0.1202724E+00
      -11   -1    0    0    0    0  0.00000000000E+00  0.00000000000E+00  0.65000000000E+04  0.65000000000E+04  0.00000000000E+00 0.  1.
       11   -1    0    0    0    0 -0.00000000000E+00 -0.00000000000E+00 -0.65000000000E+04  0.65000000000E+04  0.00000000000E+00 0. -1.
       22    1    1    2    0    0 -0.17756196520E+03 -0.38781322846E+04  0.51883535745E+04  0.64800039416E+04  0.00000000000E+00 0.  1.
       22    1    1    2    0    0  0.18188244767E+03  0.39111025714E+04 -0.51455990750E+04  0.64658328457E+04  0.00000000000E+00 0. -1.
       22    1    1    2    0    0 -0.43204824697E+01 -0.32970286731E+02 -0.42754499556E+02  0.54163212684E+02  0.00000000000E+00 0.  1.
</event>
<event>
 4   1  0.3671700E-05  0.8062258E+02  0.7546771E-02  0.1202337E+00
      -11   -1    0    0    0    0  0.00000000000E+00  0.00000000000E+00  0.65000000000E+04  0.65000000000E+04  0.00000000000E+00 0. -1.
       11   -1    0    0    0    0 -0.00000000000E+00 -0.00000000000E+00 -0.65000000000E+04  0.65000000000E+04  0.00000000000E+00 0.  1.
       22    1    1    2    0    0 -0.94168950625E+03 -0.21563779850E+04  0.60591463804E+04  0.65000000000E+04  0.00000000000E+00 0. -1.
       22    1    1    2    0    0  0.94168950625E+03  0.21563779850E+04 -0.60591463804E+04  0.65000000000E+04  0.00000000000E+00 0.  1.
</event>
<event>
 4   1  0.3671700E-05  0.8062258E+02  0.7546771E-02  0.1202337E+00
      -11   -1    0    0    0    0  0.00000000000E+00  0.00000000000E+00  0.65000000000E+04  0.65000000000E+04  0.00000000000E+00 0. -1.
       11   -1    0    0    0    0 -0.00000000000E+00 -0.00000000000E+00 -0.65000000000E+04  0.65000000000E+04  0.00000000000E+00 0.  1.
       22    1    1    2    0    0 -0.98892221532E+03 -0.12778369688E+04 -0.62959642259E+04  0.65000000000E+04  0.00000000000E+00 0.  1.
       22    1    1    2    0    0  0.98892221532E+03  0.12778369688E+04  0.62959642259E+04  0.65000000000E+04  0.00000000000E+00 0. -1.
</event>
<event>
 4   1  0.3671700E-05  0.8062258E+02  0.7546771E-02  0.1202337E+00
      -11   -1    0    0    0    0  0.00000000000E+00  0.00000000000E+00  0.65000000000E+04  0.65000000000E+04  0.00000000000E+00 0. -1.
       11   -1    0    0    0    0 -0.00000000000E+00 -0.00000000000E+00 -0.65000000000E+04  0.65000000000E+04  0.00000000000E+00 0.  1.
       22    1    1    2    0    0 -0.56139722652E+04 -0.31296089291E+04 -0.96894961536E+03  0.65000000000E+04  0.00000000000E+00 0.  1.
       22    1    1    2    0    0  0.56139722652E+04  0.31296089291E+04  0.96894961536E+03  0.65000000000E+04  0.00000000000E+00 0. -1.
</event>
<event>
 4   1  0.3671700E-05  0.8062258E+02  0.7546771E-02  0.1202337E+00
      -11   -1    0    0    0    0  0.00000000000E+00  0.00000000000E+00  0.65000000000E+04  0.65000000000E+04  0.00000000000E+00 0.  1.
       11   -1    0    0    0    0 -0.00000000000E+00 -0.00000000000E+00 -0.65000000000E+04  0.65000000000E+04  0.00000000000E+00 0. -1.
       22    1    1    2    0    0  0.14069750934E+04  0.64160680848E+02 -0.63455736142E+04  0.65000000000E+04  0.00000000000E+00 0. -1.
       22    1    1    2    0    0 -0.14069750934E+04 -0.64160680848E+02  0.63455736142E+04  0.65000000000E+04  0.00000000000E+00 0.  1.
</event>
<event>
 4   1  0.3671700E-05  0.8062258E+02  0.7546771E-02  0.1202337E+00
      -11   -1    0    0    0    0  0.00000000000E+00  0.00000000000E+00  0.65000000000E+04  0.65000000000E+04  0.00000000000E+00 0.  1.
       11   -1    0    0    0    0 -0.00000000000E+00 -0.00000000000E+00 -0.65000000000E+04  0.65000000000E+04  0.00000000000E+00 0. -1.
       22    1    1    2    0    0 -0.25365593726E+04 -0.15531541262E+04 -0.57795829269E+04  0.65000000000E+04  0.00000000000E+00 0. -1.
       22    1    1    2    0    0  0.25365593726E+04  0.15531541262E+04  0.57795829269E+04  0.65000000000E+04  0.00000000000E+00 0.  1.
</event>
<event>
 4   1  0.3671700E-05  0.8062258E+02  0.7546771E-02  0.1202337E+00
      -11   -1    0    0    0    0  0.00000000000E+00  0.00000000000E+00  0.65000000000E+04  0.65000000000E+04  0.00000000000E+00 0.  1.
       11   -1    0    0    0    0 -0.00000000000E+00 -0.00000000000E+00 -0.65000000000E+04  0.65000000000E+04  0.00000000000E+00 0. -1.
       22    1    1    2    0    0  0.46998875151E+04  0.30318737733E+04 -0.33119176875E+04  0.65000000000E+04  0.00000000000E+00 0. -1.
       22    1    1    2    0    0 -0.46998875151E+04 -0.30318737733E+04  0.33119176875E+04  0.65000000000E+04  0.00000000000E+00 0.  1.
</event>
<event>
 4   1  0.3671700E-05  0.8062258E+02  0.7546771E-02  0.1202337E+00
      -11   -1    0    0    0    0  0.00000000000E+00  0.00000000000E+00  0.65000000000E+04  0.65000000000E+04  0.00000000000E+00 0. -1.
       11   -1    0    0    0    0 -0.00000000000E+00 -0.00000000000E+00 -0.65000000000E+04  0.65000000000E+04  0.00000000000E+00 0.  1.
       22    1    1    2    0    0 -0.45872401845E+03  0.11984543770E+04  0.63720702586E+04  0.65000000000E+04  0.00000000000E+00 0. -1.
       22    1    1    2    0    0  0.45872401845E+03 -0.11984543770E+04 -0.63720702586E+04  0.65000000000E+04  0.00000000000E+00 0.  1.
</event>
<event>
 5   2  0.3671700E-05  0.8056093E+02  0.7546771E-02  0.1202479E+00
      -11   -1    0    0    0    0  0.00000000000E+00  0.00000000000E+00  0.65000000000E+04  0.65000000000E+04  0.00000000000E+00 0.  1.
       11   -1    0    0    0    0 -0.00000000000E+00 -0.00000000000E+00 -0.65000000000E+04  0.65000000000E+04  0.00000000000E+00 0. -1.
       22    1    1    2    0    0 -0.13799801654E+04 -0.51287344433E+03 -0.63223060215E+04  0.64914511364E+04  0.00000000000E+00 0. -1.
       22    1    1    2    0    0  0.13870721425E+04  0.49455604465E+03  0.63193777737E+04  0.64886894098E+04  0.00000000000E+00 0.  1.
       22    1    1    2    0    0 -0.70919771538E+01  0.18317399683E+02  0.29282477977E+01  0.19859453826E+02  0.00000000000E+00 0.  1.
</event>
<event>
 4   1  0.3671700E-05  0.8062258E+02  0.7546771E-02  0.1202337E+00
      -11   -1    0    0    0    0  0.00000000000E+00  0.00000000000E+00  0.65000000000E+04  0.65000000000E+04  0.00000000000E+00 0.  1.
       11   -1    0    0    0    0 -0.00000000000E+00 -0.00000000000E+00 -0.65000000000E+04  0.65000000000E+04  0.00000000000E+00 0. -1.
       22    1    1    2    0    0  0.17398609235E+04  0.36593313814E+03  0.62521177936E+04  0.65000000000E+04  0.00000000000E+00 0.  1.
       22    1    1    2    0    0 -0.17398609235E+04 -0.36593313814E+03 -0.62521177936E+04  0.65000000000E+04  0.00000000000E+00 0. -1.
</event>
<event>
 4   1  0.3671700E-05  0.8062258E+02  0.7546771E-02  0.1202337E+00
      -11   -1    0    0    0    0  0.00000000000E+00  0.00000000000E+00  0.65000000000E+04  0.65000000000E+04  0.00000000000E+00 0.  1.
       11   -1    0    0    0    0 -0.00000000000E+00 -0.00000000000E+00 -0.65000000000E+04  0.65000000000E+04  0.00000000000E+00 0. -1.
       22    1    1    2    0    0  0.29242315006E+04  0.44564718579E+04  0.37200441813E+04  0.65000000000E+04  0.00000000000E+00 0.  1.
       22    1    1    2    0    0 -0.29242315006E+04 -0.44564718579E+04 -0.37200441813E+04  0.65000000000E+04  0.00000000000E+00 0. -1.
</event>
<event>
 4   1  0.3671700E-05  0.8062258E+02  0.7546771E-02  0.1202337E+00
      -11   -1    0    0    0    0  0.00000000000E+00  0.00000000000E+00  0.65000000000E+04  0.65000000000E+04  0.00000000000E+00 0.  1.
       11   -1    0    0    0    0 -0.00000000000E+00 -0.00000000000E+00 -0.65000000000E+04  0.65000000000E+04  0.00000000000E+00 0. -1.
       22    1    1    2    0    0  0.24004235671E+04 -0.46285061219E+04  0.38813525708E+04  0.65000000000E+04  0.00000000000E+00 0.  1.
       22    1    1    2    0    0 -0.24004235671E+04  0.46285061219E+04 -0.38813525708E+04  0.65000000000E+04  0.00000000000E+00 0. -1.
</event>
<event>
 4   1  0.3671700E-05  0.8062258E+02  0.7546771E-02  0.1202337E+00
      -11   -1    0    0    0    0  0.00000000000E+00  0.00000000000E+00  0.65000000000E+04  0.65000000000E+04  0.00000000000E+00 0.  1.
       11   -1    0    0    0    0 -0.00000000000E+00 -0.00000000000E+00 -0.65000000000E+04  0.65000000000E+04  0.00000000000E+00 0. -1.
       22    1    1    2    0    0  0.10437014851E+04  0.10760053906E+04  0.63247845504E+04  0.65000000000E+04  0.00000000000E+00 0.  1.
       22    1    1    2    0    0 -0.10437014851E+04 -0.10760053906E+04 -0.63247845504E+04  0.65000000000E+04  0.00000000000E+00 0. -1.
</event>
<event>
 4   1  0.3671700E-05  0.8062258E+02  0.7546771E-02  0.1202337E+00
      -11   -1    0    0    0    0  0.00000000000E+00  0.00000000000E+00  0.65000000000E+04  0.65000000000E+04  0.00000000000E+00 0. -1.
       11   -1    0    0    0    0 -0.00000000000E+00 -0.00000000000E+00 -0.65000000000E+04  0.65000000000E+04  0.00000000000E+00 0.  1.
       22    1    1    2    0    0 -0.96147425314E+03  0.76583093472E+03  0.63827165251E+04  0.65000000000E+04  0.00000000000E+00 0. -1.
       22    1    1    2    0    0  0.96147425314E+03 -0.76583093472E+03 -0.63827165251E+04  0.65000000000E+04  0.00000000000E+00 0.  1.
</event>
<event>
 4   1  0.3671700E-05  0.8062258E+02  0.7546771E-02  0.1202337E+00
      -11   -1    0    0    0    0  0.00000000000E+00  0.00000000000E+00  0.65000000000E+04  0.65000000000E+04  0.00000000000E+00 0.  1.
       11   -1    0    0    0    0 -0.00000000000E+00 -0.00000000000E+00 -0.65000000000E+04  0.65000000000E+04  0.00000000000E+00 0. -1.
       22    1    1    2    0    0  0.48190935071E+03 -0.25127018831E+04 -0.59752901707E+04  0.65000000000E+04  0.00000000000E+00 0. -1.
       22    1    1    2    0    0 -0.48190935071E+03  0.25127018831E+04  0.59752901707E+04  0.65000000000E+04  0.00000000000E+00 0.  1.
</event>
<event>
 4   1  0.3671700E-05  0.8062258E+02  0.7546771E-02  0.1202337E+00
      -11   -1    0    0    0    0  0.00000000000E+00  0.00000000000E+00  0.65000000000E+04  0.65000000000E+04  0.00000000000E+00 0. -1.
       11   -1    0    0    0    0 -0.00000000000E+00 -0.00000000000E+00 -0.65000000000E+04  0.65000000000E+04  0.00000000000E+00 0.  1.
       22    1    1    2    0    0 -0.17529262808E+03 -0.28937669233E+04  0.58176787027E+04  0.65000000000E+04  0.00000000000E+00 0. -1.
       22    1    1    2    0    0  0.17529262808E+03  0.28937669233E+04 -0.58176787027E+04  0.65000000000E+04  0.00000000000E+00 0.  1.
</event>
<event>
 4   1  0.3671700E-05  0.8062258E+02  0.7546771E-02  0.1202337E+00
      -11   -1    0    0    0    0  0.00000000000E+00  0.00000000000E+00  0.65000000000E+04  0.65000000000E+04  0.00000000000E+00 0. -1.
       11   -1    0    0    0    0 -0.00000000000E+00 -0.00000000000E+00 -0.65000000000E+04  0.65000000000E+04  0.00000000000E+00 0.  1.
       22    1    1    2    0    0 -0.16346367347E+04 -0.39599602550E+04 -0.48884228054E+04  0.65000000000E+04  0.00000000000E+00 0.  1.
       22    1    1    2    0    0  0.16346367347E+04  0.39599602550E+04  0.48884228054E+04  0.65000000000E+04  0.00000000000E+00 0. -1.
</event>
<event>
 4   1  0.3671700E-05  0.8062258E+02  0.7546771E-02  0.1202337E+00
      -11   -1    0    0    0    0  0.00000000000E+00  0.00000000000E+00  0.65000000000E+04  0.65000000000E+04  0.00000000000E+00 0.  1.
       11   -1    0    0    0    0 -0.00000000000E+00 -0.00000000000E+00 -0.65000000000E+04  0.65000000000E+04  0.00000000000E+00 0. -1.
       22    1    1    2    0    0  0.13449145613E+04  0.76229481112E+03 -0.63134864729E+04  0.65000000000E+04  0.00000000000E+00 0. -1.
       22    1    1    2    0    0 -0.13449145613E+04 -0.76229481112E+03  0.63134864729E+04  0.65000000000E+04  0.00000000000E+00 0.  1.
</event>
<event>
 4   1  0.3671700E-05  0.8062258E+02  0.7546771E-02  0.1202337E+00
      -11   -1    0    0    0    0  0.00000000000E+00  0.00000000000E+00  0.65000000000E+04  0.65000000000E+04  0.00000000000E+00 0.  1.
       11   -1    0    0    0    0 -0.00000000000E+00 -0.00000000000E+00 -0.65000000000E+04  0.65000000000E+04  0.00000000000E+00 0. -1.
       22    1    1    2    0    0 -0.32477080141E+04  0.26486868109E+04  0.49685864019E+04  0.65000000000E+04  0.00000000000E+00 0.  1.
       22    1    1    2    0    0  0.32477080141E+04 -0.26486868109E+04 -0.49685864019E+04  0.65000000000E+04  0.00000000000E+00 0. -1.
</event>
<event>
 4   1  0.3671700E-05  0.8062258E+02  0.7546771E-02  0.1202337E+00
      -11   -1    0    0    0    0  0.00000000000E+00  0.00000000000E+00  0.65000000000E+04  0.65000000000E+04  0.00000000000E+00 0. -1.
       11   -1    0    0    0    0 -0.00000000000E+00 -0.00000000000E+00 -0.65000000000E+04  0.65000000000E+04  0.00000000000E+00 0.  1.
       22    1    1    2    0    0  0.39991042790E+04  0.96186477925E+03 -0.50330886255E+04  0.65000000000E+04  0.00000000000E+00 0.  1.
       22    1    1    2    0    0 -0.39991042790E+04 -0.96186477925E+03  0.50330886255E+04  0.65000000000E+04  0.00000000000E+00 0. -1.
</event>
<event>
 5   2  0.3671700E-05  0.7999887E+02  0.7546771E-02  0.1203775E+00
      -11   -1    0    0    0    0  0.00000000000E+00  0.00000000000E+00  0.65000000000E+04  0.65000000000E+04  0.00000000000E+00 0. -1.
       11   -1    0    0    0    0 -0.00000000000E+00 -0.00000000000E+00 -0.65000000000E+04  0.65000000000E+04  0.00000000000E+00 0.  1.
       22    1    1    2    0    0  0.21089806072E+04  0.16876805889E+04 -0.57838993960E+04  0.63835379841E+04  0.00000000000E+00 0.  1.
       22    1    1    2    0    0 -0.92823188169E+02  0.17498504236E+03 -0.17112253522E+02  0.19881835562E+03  0.00000000000E+00 0.  1.
       22    1    1    2    0    0 -0.20161574190E+04 -0.18626656313E+04  0.58010116495E+04  0.64176436603E+04  0.00000000000E+00 0. -1.
</event>
<event>
 4   1  0.3671700E-05  0.8062258E+02  0.7546771E-02  0.1202337E+00
      -11   -1    0    0    0    0  0.00000000000E+00  0.00000000000E+00  0.65000000000E+04  0.65000000000E+04  0.00000000000E+00 0. -1.
       11   -1    0    0    0    0 -0.00000000000E+00 -0.00000000000E+00 -0.65000000000E+04  0.65000000000E+04  0.00000000000E+00 0.  1.
       22    1    1    2    0    0 -0.80096209559E+03 -0.77961538089E+03 -0.64031757417E+04  0.65000000000E+04  0.00000000000E+00 0.  1.
       22    1    1    2    0    0  0.80096209559E+03  0.77961538089E+03  0.64031757417E+04  0.65000000000E+04  0.00000000000E+00 0. -1.
</event>
<event>
 4   1  0.3671700E-05  0.8062258E+02  0.7546771E-02  0.1202337E+00
      -11   -1    0    0    0    0  0.00000000000E+00  0.00000000000E+00  0.65000000000E+04  0.65000000000E+04  0.00000000000E+00 0. -1.
       11   -1    0    0    0    0 -0.00000000000E+00 -0.00000000000E+00 -0.65000000000E+04  0.65000000000E+04  0.00000000000E+00 0.  1.
       22    1    1    2    0    0  0.55151459375E+04  0.32959531611E+04  0.98481371216E+03  0.65000000000E+04  0.00000000000E+00 0. -1.
       22    1    1    2    0    0 -0.55151459375E+04 -0.32959531611E+04 -0.98481371216E+03  0.65000000000E+04  0.00000000000E+00 0.  1.
</event>
<event>
 5   2  0.3671700E-05  0.7988281E+02  0.7546771E-02  0.1204044E+00
      -11   -1    0    0    0    0  0.00000000000E+00  0.00000000000E+00  0.65000000000E+04  0.65000000000E+04  0.00000000000E+00 0.  1.
       11   -1    0    0    0    0 -0.00000000000E+00 -0.00000000000E+00 -0.65000000000E+04  0.65000000000E+04  0.00000000000E+00 0. -1.
       22    1    1    2    0    0  0.14027466270E+04  0.58589347191E+04  0.20568365018E+04  0.63659555872E+04  0.00000000000E+00 0.  1.
       22    1    1    2    0    0 -0.36046558286E+02  0.11129278477E+03 -0.20416223448E+03  0.23530332826E+03  0.00000000000E+00 0. -1.
       22    1    1    2    0    0 -0.13667000688E+04 -0.59702275039E+04 -0.18526742673E+04  0.63987410846E+04  0.00000000000E+00 0. -1.
</event>
<event>
 4   1  0.3671700E-05  0.8062258E+02  0.7546771E-02  0.1202337E+00
      -11   -1    0    0    0    0  0.00000000000E+00  0.00000000000E+00  0.65000000000E+04  0.65000000000E+04  0.00000000000E+00 0.  1.
       11   -1    0    0    0    0 -0.00000000000E+00 -0.00000000000E+00 -0.65000000000E+04  0.65000000000E+04  0.00000000000E+00 0. -1.
       22    1    1    2    0    0  0.18192362165E+03 -0.12359652375E+04 -0.63788160130E+04  0.65000000000E+04  0.00000000000E+00 0. -1.
       22    1    1    2    0    0 -0.18192362165E+03  0.12359652375E+04  0.63788160130E+04  0.65000000000E+04  0.00000000000E+00 0.  1.
</event>
<event>
 4   1  0.3671700E-05  0.8062258E+02  0.7546771E-02  0.1202337E+00
      -11   -1    0    0    0    0  0.00000000000E+00  0.00000000000E+00  0.65000000000E+04  0.65000000000E+04  0.00000000000E+00 0. -1.
       11   -1    0    0    0    0 -0.00000000000E+00 -0.00000000000E+00 -0.65000000000E+04  0.65000000000E+04  0.00000000000E+00 0.  1.
       22    1    1    2    0    0 -0.14195773913E+04 -0.10326249003E+04  0.62584731241E+04  0.65000000000E+04  0.00000000000E+00 0. -1.
       22    1    1    2    0    0  0.14195773913E+04  0.10326249003E+04 -0.62584731241E+04  0.65000000000E+04  0.00000000000E+00 0.  1.
</event>
<event>
 4   1  0.3671700E-05  0.8062258E+02  0.7546771E-02  0.1202337E+00
      -11   -1    0    0    0    0  0.00000000000E+00  0.00000000000E+00  0.65000000000E+04  0.65000000000E+04  0.00000000000E+00 0.  1.
       11   -1    0    0    0    0 -0.00000000000E+00 -0.00000000000E+00 -0.65000000000E+04  0.65000000000E+04  0.00000000000E+00 0. -1.
       22    1    1    2    0    0  0.82747516077E+03  0.52978239851E+04  0.36740095102E+04  0.65000000000E+04  0.00000000000E+00 0.  1.
       22    1    1    2    0    0 -0.82747516077E+03 -0.52978239851E+04 -0.36740095102E+04  0.65000000000E+04  0.00000000000E+00 0. -1.
</event>
<event>
 4   1  0.3671700E-05  0.8062258E+02  0.7546771E-02  0.1202337E+00
      -11   -1    0    0    0    0  0.00000000000E+00  0.00000000000E+00  0.65000000000E+04  0.65000000000E+04  0.00000000000E+00 0. -1.
       11   -1    0    0    0    0 -0.00000000000E+00 -0.00000000000E+00 -0.65000000000E+04  0.65000000000E+04  0.00000000000E+00 0.  1.
       22    1    1    2    0    0  0.15748901254E+04 -0.10634120925E+04  0.62160176813E+04  0.65000000000E+04  0.00000000000E+00 0. -1.
       22    1    1    2    0    0 -0.15748901254E+04  0.10634120925E+04 -0.62160176813E+04  0.65000000000E+04  0.00000000000E+00 0.  1.
</event>
<event>
 4   1  0.3671700E-05  0.8062258E+02  0.7546771E-02  0.1202337E+00
      -11   -1    0    0    0    0  0.00000000000E+00  0.00000000000E+00  0.65000000000E+04  0.65000000000E+04  0.00000000000E+00 0. -1.
       11   -1    0    0    0    0 -0.00000000000E+00 -0.00000000000E+00 -0.65000000000E+04  0.65000000000E+04  0.00000000000E+00 0.  1.
       22    1    1    2    0    0  0.59591624028E+04  0.25933861102E+04  0.11283590265E+03  0.65000000000E+04  0.00000000000E+00 0. -1.
       22    1    1    2    0    0 -0.59591624028E+04 -0.25933861102E+04 -0.11283590265E+03  0.65000000000E+04  0.00000000000E+00 0.  1.
</event>
<event>
 4   1  0.3671700E-05  0.8062258E+02  0.7546771E-02  0.1202337E+00
      -11   -1    0    0    0    0  0.00000000000E+00  0.00000000000E+00  0.65000000000E+04  0.65000000000E+04  0.00000000000E+00 0. -1.
       11   -1    0    0    0    0 -0.00000000000E+00 -0.00000000000E+00 -0.65000000000E+04  0.65000000000E+04  0.00000000000E+00 0.  1.
       22    1    1    2    0    0 -0.22462915658E+04  0.24785265095E+04 -0.55732468583E+04  0.65000000000E+04  0.00000000000E+00 0.  1.
       22    1    1    2    0    0  0.22462915658E+04 -0.24785265095E+04  0.55732468583E+04  0.65000000000E+04  0.00000000000E+00 0. -1.
</event>
<event>
 4   1  0.3671700E-05  0.8062258E+02  0.7546771E-02  0.1202337E+00
      -11   -1    0    0    0    0  0.00000000000E+00  0.00000000000E+00  0.65000000000E+04  0.65000000000E+04  0.00000000000E+00 0.  1.
       11   -1    0    0    0    0 -0.00000000000E+00 -0.00000000000E+00 -0.65000000000E+04  0.65000000000E+04  0.00000000000E+00 0. -1.
       22    1    1    2    0    0 -0.63412465719E+02  0.16496204664E+04  0.62868697438E+04  0.65000000000E+04  0.00000000000E+00 0.  1.
       22    1    1    2    0    0  0.63412465719E+02 -0.16496204664E+04 -0.62868697438E+04  0.65000000000E+04  0.00000000000E+00 0. -1.
</event>
<event>
 4   1  0.3671700E-05  0.8062258E+02  0.7546771E-02  0.1202337E+00
      -11   -1    0    0    0    0  0.00000000000E+00  0.00000000000E+00  0.65000000000E+04  0.65000000000E+04  0.00000000000E+00 0.  1.
       11   -1    0    0    0    0 -0.00000000000E+00 -0.00000000000E+00 -0.65000000000E+04  0.65000000000E+04  0.00000000000E+00 0. -1.
       22    1    1    2    0    0  0.18014504647E+04  0.21194123573E+04  0.58747653130E+04  0.65000000000E+04  0.00000000000E+00 0.  1.
       22    1    1    2    0    0 -0.18014504647E+04 -0.21194123573E+04 -0.58747653130E+04  0.65000000000E+04  0.00000000000E+00 0. -1.
</event>
<event>
 4   1  0.3671700E-05  0.8062258E+02  0.7546771E-02  0.1202337E+00
      -11   -1    0    0    0    0  0.00000000000E+00  0.00000000000E+00  0.65000000000E+04  0.65000000000E+04  0.00000000000E+00 0.  1.
       11   -1    0    0    0    0 -0.00000000000E+00 -0.00000000000E+00 -0.65000000000E+04  0.65000000000E+04  0.00000000000E+00 0. -1.
       22    1    1    2    0    0  0.26192407693E+04 -0.59660995753E+03  0.59189217220E+04  0.65000000000E+04  0.00000000000E+00 0.  1.
       22    1    1    2    0    0 -0.26192407693E+04  0.59660995753E+03 -0.59189217220E+04  0.65000000000E+04  0.00000000000E+00 0. -1.
</event>
<event>
 4   1  0.3671700E-05  0.8062258E+02  0.7546771E-02  0.1202337E+00
      -11   -1    0    0    0    0  0.00000000000E+00  0.00000000000E+00  0.65000000000E+04  0.65000000000E+04  0.00000000000E+00 0. -1.
       11   -1    0    0    0    0 -0.00000000000E+00 -0.00000000000E+00 -0.65000000000E+04  0.65000000000E+04  0.00000000000E+00 0.  1.
       22    1    1    2    0    0 -0.14484286351E+04 -0.77223826865E+03 -0.62893324404E+04  0.65000000000E+04  0.00000000000E+00 0.  1.
       22    1    1    2    0    0  0.14484286351E+04  0.77223826865E+03  0.62893324404E+04  0.65000000000E+04  0.00000000000E+00 0. -1.
</event>
<event>
 5   2  0.3671700E-05  0.8052533E+02  0.7546771E-02  0.1202561E+00
      -11   -1    0    0    0    0  0.00000000000E+00  0.00000000000E+00  0.65000000000E+04  0.65000000000E+04  0.00000000000E+00 0.  1.
       11   -1    0    0    0    0 -0.00000000000E+00 -0.00000000000E+00 -0.65000000000E+04  0.65000000000E+04  0.00000000000E+00 0. -1.
       22    1    1    2    0    0 -0.17279620536E+04  0.16644197593E+04  0.60148232454E+04  0.64756655772E+04  0.00000000000E+00 0.  1.
       22    1    1    2    0    0  0.19328505798E+02 -0.14133395741E+01  0.24583139183E+02  0.31303664278E+02  0.00000000000E+00 0. -1.
       22    1    1    2    0    0  0.17086335478E+04 -0.16630064197E+04 -0.60394063846E+04  0.64930307585E+04  0.00000000000E+00 0. -1.
</event>
<event>
 4   1  0.3671700E-05  0.8062258E+02  0.7546771E-02  0.1202337E+00
      -11   -1    0    0    0    0  0.00000000000E+00  0.00000000000E+00  0.65000000000E+04  0.65000000000E+04  0.00000000000E+00 0. -1.
       11   -1    0    0    0    0 -0.00000000000E+00 -0.00000000000E+00 -0.65000000000E+04  0.65000000000E+04  0.00000000000E+00 0.  1.
       22    1    1    2    0    0  0.93420344937E+03  0.16247444525E+04  0.62239432339E+04  0.65000000000E+04  0.00000000000E+00 0. -1.
       22    1    1    2    0    0 -0.93420344937E+03 -0.16247444525E+04 -0.62239432339E+04  0.65000000000E+04  0.00000000000E+00 0.  1.
</event>
<event>
 4   1  0.3671700E-05  0.8062258E+02  0.7546771E-02  0.1202337E+00
      -11   -1    0    0    0    0  0.00000000000E+00  0.00000000000E+00  0.65000000000E+04  0.65000000000E+04  0.00000000000E+00 0.  1.
       11   -1    0    0    0    0 -0.00000000000E+00 -0.00000000000E+00 -0.65000000000E+04  0.65000000000E+04  0.00000000000E+00 0. -1.
       22    1    1    2    0    0 -0.57487462994E+03 -0.10394879100E+04 -0.63905386349E+04  0.65000000000E+04  0.00000000000E+00 0. -1.
       22    1    1    2    0    0  0.57487462994E+03  0.10394879100E+04  0.63905386349E+04  0.65000000000E+04  0.00000000000E+00 0.  1.
</event>
<event>
 5   2  0.3671700E-05  0.8012211E+02  0.7546771E-02  0.1203490E+00
      -11   -1    0    0    0    0  0.00000000000E+00  0.00000000000E+00  0.65000000000E+04  0.65000000000E+04  0.00000000000E+00 0.  1.
       11   -1    0    0    0    0 -0.00000000000E+00 -0.00000000000E+00 -0.65000000000E+04  0.65000000000E+04  0.00000000000E+00 0. -1.
       22    1    1    2    0    0  0.59989811570E+04  0.64822937771E+03  0.20850250063E+04  0.63839882147E+04  0.00000000000E+00 0.  1.
       22    1    1    2    0    0  0.36329266099E+02  0.14015861453E+03  0.67848620387E+02  0.15989899340E+03  0.00000000000E+00 0. -1.
       22    1    1    2    0    0 -0.60353104231E+04 -0.78838799224E+03 -0.21528736267E+04  0.64561127919E+04  0.00000000000E+00 0. -1.
</event>
<event>
 4   1  0.3671700E-05  0.8062258E+02  0.7546771E-02  0.1202337E+00
      -11   -1    0    0    0    0  0.00000000000E+00  0.00000000000E+00  0.65000000000E+04  0.65000000000E+04  0.00000000000E+00 0.  1.
       11   -1    0    0    0    0 -0.00000000000E+00 -0.00000000000E+00 -0.65000000000E+04  0.65000000000E+04  0.00000000000E+00 0. -1.
       22    1    1    2    0    0 -0.19381063436E+04  0.39000129454E+03 -0.61920628866E+04  0.65000000000E+04  0.00000000000E+00 0. -1.
       22    1    1    2    0    0  0.19381063436E+04 -0.39000129454E+03  0.61920628866E+04  0.65000000000E+04  0.00000000000E+00 0.  1.
</event>
<event>
 4   1  0.3671700E-05  0.8062258E+02  0.7546771E-02  0.1202337E+00
      -11   -1    0    0    0    0  0.00000000000E+00  0.00000000000E+00  0.65000000000E+04  0.65000000000E+04  0.00000000000E+00 0. -1.
       11   -1    0    0    0    0 -0.00000000000E+00 -0.00000000000E+00 -0.65000000000E+04  0.65000000000E+04  0.00000000000E+00 0.  1.
       22    1    1    2    0    0 -0.18079852329E+04  0.22137390997E+04 -0.58378547940E+04  0.65000000000E+04  0.00000000000E+00 0.  1.
       22    1    1    2    0    0  0.18079852329E+04 -0.22137390997E+04  0.58378547940E+04  0.65000000000E+04  0.00000000000E+00 0. -1.
</event>
<event>
 4   1  0.3671700E-05  0.8062258E+02  0.7546771E-02  0.1202337E+00
      -11   -1    0    0    0    0  0.00000000000E+00  0.00000000000E+00  0.65000000000E+04  0.65000000000E+04  0.00000000000E+00 0.  1.
       11   -1    0    0    0    0 -0.00000000000E+00 -0.00000000000E+00 -0.65000000000E+04  0.65000000000E+04  0.00000000000E+00 0. -1.
       22    1    1    2    0    0  0.11561228055E+04  0.64207649607E+03 -0.63640488552E+04  0.65000000000E+04  0.00000000000E+00 0. -1.
       22    1    1    2    0    0 -0.11561228055E+04 -0.64207649607E+03  0.63640488552E+04  0.65000000000E+04  0.00000000000E+00 0.  1.
</event>
<event>
 4   1  0.3671700E-05  0.8062258E+02  0.7546771E-02  0.1202337E+00
      -11   -1    0    0    0    0  0.00000000000E+00  0.00000000000E+00  0.65000000000E+04  0.65000000000E+04  0.00000000000E+00 0.  1.
       11   -1    0    0    0    0 -0.00000000000E+00 -0.00000000000E+00 -0.65000000000E+04  0.65000000000E+04  0.00000000000E+00 0. -1.
       22    1    1    2    0    0 -0.59358752233E+04  0.17396196938E+04  0.19972753075E+04  0.65000000000E+04  0.00000000000E+00 0.  1.
       22    1    1    2    0    0  0.59358752233E+04 -0.17396196938E+04 -0.19972753075E+04  0.65000000000E+04  0.00000000000E+00 0. -1.
</event>
<event>
 4   1  0.3671700E-05  0.8062258E+02  0.7546771E-02  0.1202337E+00
      -11   -1    0    0    0    0  0.00000000000E+00  0.00000000000E+00  0.65000000000E+04  0.65000000000E+04  0.00000000000E+00 0.  1.
       11   -1    0    0    0    0 -0.00000000000E+00 -0.00000000000E+00 -0.65000000000E+04  0.65000000000E+04  0.00000000000E+00 0. -1.
       22    1    1    2    0    0  0.15502351352E+04  0.28042384652E+03 -0.63061980219E+04  0.65000000000E+04  0.00000000000E+00 0. -1.
       22    1    1    2    0    0 -0.15502351352E+04 -0.28042384652E+03  0.63061980219E+04  0.65000000000E+04  0.00000000000E+00 0.  1.
</event>
<event>
 4   1  0.3671700E-05  0.8062258E+02  0.7546771E-02  0.1202337E+00
      -11   -1    0    0    0    0  0.00000000000E+00  0.00000000000E+00  0.65000000000E+04  0.65000000000E+04  0.00000000000E+00 0.  1.
       11   -1    0    0    0    0 -0.00000000000E+00 -0.00000000000E+00 -0.65000000000E+04  0.65000000000E+04  0.00000000000E+00 0. -1.
       22    1    1    2    0    0  0.15432470939E+04  0.80068074269E+03  0.62631700245E+04  0.65000000000E+04  0.00000000000E+00 0.  1.
       22    1    1    2    0    0 -0.15432470939E+04 -0.80068074269E+03 -0.62631700245E+04  0.65000000000E+04  0.00000000000E+00 0. -1.
</event>
<event>
 4   1  0.3671700E-05  0.8062258E+02  0.7546771E-02  0.1202337E+00
      -11   -1    0    0    0    0  0.00000000000E+00  0.00000000000E+00  0.65000000000E+04  0.65000000000E+04  0.00000000000E+00 0. -1.
       11   -1    0    0    0    0 -0.00000000000E+00 -0.00000000000E+00 -0.65000000000E+04  0.65000000000E+04  0.00000000000E+00 0.  1.
       22    1    1    2    0    0 -0.41058815073E+03  0.13064633003E+04  0.63540987571E+04  0.65000000000E+04  0.00000000000E+00 0. -1.
       22    1    1    2    0    0  0.41058815073E+03 -0.13064633003E+04 -0.63540987571E+04  0.65000000000E+04  0.00000000000E+00 0.  1.
</event>
<event>
 4   1  0.3671700E-05  0.8062258E+02  0.7546771E-02  0.1202337E+00
      -11   -1    0    0    0    0  0.00000000000E+00  0.00000000000E+00  0.65000000000E+04  0.65000000000E+04  0.00000000000E+00 0. -1.
       11   -1    0    0    0    0 -0.00000000000E+00 -0.00000000000E+00 -0.65000000000E+04  0.65000000000E+04  0.00000000000E+00 0.  1.
       22    1    1    2    0    0 -0.79468552086E+03  0.31697625814E+04 -0.56188148306E+04  0.65000000000E+04  0.00000000000E+00 0.  1.
       22    1    1    2    0    0  0.79468552086E+03 -0.31697625814E+04  0.56188148306E+04  0.65000000000E+04  0.00000000000E+00 0. -1.
</event>
<event>
 4   1  0.3671700E-05  0.8062258E+02  0.7546771E-02  0.1202337E+00
      -11   -1    0    0    0    0  0.00000000000E+00  0.00000000000E+00  0.65000000000E+04  0.65000000000E+04  0.00000000000E+00 0.  1.
       11   -1    0    0    0    0 -0.00000000000E+00 -0.00000000000E+00 -0.65000000000E+04  0.65000000000E+04  0.00000000000E+00 0. -1.
       22    1    1    2    0    0 -0.33136061613E+04  0.26441798840E+04 -0.49273042274E+04  0.65000000000E+04  0.00000000000E+00 0. -1.
       22    1    1    2    0    0  0.33136061613E+04 -0.26441798840E+04  0.49273042274E+04  0.65000000000E+04  0.00000000000E+00 0.  1.
</event>
<event>
 4   1  0.3671700E-05  0.8062258E+02  0.7546771E-02  0.1202337E+00
      -11   -1    0    0    0    0  0.00000000000E+00  0.00000000000E+00  0.65000000000E+04  0.65000000000E+04  0.00000000000E+00 0. -1.
       11   -1    0    0    0    0 -0.00000000000E+00 -0.00000000000E+00 -0.65000000000E+04  0.65000000000E+04  0.00000000000E+00 0.  1.
       22    1    1    2    0    0  0.23089380849E+04 -0.20257871185E+04  0.57284370880E+04  0.65000000000E+04  0.00000000000E+00 0. -1.
       22    1    1    2    0    0 -0.23089380849E+04  0.20257871185E+04 -0.57284370880E+04  0.65000000000E+04  0.00000000000E+00 0.  1.
</event>
<event>
 4   1  0.3671700E-05  0.8062258E+02  0.7546771E-02  0.1202337E+00
      -11   -1    0    0    0    0  0.00000000000E+00  0.00000000000E+00  0.65000000000E+04  0.65000000000E+04  0.00000000000E+00 0.  1.
       11   -1    0    0    0    0 -0.00000000000E+00 -0.00000000000E+00 -0.65000000000E+04  0.65000000000E+04  0.00000000000E+00 0. -1.
       22    1    1    2    0    0  0.11375079399E+04 -0.11615252107E+04 -0.62934040766E+04  0.65000000000E+04  0.00000000000E+00 0. -1.
       22    1    1    2    0    0 -0.11375079399E+04  0.11615252107E+04  0.62934040766E+04  0.65000000000E+04  0.00000000000E+00 0.  1.
</event>
<event>
 4   1  0.3671700E-05  0.8062258E+02  0.7546771E-02  0.1202337E+00
      -11   -1    0    0    0    0  0.00000000000E+00  0.00000000000E+00  0.65000000000E+04  0.65000000000E+04  0.00000000000E+00 0. -1.
       11   -1    0    0    0    0 -0.00000000000E+00 -0.00000000000E+00 -0.65000000000E+04  0.65000000000E+04  0.00000000000E+00 0.  1.
       22    1    1    2    0    0 -0.41158344472E+03  0.11627470360E+04  0.63818977114E+04  0.65000000000E+04  0.00000000000E+00 0. -1.
       22    1    1    2    0    0  0.41158344472E+03 -0.11627470360E+04 -0.63818977114E+04  0.65000000000E+04  0.00000000000E+00 0.  1.
</event>
<event>
 4   1  0.3671700E-05  0.8062258E+02  0.7546771E-02  0.1202337E+00
      -11   -1    0    0    0    0  0.00000000000E+00  0.00000000000E+00  0.65000000000E+04  0.65000000000E+04  0.00000000000E+00 0.  1.
       11   -1    0    0    0    0 -0.00000000000E+00 -0.00000000000E+00 -0.65000000000E+04  0.65000000000E+04  0.00000000000E+00 0. -1.
       22    1    1    2    0    0 -0.62447296404E+04 -0.17273914718E+04  0.51910540540E+03  0.65000000000E+04  0.00000000000E+00 0. -1.
       22    1    1    2    0    0  0.62447296404E+04  0.17273914718E+04 -0.51910540540E+03  0.65000000000E+04  0.00000000000E+00 0.  1.
</event>
<event>
 4   1  0.3671700E-05  0.8062258E+02  0.7546771E-02  0.1202337E+00
      -11   -1    0    0    0    0  0.00000000000E+00  0.00000000000E+00  0.65000000000E+04  0.65000000000E+04  0.00000000000E+00 0. -1.
       11   -1    0    0    0    0 -0.00000000000E+00 -0.00000000000E+00 -0.65000000000E+04  0.65000000000E+04  0.00000000000E+00 0.  1.
       22    1    1    2    0    0  0.16458425814E+04  0.58203555392E+04  0.23800553762E+04  0.65000000000E+04  0.00000000000E+00 0.  1.
       22    1    1    2    0    0 -0.16458425814E+04 -0.58203555392E+04 -0.23800553762E+04  0.65000000000E+04  0.00000000000E+00 0. -1.
</event>
<event>
 4   1  0.3671700E-05  0.8062258E+02  0.7546771E-02  0.1202337E+00
      -11   -1    0    0    0    0  0.00000000000E+00  0.00000000000E+00  0.65000000000E+04  0.65000000000E+04  0.00000000000E+00 0.  1.
       11   -1    0    0    0    0 -0.00000000000E+00 -0.00000000000E+00 -0.65000000000E+04  0.65000000000E+04  0.00000000000E+00 0. -1.
       22    1    1    2    0    0  0.12287094323E+04 -0.55523945249E+03  0.63586148084E+04  0.65000000000E+04  0.00000000000E+00 0.  1.
       22    1    1    2    0    0 -0.12287094323E+04  0.55523945249E+03 -0.63586148084E+04  0.65000000000E+04  0.00000000000E+00 0. -1.
</event>
<event>
 4   1  0.3671700E-05  0.8062258E+02  0.7546771E-02  0.1202337E+00
      -11   -1    0    0    0    0  0.00000000000E+00  0.00000000000E+00  0.65000000000E+04  0.65000000000E+04  0.00000000000E+00 0.  1.
       11   -1    0    0    0    0 -0.00000000000E+00 -0.00000000000E+00 -0.65000000000E+04  0.65000000000E+04  0.00000000000E+00 0. -1.
       22    1    1    2    0    0  0.26603861396E+03 -0.10991709164E+04 -0.64008629694E+04  0.65000000000E+04  0.00000000000E+00 0. -1.
       22    1    1    2    0    0 -0.26603861396E+03  0.10991709164E+04  0.64008629694E+04  0.65000000000E+04  0.00000000000E+00 0.  1.
</event>
<event>
 4   1  0.3671700E-05  0.8062258E+02  0.7546771E-02  0.1202337E+00
      -11   -1    0    0    0    0  0.00000000000E+00  0.00000000000E+00  0.65000000000E+04  0.65000000000E+04  0.00000000000E+00 0.  1.
       11   -1    0    0    0    0 -0.00000000000E+00 -0.00000000000E+00 -0.65000000000E+04  0.65000000000E+04  0.00000000000E+00 0. -1.
       22    1    1    2    0    0 -0.12614434741E+04  0.35518931595E+03  0.63665218850E+04  0.65000000000E+04  0.00000000000E+00 0.  1.
       22    1    1    2    0    0  0.12614434741E+04 -0.35518931595E+03 -0.63665218850E+04  0.65000000000E+04  0.00000000000E+00 0. -1.
</event>
<event>
 4   1  0.3671700E-05  0.8062258E+02  0.7546771E-02  0.1202337E+00
      -11   -1    0    0    0    0  0.00000000000E+00  0.00000000000E+00  0.65000000000E+04  0.65000000000E+04  0.00000000000E+00 0. -1.
       11   -1    0    0    0    0 -0.00000000000E+00 -0.00000000000E+00 -0.65000000000E+04  0.65000000000E+04  0.00000000000E+00 0.  1.
       22    1    1    2    0    0 -0.86096188020E+03 -0.14832912620E+04 -0.62696564238E+04  0.65000000000E+04  0.00000000000E+00 0.  1.
       22    1    1    2    0    0  0.86096188020E+03  0.14832912620E+04  0.62696564238E+04  0.65000000000E+04  0.00000000000E+00 0. -1.
</event>
<event>
 4   1  0.3671700E-05  0.8062258E+02  0.7546771E-02  0.1202337E+00
      -11   -1    0    0    0    0  0.00000000000E+00  0.00000000000E+00  0.65000000000E+04  0.65000000000E+04  0.00000000000E+00 0. -1.
       11   -1    0    0    0    0 -0.00000000000E+00 -0.00000000000E+00 -0.65000000000E+04  0.65000000000E+04  0.00000000000E+00 0.  1.
       22    1    1    2    0    0 -0.23493232038E+04  0.14594889417E+04 -0.58822251328E+04  0.65000000000E+04  0.00000000000E+00 0.  1.
       22    1    1    2    0    0  0.23493232038E+04 -0.14594889417E+04  0.58822251328E+04  0.65000000000E+04  0.00000000000E+00 0. -1.
</event>
<event>
 4   1  0.3671700E-05  0.8062258E+02  0.7546771E-02  0.1202337E+00
      -11   -1    0    0    0    0  0.00000000000E+00  0.00000000000E+00  0.65000000000E+04  0.65000000000E+04  0.00000000000E+00 0. -1.
       11   -1    0    0    0    0 -0.00000000000E+00 -0.00000000000E+00 -0.65000000000E+04  0.65000000000E+04  0.00000000000E+00 0.  1.
       22    1    1    2    0    0 -0.17079153684E+04  0.81084291930E+03  0.62189676679E+04  0.65000000000E+04  0.00000000000E+00 0. -1.
       22    1    1    2    0    0  0.17079153684E+04 -0.81084291930E+03 -0.62189676679E+04  0.65000000000E+04  0.00000000000E+00 0.  1.
</event>
<event>
 4   1  0.3671700E-05  0.8062258E+02  0.7546771E-02  0.1202337E+00
      -11   -1    0    0    0    0  0.00000000000E+00  0.00000000000E+00  0.65000000000E+04  0.65000000000E+04  0.00000000000E+00 0.  1.
       11   -1    0    0    0    0 -0.00000000000E+00 -0.00000000000E+00 -0.65000000000E+04  0.65000000000E+04  0.00000000000E+00 0. -1.
       22    1    1    2    0    0 -0.13295236834E+04  0.24419183088E+04 -0.58753214166E+04  0.65000000000E+04  0.00000000000E+00 0. -1.
       22    1    1    2    0    0  0.13295236834E+04 -0.24419183088E+04  0.58753214166E+04  0.65000000000E+04  0.00000000000E+00 0.  1.
</event>
<event>
 4   1  0.3671700E-05  0.8062258E+02  0.7546771E-02  0.1202337E+00
      -11   -1    0    0    0    0  0.00000000000E+00  0.00000000000E+00  0.65000000000E+04  0.65000000000E+04  0.00000000000E+00 0.  1.
       11   -1    0    0    0    0 -0.00000000000E+00 -0.00000000000E+00 -0.65000000000E+04  0.65000000000E+04  0.00000000000E+00 0. -1.
       22    1    1    2    0    0 -0.38802442468E+04 -0.11813216518E+04 -0.50791912486E+04  0.65000000000E+04  0.00000000000E+00 0. -1.
       22    1    1    2    0    0  0.38802442468E+04  0.11813216518E+04  0.50791912486E+04  0.65000000000E+04  0.00000000000E+00 0.  1.
</event>
<event>
 4   1  0.3671700E-05  0.8062258E+02  0.7546771E-02  0.1202337E+00
      -11   -1    0    0    0    0  0.00000000000E+00  0.00000000000E+00  0.65000000000E+04  0.65000000000E+04  0.00000000000E+00 0. -1.
       11   -1    0    0    0    0 -0.00000000000E+00 -0.00000000000E+00 -0.65000000000E+04  0.65000000000E+04  0.00000000000E+00 0.  1.
       22    1    1    2    0    0 -0.38363994308E+03 -0.62734808713E+04 -0.16571838014E+04  0.65000000000E+04  0.00000000000E+00 0.  1.
       22    1    1    2    0    0  0.38363994308E+03  0.62734808713E+04  0.16571838014E+04  0.65000000000E+04  0.00000000000E+00 0. -1.
</event>
<event>
 4   1  0.3671700E-05  0.8062258E+02  0.7546771E-02  0.1202337E+00
      -11   -1    0    0    0    0  0.00000000000E+00  0.00000000000E+00  0.65000000000E+04  0.65000000000E+04  0.00000000000E+00 0. -1.
       11   -1    0    0    0    0 -0.00000000000E+00 -0.00000000000E+00 -0.65000000000E+04  0.65000000000E+04  0.00000000000E+00 0.  1.
       22    1    1    2    0    0 -0.12675958872E+04 -0.12052612357E+04 -0.62602353007E+04  0.65000000000E+04  0.00000000000E+00 0.  1.
       22    1    1    2    0    0  0.12675958872E+04  0.12052612357E+04  0.62602353007E+04  0.65000000000E+04  0.00000000000E+00 0. -1.
</event>
<event>
 4   1  0.3671700E-05  0.8062258E+02  0.7546771E-02  0.1202337E+00
      -11   -1    0    0    0    0  0.00000000000E+00  0.00000000000E+00  0.65000000000E+04  0.65000000000E+04  0.00000000000E+00 0.  1.
       11   -1    0    0    0    0 -0.00000000000E+00 -0.00000000000E+00 -0.65000000000E+04  0.65000000000E+04  0.00000000000E+00 0. -1.
       22    1    1    2    0    0 -0.20274728307E+04 -0.24729758272E+04  0.56589525956E+04  0.65000000000E+04  0.00000000000E+00 0.  1.
       22    1    1    2    0    0  0.20274728307E+04  0.24729758272E+04 -0.56589525956E+04  0.65000000000E+04  0.00000000000E+00 0. -1.
</event>
<event>
 4   1  0.3671700E-05  0.8062258E+02  0.7546771E-02  0.1202337E+00
      -11   -1    0    0    0    0  0.00000000000E+00  0.00000000000E+00  0.65000000000E+04  0.65000000000E+04  0.00000000000E+00 0.  1.
       11   -1    0    0    0    0 -0.00000000000E+00 -0.00000000000E+00 -0.65000000000E+04  0.65000000000E+04  0.00000000000E+00 0. -1.
       22    1    1    2    0    0  0.16527080420E+04  0.16428913476E+04  0.60679044280E+04  0.65000000000E+04  0.00000000000E+00 0.  1.
       22    1    1    2    0    0 -0.16527080420E+04 -0.16428913476E+04 -0.60679044280E+04  0.65000000000E+04  0.00000000000E+00 0. -1.
</event>
<event>
 4   1  0.3671700E-05  0.8062258E+02  0.7546771E-02  0.1202337E+00
      -11   -1    0    0    0    0  0.00000000000E+00  0.00000000000E+00  0.65000000000E+04  0.65000000000E+04  0.00000000000E+00 0. -1.
       11   -1    0    0    0    0 -0.00000000000E+00 -0.00000000000E+00 -0.65000000000E+04  0.65000000000E+04  0.00000000000E+00 0.  1.
       22    1    1    2    0    0 -0.27833416685E+04  0.38572554395E+04  0.44299649695E+04  0.65000000000E+04  0.00000000000E+00 0. -1.
       22    1    1    2    0    0  0.27833416685E+04 -0.38572554395E+04 -0.44299649695E+04  0.65000000000E+04  0.00000000000E+00 0.  1.
</event>
<event>
 4   1  0.3671700E-05  0.8062258E+02  0.7546771E-02  0.1202337E+00
      -11   -1    0    0    0    0  0.00000000000E+00  0.00000000000E+00  0.65000000000E+04  0.65000000000E+04  0.00000000000E+00 0.  1.
       11   -1    0    0    0    0 -0.00000000000E+00 -0.00000000000E+00 -0.65000000000E+04  0.65000000000E+04  0.00000000000E+00 0. -1.
       22    1    1    2    0    0 -0.18845544865E+04  0.38001345240E+04 -0.49251834470E+04  0.65000000000E+04  0.00000000000E+00 0. -1.
       22    1    1    2    0    0  0.18845544865E+04 -0.38001345240E+04  0.49251834470E+04  0.65000000000E+04  0.00000000000E+00 0.  1.
</event>
<event>
 4   1  0.3671700E-05  0.8062258E+02  0.7546771E-02  0.1202337E+00
      -11   -1    0    0    0    0  0.00000000000E+00  0.00000000000E+00  0.65000000000E+04  0.65000000000E+04  0.00000000000E+00 0.  1.
       11   -1    0    0    0    0 -0.00000000000E+00 -0.00000000000E+00 -0.65000000000E+04  0.65000000000E+04  0.00000000000E+00 0. -1.
       22    1    1    2    0    0  0.25764443782E+04 -0.24666797632E+04 -0.54339143637E+04  0.65000000000E+04  0.00000000000E+00 0. -1.
       22    1    1    2    0    0 -0.25764443782E+04  0.24666797632E+04  0.54339143637E+04  0.65000000000E+04  0.00000000000E+00 0.  1.
</event>
<event>
 4   1  0.3671700E-05  0.8062258E+02  0.7546771E-02  0.1202337E+00
      -11   -1    0    0    0    0  0.00000000000E+00  0.00000000000E+00  0.65000000000E+04  0.65000000000E+04  0.00000000000E+00 0.  1.
       11   -1    0    0    0    0 -0.00000000000E+00 -0.00000000000E+00 -0.65000000000E+04  0.65000000000E+04  0.00000000000E+00 0. -1.
       22    1    1    2    0    0  0.13632250937E+04 -0.28462725126E+04  0.56824598659E+04  0.65000000000E+04  0.00000000000E+00 0.  1.
       22    1    1    2    0    0 -0.13632250937E+04  0.28462725126E+04 -0.56824598659E+04  0.65000000000E+04  0.00000000000E+00 0. -1.
</event>
<event>
 4   1  0.3671700E-05  0.8062258E+02  0.7546771E-02  0.1202337E+00
      -11   -1    0    0    0    0  0.00000000000E+00  0.00000000000E+00  0.65000000000E+04  0.65000000000E+04  0.00000000000E+00 0. -1.
       11   -1    0    0    0    0 -0.00000000000E+00 -0.00000000000E+00 -0.65000000000E+04  0.65000000000E+04  0.00000000000E+00 0.  1.
       22    1    1    2    0    0 -0.56367058001E+04 -0.32329911666E+04  0.15910952236E+03  0.65000000000E+04  0.00000000000E+00 0. -1.
       22    1    1    2    0    0  0.56367058001E+04  0.32329911666E+04 -0.15910952236E+03  0.65000000000E+04  0.00000000000E+00 0.  1.
</event>
<event>
 4   1  0.3671700E-05  0.8062258E+02  0.7546771E-02  0.1202337E+00
      -11   -1    0    0    0    0  0.00000000000E+00  0.00000000000E+00  0.65000000000E+04  0.65000000000E+04  0.00000000000E+00 0.  1.
       11   -1    0    0    0    0 -0.00000000000E+00 -0.00000000000E+00 -0.65000000000E+04  0.65000000000E+04  0.00000000000E+00 0. -1.
       22    1    1    2    0    0 -0.54347117261E+04 -0.60204371091E+03 -0.35144632341E+04  0.65000000000E+04  0.00000000000E+00 0. -1.
       22    1    1    2    0    0  0.54347117261E+04  0.60204371091E+03  0.35144632341E+04  0.65000000000E+04  0.00000000000E+00 0.  1.
</event>
<event>
 4   1  0.3671700E-05  0.8062258E+02  0.7546771E-02  0.1202337E+00
      -11   -1    0    0    0    0  0.00000000000E+00  0.00000000000E+00  0.65000000000E+04  0.65000000000E+04  0.00000000000E+00 0. -1.
       11   -1    0    0    0    0 -0.00000000000E+00 -0.00000000000E+00 -0.65000000000E+04  0.65000000000E+04  0.00000000000E+00 0.  1.
       22    1    1    2    0    0  0.27818424637E+04 -0.58423318465E+02 -0.58743458549E+04  0.65000000000E+04  0.00000000000E+00 0.  1.
       22    1    1    2    0    0 -0.27818424637E+04  0.58423318465E+02  0.58743458549E+04  0.65000000000E+04  0.00000000000E+00 0. -1.
</event>
<event>
 4   1  0.3671700E-05  0.8062258E+02  0.7546771E-02  0.1202337E+00
      -11   -1    0    0    0    0  0.00000000000E+00  0.00000000000E+00  0.65000000000E+04  0.65000000000E+04  0.00000000000E+00 0.  1.
       11   -1    0    0    0    0 -0.00000000000E+00 -0.00000000000E+00 -0.65000000000E+04  0.65000000000E+04  0.00000000000E+00 0. -1.
       22    1    1    2    0    0 -0.15336849870E+04 -0.60783567264E+03 -0.62871572396E+04  0.65000000000E+04  0.00000000000E+00 0. -1.
       22    1    1    2    0    0  0.15336849870E+04  0.60783567264E+03  0.62871572396E+04  0.65000000000E+04  0.00000000000E+00 0.  1.
</event>
<event>
 4   1  0.3671700E-05  0.8062258E+02  0.7546771E-02  0.1202337E+00
      -11   -1    0    0    0    0  0.00000000000E+00  0.00000000000E+00  0.65000000000E+04  0.65000000000E+04  0.00000000000E+00 0.  1.
       11   -1    0    0    0    0 -0.00000000000E+00 -0.00000000000E+00 -0.65000000000E+04  0.65000000000E+04  0.00000000000E+00 0. -1.
       22    1    1    2    0    0  0.16599756965E+04  0.18988784229E+03 -0.62815940090E+04  0.65000000000E+04  0.00000000000E+00 0. -1.
       22    1    1    2    0    0 -0.16599756965E+04 -0.18988784229E+03  0.62815940090E+04  0.65000000000E+04  0.00000000000E+00 0.  1.
</event>
<event>
 4   1  0.3671700E-05  0.8062258E+02  0.7546771E-02  0.1202337E+00
      -11   -1    0    0    0    0  0.00000000000E+00  0.00000000000E+00  0.65000000000E+04  0.65000000000E+04  0.00000000000E+00 0. -1.
       11   -1    0    0    0    0 -0.00000000000E+00 -0.00000000000E+00 -0.65000000000E+04  0.65000000000E+04  0.00000000000E+00 0.  1.
       22    1    1    2    0    0  0.63651222206E+04  0.35459676769E+03  0.12686529272E+04  0.65000000000E+04  0.00000000000E+00 0.  1.
       22    1    1    2    0    0 -0.63651222206E+04 -0.35459676769E+03 -0.12686529272E+04  0.65000000000E+04  0.00000000000E+00 0. -1.
</event>
<event>
 5   2  0.3671700E-05  0.7719449E+02  0.7546771E-02  0.1210427E+00
      -11   -1    0    0    0    0  0.00000000000E+00  0.00000000000E+00  0.65000000000E+04  0.65000000000E+04  0.00000000000E+00 0. -1.
       11   -1    0    0    0    0 -0.00000000000E+00 -0.00000000000E+00 -0.65000000000E+04  0.65000000000E+04  0.00000000000E+00 0.  1.
       22    1    1    2    0    0 -0.16110474372E+03  0.36289180181E+03 -0.95796906930E+03  0.10369908081E+04  0.00000000000E+00 0. -1.
       22    1    1    2    0    0 -0.11250099154E+04 -0.13913183348E+04  0.62080380116E+04  0.64607391196E+04  0.00000000000E+00 0. -1.
       22    1    1    2    0    0  0.12861146591E+04  0.10284265330E+04 -0.52500689423E+04  0.55022700723E+04  0.00000000000E+00 0.  1.
</event>
<event>
 4   1  0.3671700E-05  0.8062258E+02  0.7546771E-02  0.1202337E+00
      -11   -1    0    0    0    0  0.00000000000E+00  0.00000000000E+00  0.65000000000E+04  0.65000000000E+04  0.00000000000E+00 0. -1.
       11   -1    0    0    0    0 -0.00000000000E+00 -0.00000000000E+00 -0.65000000000E+04  0.65000000000E+04  0.00000000000E+00 0.  1.
       22    1    1    2    0    0 -0.41351685460E+04 -0.15471430378E+04 -0.47704014000E+04  0.65000000000E+04  0.00000000000E+00 0.  1.
       22    1    1    2    0    0  0.41351685460E+04  0.15471430378E+04  0.47704014000E+04  0.65000000000E+04  0.00000000000E+00 0. -1.
</event>
<event>
 4   1  0.3671700E-05  0.8062258E+02  0.7546771E-02  0.1202337E+00
      -11   -1    0    0    0    0  0.00000000000E+00  0.00000000000E+00  0.65000000000E+04  0.65000000000E+04  0.00000000000E+00 0.  1.
       11   -1    0    0    0    0 -0.00000000000E+00 -0.00000000000E+00 -0.65000000000E+04  0.65000000000E+04  0.00000000000E+00 0. -1.
       22    1    1    2    0    0  0.36059406271E+04 -0.46758326999E+04  0.27173113102E+04  0.65000000000E+04  0.00000000000E+00 0. -1.
       22    1    1    2    0    0 -0.36059406271E+04  0.46758326999E+04 -0.27173113102E+04  0.65000000000E+04  0.00000000000E+00 0.  1.
</event>
<event>
 4   1  0.3671700E-05  0.8062258E+02  0.7546771E-02  0.1202337E+00
      -11   -1    0    0    0    0  0.00000000000E+00  0.00000000000E+00  0.65000000000E+04  0.65000000000E+04  0.00000000000E+00 0. -1.
       11   -1    0    0    0    0 -0.00000000000E+00 -0.00000000000E+00 -0.65000000000E+04  0.65000000000E+04  0.00000000000E+00 0.  1.
       22    1    1    2    0    0  0.20422958972E+04  0.67799683534E+03 -0.61334613196E+04  0.65000000000E+04  0.00000000000E+00 0.  1.
       22    1    1    2    0    0 -0.20422958972E+04 -0.67799683534E+03  0.61334613196E+04  0.65000000000E+04  0.00000000000E+00 0. -1.
</event>
<event>
 4   1  0.3671700E-05  0.8062258E+02  0.7546771E-02  0.1202337E+00
      -11   -1    0    0    0    0  0.00000000000E+00  0.00000000000E+00  0.65000000000E+04  0.65000000000E+04  0.00000000000E+00 0.  1.
       11   -1    0    0    0    0 -0.00000000000E+00 -0.00000000000E+00 -0.65000000000E+04  0.65000000000E+04  0.00000000000E+00 0. -1.
       22    1    1    2    0    0  0.45220884994E+04 -0.11571564641E+04  0.45234615640E+04  0.65000000000E+04  0.00000000000E+00 0.  1.
       22    1    1    2    0    0 -0.45220884994E+04  0.11571564641E+04 -0.45234615640E+04  0.65000000000E+04  0.00000000000E+00 0. -1.
</event>
<event>
 4   1  0.3671700E-05  0.8062258E+02  0.7546771E-02  0.1202337E+00
      -11   -1    0    0    0    0  0.00000000000E+00  0.00000000000E+00  0.65000000000E+04  0.65000000000E+04  0.00000000000E+00 0. -1.
       11   -1    0    0    0    0 -0.00000000000E+00 -0.00000000000E+00 -0.65000000000E+04  0.65000000000E+04  0.00000000000E+00 0.  1.
       22    1    1    2    0    0 -0.36102002418E+04  0.43842040103E+04  0.31615201108E+04  0.65000000000E+04  0.00000000000E+00 0. -1.
       22    1    1    2    0    0  0.36102002418E+04 -0.43842040103E+04 -0.31615201108E+04  0.65000000000E+04  0.00000000000E+00 0.  1.
</event>
<event>
 4   1  0.3671700E-05  0.8062258E+02  0.7546771E-02  0.1202337E+00
      -11   -1    0    0    0    0  0.00000000000E+00  0.00000000000E+00  0.65000000000E+04  0.65000000000E+04  0.00000000000E+00 0. -1.
       11   -1    0    0    0    0 -0.00000000000E+00 -0.00000000000E+00 -0.65000000000E+04  0.65000000000E+04  0.00000000000E+00 0.  1.
       22    1    1    2    0    0 -0.20381955020E+03  0.23745612649E+04  0.60473065401E+04  0.65000000000E+04  0.00000000000E+00 0. -1.
       22    1    1    2    0    0  0.20381955020E+03 -0.23745612649E+04 -0.60473065401E+04  0.65000000000E+04  0.00000000000E+00 0.  1.
</event>
<event>
 4   1  0.3671700E-05  0.8062258E+02  0.7546771E-02  0.1202337E+00
      -11   -1    0    0    0    0  0.00000000000E+00  0.00000000000E+00  0.65000000000E+04  0.65000000000E+04  0.00000000000E+00 0. -1.
       11   -1    0    0    0    0 -0.00000000000E+00 -0.00000000000E+00 -0.65000000000E+04  0.65000000000E+04  0.00000000000E+00 0.  1.
       22    1    1    2    0    0  0.48862445129E+04 -0.27450129784E+04  0.32923423742E+04  0.65000000000E+04  0.00000000000E+00 0. -1.
       22    1    1    2    0    0 -0.48862445129E+04  0.27450129784E+04 -0.32923423742E+04  0.65000000000E+04  0.00000000000E+00 0.  1.
</event>
<event>
 4   1  0.3671700E-05  0.8062258E+02  0.7546771E-02  0.1202337E+00
      -11   -1    0    0    0    0  0.00000000000E+00  0.00000000000E+00  0.65000000000E+04  0.65000000000E+04  0.00000000000E+00 0.  1.
       11   -1    0    0    0    0 -0.00000000000E+00 -0.00000000000E+00 -0.65000000000E+04  0.65000000000E+04  0.00000000000E+00 0. -1.
       22    1    1    2    0    0 -0.10301073121E+04  0.56350312853E+03 -0.63930699315E+04  0.65000000000E+04  0.00000000000E+00 0. -1.
       22    1    1    2    0    0  0.10301073121E+04 -0.56350312853E+03  0.63930699315E+04  0.65000000000E+04  0.00000000000E+00 0.  1.
</event>
<event>
 4   1  0.3671700E-05  0.8062258E+02  0.7546771E-02  0.1202337E+00
      -11   -1    0    0    0    0  0.00000000000E+00  0.00000000000E+00  0.65000000000E+04  0.65000000000E+04  0.00000000000E+00 0.  1.
       11   -1    0    0    0    0 -0.00000000000E+00 -0.00000000000E+00 -0.65000000000E+04  0.65000000000E+04  0.00000000000E+00 0. -1.
       22    1    1    2    0    0 -0.47956181265E+04  0.25075960660E+04  0.36005567284E+04  0.65000000000E+04  0.00000000000E+00 0.  1.
       22    1    1    2    0    0  0.47956181265E+04 -0.25075960660E+04 -0.36005567284E+04  0.65000000000E+04  0.00000000000E+00 0. -1.
</event>
<event>
 4   1  0.3671700E-05  0.8062258E+02  0.7546771E-02  0.1202337E+00
      -11   -1    0    0    0    0  0.00000000000E+00  0.00000000000E+00  0.65000000000E+04  0.65000000000E+04  0.00000000000E+00 0.  1.
       11   -1    0    0    0    0 -0.00000000000E+00 -0.00000000000E+00 -0.65000000000E+04  0.65000000000E+04  0.00000000000E+00 0. -1.
       22    1    1    2    0    0 -0.14111366213E+04  0.18941400394E+04 -0.60556524791E+04  0.65000000000E+04  0.00000000000E+00 0. -1.
       22    1    1    2    0    0  0.14111366213E+04 -0.18941400394E+04  0.60556524791E+04  0.65000000000E+04  0.00000000000E+00 0.  1.
</event>
<event>
 4   1  0.3671700E-05  0.8062258E+02  0.7546771E-02  0.1202337E+00
      -11   -1    0    0    0    0  0.00000000000E+00  0.00000000000E+00  0.65000000000E+04  0.65000000000E+04  0.00000000000E+00 0.  1.
       11   -1    0    0    0    0 -0.00000000000E+00 -0.00000000000E+00 -0.65000000000E+04  0.65000000000E+04  0.00000000000E+00 0. -1.
       22    1    1    2    0    0  0.26869571053E+04  0.26301639331E+04 -0.53021221411E+04  0.65000000000E+04  0.00000000000E+00 0. -1.
       22    1    1    2    0    0 -0.26869571053E+04 -0.26301639331E+04  0.53021221411E+04  0.65000000000E+04  0.00000000000E+00 0.  1.
</event>
<event>
 4   1  0.3671700E-05  0.8062258E+02  0.7546771E-02  0.1202337E+00
      -11   -1    0    0    0    0  0.00000000000E+00  0.00000000000E+00  0.65000000000E+04  0.65000000000E+04  0.00000000000E+00 0. -1.
       11   -1    0    0    0    0 -0.00000000000E+00 -0.00000000000E+00 -0.65000000000E+04  0.65000000000E+04  0.00000000000E+00 0.  1.
       22    1    1    2    0    0 -0.57723749173E+04  0.23396394794E+04  0.18589714683E+04  0.65000000000E+04  0.00000000000E+00 0. -1.
       22    1    1    2    0    0  0.57723749173E+04 -0.23396394794E+04 -0.18589714683E+04  0.65000000000E+04  0.00000000000E+00 0.  1.
</event>
<event>
 4   1  0.3671700E-05  0.8062258E+02  0.7546771E-02  0.1202337E+00
      -11   -1    0    0    0    0  0.00000000000E+00  0.00000000000E+00  0.65000000000E+04  0.65000000000E+04  0.00000000000E+00 0. -1.
       11   -1    0    0    0    0 -0.00000000000E+00 -0.00000000000E+00 -0.65000000000E+04  0.65000000000E+04  0.00000000000E+00 0.  1.
       22    1    1    2    0    0  0.79389316584E+03  0.15670491301E+04  0.62581219759E+04  0.65000000000E+04  0.00000000000E+00 0. -1.
       22    1    1    2    0    0 -0.79389316584E+03 -0.15670491301E+04 -0.62581219759E+04  0.65000000000E+04  0.00000000000E+00 0.  1.
</event>
<event>
 4   1  0.3671700E-05  0.8062258E+02  0.7546771E-02  0.1202337E+00
      -11   -1    0    0    0    0  0.00000000000E+00  0.00000000000E+00  0.65000000000E+04  0.65000000000E+04  0.00000000000E+00 0.  1.
       11   -1    0    0    0    0 -0.00000000000E+00 -0.00000000000E+00 -0.65000000000E+04  0.65000000000E+04  0.00000000000E+00 0. -1.
       22    1    1    2    0    0 -0.12485065556E+04  0.46635600752E+03  0.63618977872E+04  0.65000000000E+04  0.00000000000E+00 0.  1.
       22    1    1    2    0    0  0.12485065556E+04 -0.46635600752E+03 -0.63618977872E+04  0.65000000000E+04  0.00000000000E+00 0. -1.
</event>
<event>
 4   1  0.3671700E-05  0.8062258E+02  0.7546771E-02  0.1202337E+00
      -11   -1    0    0    0    0  0.00000000000E+00  0.00000000000E+00  0.65000000000E+04  0.65000000000E+04  0.00000000000E+00 0.  1.
       11   -1    0    0    0    0 -0.00000000000E+00 -0.00000000000E+00 -0.65000000000E+04  0.65000000000E+04  0.00000000000E+00 0. -1.
       22    1    1    2    0    0 -0.23795193138E+04 -0.26972584331E+04  0.54141190216E+04  0.65000000000E+04  0.00000000000E+00 0.  1.
       22    1    1    2    0    0  0.23795193138E+04  0.26972584331E+04 -0.54141190216E+04  0.65000000000E+04  0.00000000000E+00 0. -1.
</event>
<event>
 4   1  0.3671700E-05  0.8062258E+02  0.7546771E-02  0.1202337E+00
      -11   -1    0    0    0    0  0.00000000000E+00  0.00000000000E+00  0.65000000000E+04  0.65000000000E+04  0.00000000000E+00 0. -1.
       11   -1    0    0    0    0 -0.00000000000E+00 -0.00000000000E+00 -0.65000000000E+04  0.65000000000E+04  0.00000000000E+00 0.  1.
       22    1    1    2    0    0  0.28674853420E+03  0.63106148500E+04 -0.15309851381E+04  0.65000000000E+04  0.00000000000E+00 0. -1.
       22    1    1    2    0    0 -0.28674853420E+03 -0.63106148500E+04  0.15309851381E+04  0.65000000000E+04  0.00000000000E+00 0.  1.
</event>
<event>
 4   1  0.3671700E-05  0.8062258E+02  0.7546771E-02  0.1202337E+00
      -11   -1    0    0    0    0  0.00000000000E+00  0.00000000000E+00  0.65000000000E+04  0.65000000000E+04  0.00000000000E+00 0.  1.
       11   -1    0    0    0    0 -0.00000000000E+00 -0.00000000000E+00 -0.65000000000E+04  0.65000000000E+04  0.00000000000E+00 0. -1.
       22    1    1    2    0    0  0.14336069350E+04  0.16877859015E+04 -0.61111496387E+04  0.65000000000E+04  0.00000000000E+00 0. -1.
       22    1    1    2    0    0 -0.14336069350E+04 -0.16877859015E+04  0.61111496387E+04  0.65000000000E+04  0.00000000000E+00 0.  1.
</event>
<event>
 4   1  0.3671700E-05  0.8062258E+02  0.7546771E-02  0.1202337E+00
      -11   -1    0    0    0    0  0.00000000000E+00  0.00000000000E+00  0.65000000000E+04  0.65000000000E+04  0.00000000000E+00 0. -1.
       11   -1    0    0    0    0 -0.00000000000E+00 -0.00000000000E+00 -0.65000000000E+04  0.65000000000E+04  0.00000000000E+00 0.  1.
       22    1    1    2    0    0 -0.44235899091E+04 -0.63529556600E+03  0.47199843071E+04  0.65000000000E+04  0.00000000000E+00 0. -1.
       22    1    1    2    0    0  0.44235899091E+04  0.63529556600E+03 -0.47199843071E+04  0.65000000000E+04  0.00000000000E+00 0.  1.
</event>
<event>
 4   1  0.3671700E-05  0.8062258E+02  0.7546771E-02  0.1202337E+00
      -11   -1    0    0    0    0  0.00000000000E+00  0.00000000000E+00  0.65000000000E+04  0.65000000000E+04  0.00000000000E+00 0. -1.
       11   -1    0    0    0    0 -0.00000000000E+00 -0.00000000000E+00 -0.65000000000E+04  0.65000000000E+04  0.00000000000E+00 0.  1.
       22    1    1    2    0    0  0.64260422161E+04 -0.52238592398E+03  0.82649524096E+03  0.65000000000E+04  0.00000000000E+00 0.  1.
       22    1    1    2    0    0 -0.64260422161E+04  0.52238592398E+03 -0.82649524096E+03  0.65000000000E+04  0.00000000000E+00 0. -1.
</event>
<event>
 4   1  0.3671700E-05  0.8062258E+02  0.7546771E-02  0.1202337E+00
      -11   -1    0    0    0    0  0.00000000000E+00  0.00000000000E+00  0.65000000000E+04  0.65000000000E+04  0.00000000000E+00 0. -1.
       11   -1    0    0    0    0 -0.00000000000E+00 -0.00000000000E+00 -0.65000000000E+04  0.65000000000E+04  0.00000000000E+00 0.  1.
       22    1    1    2    0    0 -0.39672257307E+03  0.12241932071E+04 -0.63713391208E+04  0.65000000000E+04  0.00000000000E+00 0.  1.
       22    1    1    2    0    0  0.39672257307E+03 -0.12241932071E+04  0.63713391208E+04  0.65000000000E+04  0.00000000000E+00 0. -1.
</event>
<event>
 4   1  0.3671700E-05  0.8062258E+02  0.7546771E-02  0.1202337E+00
      -11   -1    0    0    0    0  0.00000000000E+00  0.00000000000E+00  0.65000000000E+04  0.65000000000E+04  0.00000000000E+00 0. -1.
       11   -1    0    0    0    0 -0.00000000000E+00 -0.00000000000E+00 -0.65000000000E+04  0.65000000000E+04  0.00000000000E+00 0.  1.
       22    1    1    2    0    0  0.62937353314E+03 -0.12534017042E+04 -0.63468790065E+04  0.65000000000E+04  0.00000000000E+00 0.  1.
       22    1    1    2    0    0 -0.62937353314E+03  0.12534017042E+04  0.63468790065E+04  0.65000000000E+04  0.00000000000E+00 0. -1.
</event>
<event>
 4   1  0.3671700E-05  0.8062258E+02  0.7546771E-02  0.1202337E+00
      -11   -1    0    0    0    0  0.00000000000E+00  0.00000000000E+00  0.65000000000E+04  0.65000000000E+04  0.00000000000E+00 0.  1.
       11   -1    0    0    0    0 -0.00000000000E+00 -0.00000000000E+00 -0.65000000000E+04  0.65000000000E+04  0.00000000000E+00 0. -1.
       22    1    1    2    0    0 -0.63543095277E+04  0.13609181992E+04 -0.14370831865E+03  0.65000000000E+04  0.00000000000E+00 0. -1.
       22    1    1    2    0    0  0.63543095277E+04 -0.13609181992E+04  0.14370831865E+03  0.65000000000E+04  0.00000000000E+00 0.  1.
</event>
<event>
 4   1  0.3671700E-05  0.8062258E+02  0.7546771E-02  0.1202337E+00
      -11   -1    0    0    0    0  0.00000000000E+00  0.00000000000E+00  0.65000000000E+04  0.65000000000E+04  0.00000000000E+00 0. -1.
       11   -1    0    0    0    0 -0.00000000000E+00 -0.00000000000E+00 -0.65000000000E+04  0.65000000000E+04  0.00000000000E+00 0.  1.
       22    1    1    2    0    0 -0.71538735992E+03  0.12409100728E+04 -0.63402179077E+04  0.65000000000E+04  0.00000000000E+00 0.  1.
       22    1    1    2    0    0  0.71538735992E+03 -0.12409100728E+04  0.63402179077E+04  0.65000000000E+04  0.00000000000E+00 0. -1.
</event>
<event>
 4   1  0.3671700E-05  0.8062258E+02  0.7546771E-02  0.1202337E+00
      -11   -1    0    0    0    0  0.00000000000E+00  0.00000000000E+00  0.65000000000E+04  0.65000000000E+04  0.00000000000E+00 0.  1.
       11   -1    0    0    0    0 -0.00000000000E+00 -0.00000000000E+00 -0.65000000000E+04  0.65000000000E+04  0.00000000000E+00 0. -1.
       22    1    1    2    0    0 -0.63126361291E+04  0.56917041224E+03 -0.14410656277E+04  0.65000000000E+04  0.00000000000E+00 0.  1.
       22    1    1    2    0    0  0.63126361291E+04 -0.56917041224E+03  0.14410656277E+04  0.65000000000E+04  0.00000000000E+00 0. -1.
</event>
<event>
 4   1  0.3671700E-05  0.8062258E+02  0.7546771E-02  0.1202337E+00
      -11   -1    0    0    0    0  0.00000000000E+00  0.00000000000E+00  0.65000000000E+04  0.65000000000E+04  0.00000000000E+00 0. -1.
       11   -1    0    0    0    0 -0.00000000000E+00 -0.00000000000E+00 -0.65000000000E+04  0.65000000000E+04  0.00000000000E+00 0.  1.
       22    1    1    2    0    0  0.38841872729E+02 -0.13539932370E+04  0.63572945207E+04  0.65000000000E+04  0.00000000000E+00 0. -1.
       22    1    1    2    0    0 -0.38841872729E+02  0.13539932370E+04 -0.63572945207E+04  0.65000000000E+04  0.00000000000E+00 0.  1.
</event>
<event>
 4   1  0.3671700E-05  0.8062258E+02  0.7546771E-02  0.1202337E+00
      -11   -1    0    0    0    0  0.00000000000E+00  0.00000000000E+00  0.65000000000E+04  0.65000000000E+04  0.00000000000E+00 0.  1.
       11   -1    0    0    0    0 -0.00000000000E+00 -0.00000000000E+00 -0.65000000000E+04  0.65000000000E+04  0.00000000000E+00 0. -1.
       22    1    1    2    0    0 -0.20705367125E+04 -0.20751746383E+04  0.58014246477E+04  0.65000000000E+04  0.00000000000E+00 0.  1.
       22    1    1    2    0    0  0.20705367125E+04  0.20751746383E+04 -0.58014246477E+04  0.65000000000E+04  0.00000000000E+00 0. -1.
</event>
<event>
 4   1  0.3671700E-05  0.8062258E+02  0.7546771E-02  0.1202337E+00
      -11   -1    0    0    0    0  0.00000000000E+00  0.00000000000E+00  0.65000000000E+04  0.65000000000E+04  0.00000000000E+00 0. -1.
       11   -1    0    0    0    0 -0.00000000000E+00 -0.00000000000E+00 -0.65000000000E+04  0.65000000000E+04  0.00000000000E+00 0.  1.
       22    1    1    2    0    0  0.22648681339E+04  0.14686498135E+03  0.60908786733E+04  0.65000000000E+04  0.00000000000E+00 0. -1.
       22    1    1    2    0    0 -0.22648681339E+04 -0.14686498135E+03 -0.60908786733E+04  0.65000000000E+04  0.00000000000E+00 0.  1.
</event>
<event>
 4   1  0.3671700E-05  0.8062258E+02  0.7546771E-02  0.1202337E+00
      -11   -1    0    0    0    0  0.00000000000E+00  0.00000000000E+00  0.65000000000E+04  0.65000000000E+04  0.00000000000E+00 0.  1.
       11   -1    0    0    0    0 -0.00000000000E+00 -0.00000000000E+00 -0.65000000000E+04  0.65000000000E+04  0.00000000000E+00 0. -1.
       22    1    1    2    0    0 -0.11935899063E+04 -0.15614557948E+04 -0.61957403865E+04  0.65000000000E+04  0.00000000000E+00 0. -1.
       22    1    1    2    0    0  0.11935899063E+04  0.15614557948E+04  0.61957403865E+04  0.65000000000E+04  0.00000000000E+00 0.  1.
</event>
<event>
 4   1  0.3671700E-05  0.8062258E+02  0.7546771E-02  0.1202337E+00
      -11   -1    0    0    0    0  0.00000000000E+00  0.00000000000E+00  0.65000000000E+04  0.65000000000E+04  0.00000000000E+00 0.  1.
       11   -1    0    0    0    0 -0.00000000000E+00 -0.00000000000E+00 -0.65000000000E+04  0.65000000000E+04  0.00000000000E+00 0. -1.
       22    1    1    2    0    0 -0.40706378940E+04  0.49381824851E+04  0.11376558709E+04  0.65000000000E+04  0.00000000000E+00 0. -1.
       22    1    1    2    0    0  0.40706378940E+04 -0.49381824851E+04 -0.11376558709E+04  0.65000000000E+04  0.00000000000E+00 0.  1.
</event>
<event>
 4   1  0.3671700E-05  0.8062258E+02  0.7546771E-02  0.1202337E+00
      -11   -1    0    0    0    0  0.00000000000E+00  0.00000000000E+00  0.65000000000E+04  0.65000000000E+04  0.00000000000E+00 0. -1.
       11   -1    0    0    0    0 -0.00000000000E+00 -0.00000000000E+00 -0.65000000000E+04  0.65000000000E+04  0.00000000000E+00 0.  1.
       22    1    1    2    0    0 -0.83925456420E+01 -0.13746394404E+04  0.63529753639E+04  0.65000000000E+04  0.00000000000E+00 0. -1.
       22    1    1    2    0    0  0.83925456420E+01  0.13746394404E+04 -0.63529753639E+04  0.65000000000E+04  0.00000000000E+00 0.  1.
</event>
<event>
 4   1  0.3671700E-05  0.8062258E+02  0.7546771E-02  0.1202337E+00
      -11   -1    0    0    0    0  0.00000000000E+00  0.00000000000E+00  0.65000000000E+04  0.65000000000E+04  0.00000000000E+00 0.  1.
       11   -1    0    0    0    0 -0.00000000000E+00 -0.00000000000E+00 -0.65000000000E+04  0.65000000000E+04  0.00000000000E+00 0. -1.
       22    1    1    2    0    0 -0.49014556796E+04  0.13562963018E+04 -0.40479862355E+04  0.65000000000E+04  0.00000000000E+00 0. -1.
       22    1    1    2    0    0  0.49014556796E+04 -0.13562963018E+04  0.40479862355E+04  0.65000000000E+04  0.00000000000E+00 0.  1.
</event>
<event>
 4   1  0.3671700E-05  0.8062258E+02  0.7546771E-02  0.1202337E+00
      -11   -1    0    0    0    0  0.00000000000E+00  0.00000000000E+00  0.65000000000E+04  0.65000000000E+04  0.00000000000E+00 0. -1.
       11   -1    0    0    0    0 -0.00000000000E+00 -0.00000000000E+00 -0.65000000000E+04  0.65000000000E+04  0.00000000000E+00 0.  1.
       22    1    1    2    0    0  0.41857126977E+04 -0.30161552147E+04  0.39538104321E+04  0.65000000000E+04  0.00000000000E+00 0. -1.
       22    1    1    2    0    0 -0.41857126977E+04  0.30161552147E+04 -0.39538104321E+04  0.65000000000E+04  0.00000000000E+00 0.  1.
</event>
<event>
 4   1  0.3671700E-05  0.8062258E+02  0.7546771E-02  0.1202337E+00
      -11   -1    0    0    0    0  0.00000000000E+00  0.00000000000E+00  0.65000000000E+04  0.65000000000E+04  0.00000000000E+00 0. -1.
       11   -1    0    0    0    0 -0.00000000000E+00 -0.00000000000E+00 -0.65000000000E+04  0.65000000000E+04  0.00000000000E+00 0.  1.
       22    1    1    2    0    0  0.42350162912E+03  0.29518585362E+04 -0.57755672927E+04  0.65000000000E+04  0.00000000000E+00 0.  1.
       22    1    1    2    0    0 -0.42350162912E+03 -0.29518585362E+04  0.57755672927E+04  0.65000000000E+04  0.00000000000E+00 0. -1.
</event>
<event>
 4   1  0.3671700E-05  0.8062258E+02  0.7546771E-02  0.1202337E+00
      -11   -1    0    0    0    0  0.00000000000E+00  0.00000000000E+00  0.65000000000E+04  0.65000000000E+04  0.00000000000E+00 0. -1.
       11   -1    0    0    0    0 -0.00000000000E+00 -0.00000000000E+00 -0.65000000000E+04  0.65000000000E+04  0.00000000000E+00 0.  1.
       22    1    1    2    0    0 -0.35863614108E+04  0.33530326500E+02  0.54209673997E+04  0.65000000000E+04  0.00000000000E+00 0. -1.
       22    1    1    2    0    0  0.35863614108E+04 -0.33530326500E+02 -0.54209673997E+04  0.65000000000E+04  0.00000000000E+00 0.  1.
</event>
<event>
 4   1  0.3671700E-05  0.8062258E+02  0.7546771E-02  0.1202337E+00
      -11   -1    0    0    0    0  0.00000000000E+00  0.00000000000E+00  0.65000000000E+04  0.65000000000E+04  0.00000000000E+00 0. -1.
       11   -1    0    0    0    0 -0.00000000000E+00 -0.00000000000E+00 -0.65000000000E+04  0.65000000000E+04  0.00000000000E+00 0.  1.
       22    1    1    2    0    0  0.56041933907E+03  0.29350863794E+04  0.57724516550E+04  0.65000000000E+04  0.00000000000E+00 0. -1.
       22    1    1    2    0    0 -0.56041933907E+03 -0.29350863794E+04 -0.57724516550E+04  0.65000000000E+04  0.00000000000E+00 0.  1.
</event>
<event>
 4   1  0.3671700E-05  0.8062258E+02  0.7546771E-02  0.1202337E+00
      -11   -1    0    0    0    0  0.00000000000E+00  0.00000000000E+00  0.65000000000E+04  0.65000000000E+04  0.00000000000E+00 0.  1.
       11   -1    0    0    0    0 -0.00000000000E+00 -0.00000000000E+00 -0.65000000000E+04  0.65000000000E+04  0.00000000000E+00 0. -1.
       22    1    1    2    0    0 -0.21462106047E+04  0.33233821587E+04 -0.51574132147E+04  0.65000000000E+04  0.00000000000E+00 0. -1.
       22    1    1    2    0    0  0.21462106047E+04 -0.33233821587E+04  0.51574132147E+04  0.65000000000E+04  0.00000000000E+00 0.  1.
</event>
<event>
 4   1  0.3671700E-05  0.8062258E+02  0.7546771E-02  0.1202337E+00
      -11   -1    0    0    0    0  0.00000000000E+00  0.00000000000E+00  0.65000000000E+04  0.65000000000E+04  0.00000000000E+00 0. -1.
       11   -1    0    0    0    0 -0.00000000000E+00 -0.00000000000E+00 -0.65000000000E+04  0.65000000000E+04  0.00000000000E+00 0.  1.
       22    1    1    2    0    0 -0.21987362691E+04  0.50998206395E+04  0.33774825335E+04  0.65000000000E+04  0.00000000000E+00 0. -1.
       22    1    1    2    0    0  0.21987362691E+04 -0.50998206395E+04 -0.33774825335E+04  0.65000000000E+04  0.00000000000E+00 0.  1.
</event>
<event>
 4   1  0.3671700E-05  0.8062258E+02  0.7546771E-02  0.1202337E+00
      -11   -1    0    0    0    0  0.00000000000E+00  0.00000000000E+00  0.65000000000E+04  0.65000000000E+04  0.00000000000E+00 0. -1.
       11   -1    0    0    0    0 -0.00000000000E+00 -0.00000000000E+00 -0.65000000000E+04  0.65000000000E+04  0.00000000000E+00 0.  1.
       22    1    1    2    0    0 -0.19440544459E+04  0.18282935403E+04 -0.59268874666E+04  0.65000000000E+04  0.00000000000E+00 0.  1.
       22    1    1    2    0    0  0.19440544459E+04 -0.18282935403E+04  0.59268874666E+04  0.65000000000E+04  0.00000000000E+00 0. -1.
</event>
<event>
 4   1  0.3671700E-05  0.8062258E+02  0.7546771E-02  0.1202337E+00
      -11   -1    0    0    0    0  0.00000000000E+00  0.00000000000E+00  0.65000000000E+04  0.65000000000E+04  0.00000000000E+00 0.  1.
       11   -1    0    0    0    0 -0.00000000000E+00 -0.00000000000E+00 -0.65000000000E+04  0.65000000000E+04  0.00000000000E+00 0. -1.
       22    1    1    2    0    0 -0.10205295864E+04  0.37279335190E+03  0.64085524481E+04  0.65000000000E+04  0.00000000000E+00 0.  1.
       22    1    1    2    0    0  0.10205295864E+04 -0.37279335190E+03 -0.64085524481E+04  0.65000000000E+04  0.00000000000E+00 0. -1.
</event>
<event>
 4   1  0.3671700E-05  0.8062258E+02  0.7546771E-02  0.1202337E+00
      -11   -1    0    0    0    0  0.00000000000E+00  0.00000000000E+00  0.65000000000E+04  0.65000000000E+04  0.00000000000E+00 0. -1.
       11   -1    0    0    0    0 -0.00000000000E+00 -0.00000000000E+00 -0.65000000000E+04  0.65000000000E+04  0.00000000000E+00 0.  1.
       22    1    1    2    0    0 -0.31818444290E+04  0.35264898331E+04 -0.44373117409E+04  0.65000000000E+04  0.00000000000E+00 0.  1.
       22    1    1    2    0    0  0.31818444290E+04 -0.35264898331E+04  0.44373117409E+04  0.65000000000E+04  0.00000000000E+00 0. -1.
</event>
<event>
 4   1  0.3671700E-05  0.8062258E+02  0.7546771E-02  0.1202337E+00
      -11   -1    0    0    0    0  0.00000000000E+00  0.00000000000E+00  0.65000000000E+04  0.65000000000E+04  0.00000000000E+00 0.  1.
       11   -1    0    0    0    0 -0.00000000000E+00 -0.00000000000E+00 -0.65000000000E+04  0.65000000000E+04  0.00000000000E+00 0. -1.
       22    1    1    2    0    0 -0.16407874195E+04 -0.58634973461E+04 -0.22753495371E+04  0.65000000000E+04  0.00000000000E+00 0. -1.
       22    1    1    2    0    0  0.16407874195E+04  0.58634973461E+04  0.22753495371E+04  0.65000000000E+04  0.00000000000E+00 0.  1.
</event>
<event>
 4   1  0.3671700E-05  0.8062258E+02  0.7546771E-02  0.1202337E+00
      -11   -1    0    0    0    0  0.00000000000E+00  0.00000000000E+00  0.65000000000E+04  0.65000000000E+04  0.00000000000E+00 0. -1.
       11   -1    0    0    0    0 -0.00000000000E+00 -0.00000000000E+00 -0.65000000000E+04  0.65000000000E+04  0.00000000000E+00 0.  1.
       22    1    1    2    0    0 -0.61810033621E+04  0.15738297909E+04 -0.12523007733E+04  0.65000000000E+04  0.00000000000E+00 0.  1.
       22    1    1    2    0    0  0.61810033621E+04 -0.15738297909E+04  0.12523007733E+04  0.65000000000E+04  0.00000000000E+00 0. -1.
</event>
<event>
 5   2  0.3671700E-05  0.8049700E+02  0.7546771E-02  0.1202626E+00
      -11   -1    0    0    0    0  0.00000000000E+00  0.00000000000E+00  0.65000000000E+04  0.65000000000E+04  0.00000000000E+00 0. -1.
       11   -1    0    0    0    0 -0.00000000000E+00 -0.00000000000E+00 -0.65000000000E+04  0.65000000000E+04  0.00000000000E+00 0.  1.
       22    1    1    2    0    0  0.27781750375E+04 -0.23935950446E+04  0.53368349789E+04  0.64752885162E+04  0.00000000000E+00 0. -1.
       22    1    1    2    0    0 -0.28025358020E+04  0.24222614427E+04 -0.53220936574E+04  0.64843070807E+04  0.00000000000E+00 0.  1.
       22    1    1    2    0    0  0.24360764537E+02 -0.28666398131E+02 -0.14741321495E+02  0.40404403102E+02  0.00000000000E+00 0.  1.
</event>
<event>
 4   1  0.3671700E-05  0.8062258E+02  0.7546771E-02  0.1202337E+00
      -11   -1    0    0    0    0  0.00000000000E+00  0.00000000000E+00  0.65000000000E+04  0.65000000000E+04  0.00000000000E+00 0.  1.
       11   -1    0    0    0    0 -0.00000000000E+00 -0.00000000000E+00 -0.65000000000E+04  0.65000000000E+04  0.00000000000E+00 0. -1.
       22    1    1    2    0    0  0.41194756252E+04  0.92395353405E+03  0.49422899996E+04  0.65000000000E+04  0.00000000000E+00 0.  1.
       22    1    1    2    0    0 -0.41194756252E+04 -0.92395353405E+03 -0.49422899996E+04  0.65000000000E+04  0.00000000000E+00 0. -1.
</event>
<event>
 4   1  0.3671700E-05  0.8062258E+02  0.7546771E-02  0.1202337E+00
      -11   -1    0    0    0    0  0.00000000000E+00  0.00000000000E+00  0.65000000000E+04  0.65000000000E+04  0.00000000000E+00 0.  1.
       11   -1    0    0    0    0 -0.00000000000E+00 -0.00000000000E+00 -0.65000000000E+04  0.65000000000E+04  0.00000000000E+00 0. -1.
       22    1    1    2    0    0 -0.49593582266E+03  0.52951721068E+04  0.37370041503E+04  0.65000000000E+04  0.00000000000E+00 0.  1.
       22    1    1    2    0    0  0.49593582266E+03 -0.52951721068E+04 -0.37370041503E+04  0.65000000000E+04  0.00000000000E+00 0. -1.
</event>
<event>
 4   1  0.3671700E-05  0.8062258E+02  0.7546771E-02  0.1202337E+00
      -11   -1    0    0    0    0  0.00000000000E+00  0.00000000000E+00  0.65000000000E+04  0.65000000000E+04  0.00000000000E+00 0.  1.
       11   -1    0    0    0    0 -0.00000000000E+00 -0.00000000000E+00 -0.65000000000E+04  0.65000000000E+04  0.00000000000E+00 0. -1.
       22    1    1    2    0    0  0.74846897430E+03 -0.38682560684E+04  0.51697571688E+04  0.65000000000E+04  0.00000000000E+00 0.  1.
       22    1    1    2    0    0 -0.74846897430E+03  0.38682560684E+04 -0.51697571688E+04  0.65000000000E+04  0.00000000000E+00 0. -1.
</event>
<event>
 4   1  0.3671700E-05  0.8062258E+02  0.7546771E-02  0.1202337E+00
      -11   -1    0    0    0    0  0.00000000000E+00  0.00000000000E+00  0.65000000000E+04  0.65000000000E+04  0.00000000000E+00 0.  1.
       11   -1    0    0    0    0 -0.00000000000E+00 -0.00000000000E+00 -0.65000000000E+04  0.65000000000E+04  0.00000000000E+00 0. -1.
       22    1    1    2    0    0 -0.44639332476E+03  0.15259679484E+04 -0.63025514532E+04  0.65000000000E+04  0.00000000000E+00 0. -1.
       22    1    1    2    0    0  0.44639332476E+03 -0.15259679484E+04  0.63025514532E+04  0.65000000000E+04  0.00000000000E+00 0.  1.
</event>
<event>
 4   1  0.3671700E-05  0.8062258E+02  0.7546771E-02  0.1202337E+00
      -11   -1    0    0    0    0  0.00000000000E+00  0.00000000000E+00  0.65000000000E+04  0.65000000000E+04  0.00000000000E+00 0. -1.
       11   -1    0    0    0    0 -0.00000000000E+00 -0.00000000000E+00 -0.65000000000E+04  0.65000000000E+04  0.00000000000E+00 0.  1.
       22    1    1    2    0    0  0.35609798781E+04 -0.44061736813E+04  0.31866998287E+04  0.65000000000E+04  0.00000000000E+00 0. -1.
       22    1    1    2    0    0 -0.35609798781E+04  0.44061736813E+04 -0.31866998287E+04  0.65000000000E+04  0.00000000000E+00 0.  1.
</event>
<event>
 4   1  0.3671700E-05  0.8062258E+02  0.7546771E-02  0.1202337E+00
      -11   -1    0    0    0    0  0.00000000000E+00  0.00000000000E+00  0.65000000000E+04  0.65000000000E+04  0.00000000000E+00 0.  1.
       11   -1    0    0    0    0 -0.00000000000E+00 -0.00000000000E+00 -0.65000000000E+04  0.65000000000E+04  0.00000000000E+00 0. -1.
       22    1    1    2    0    0  0.13528395200E+03  0.11732978674E+04 -0.63917971156E+04  0.65000000000E+04  0.00000000000E+00 0. -1.
       22    1    1    2    0    0 -0.13528395200E+03 -0.11732978674E+04  0.63917971156E+04  0.65000000000E+04  0.00000000000E+00 0.  1.
</event>
<event>
 4   1  0.3671700E-05  0.8062258E+02  0.7546771E-02  0.1202337E+00
      -11   -1    0    0    0    0  0.00000000000E+00  0.00000000000E+00  0.65000000000E+04  0.65000000000E+04  0.00000000000E+00 0. -1.
       11   -1    0    0    0    0 -0.00000000000E+00 -0.00000000000E+00 -0.65000000000E+04  0.65000000000E+04  0.00000000000E+00 0.  1.
       22    1    1    2    0    0 -0.14260039020E+04  0.33307708077E+04 -0.53965246870E+04  0.65000000000E+04  0.00000000000E+00 0.  1.
       22    1    1    2    0    0  0.14260039020E+04 -0.33307708077E+04  0.53965246870E+04  0.65000000000E+04  0.00000000000E+00 0. -1.
</event>
<event>
 4   1  0.3671700E-05  0.8062258E+02  0.7546771E-02  0.1202337E+00
      -11   -1    0    0    0    0  0.00000000000E+00  0.00000000000E+00  0.65000000000E+04  0.65000000000E+04  0.00000000000E+00 0.  1.
       11   -1    0    0    0    0 -0.00000000000E+00 -0.00000000000E+00 -0.65000000000E+04  0.65000000000E+04  0.00000000000E+00 0. -1.
       22    1    1    2    0    0 -0.94800338809E+03 -0.79278885751E+03  0.63814399162E+04  0.65000000000E+04  0.00000000000E+00 0.  1.
       22    1    1    2    0    0  0.94800338809E+03  0.79278885751E+03 -0.63814399162E+04  0.65000000000E+04  0.00000000000E+00 0. -1.
</event>
<event>
 4   1  0.3671700E-05  0.8062258E+02  0.7546771E-02  0.1202337E+00
      -11   -1    0    0    0    0  0.00000000000E+00  0.00000000000E+00  0.65000000000E+04  0.65000000000E+04  0.00000000000E+00 0.  1.
       11   -1    0    0    0    0 -0.00000000000E+00 -0.00000000000E+00 -0.65000000000E+04  0.65000000000E+04  0.00000000000E+00 0. -1.
       22    1    1    2    0    0 -0.12160955404E+04  0.27769206053E+04  0.57497672638E+04  0.65000000000E+04  0.00000000000E+00 0.  1.
       22    1    1    2    0    0  0.12160955404E+04 -0.27769206053E+04 -0.57497672638E+04  0.65000000000E+04  0.00000000000E+00 0. -1.
</event>
<event>
 4   1  0.3671700E-05  0.8062258E+02  0.7546771E-02  0.1202337E+00
      -11   -1    0    0    0    0  0.00000000000E+00  0.00000000000E+00  0.65000000000E+04  0.65000000000E+04  0.00000000000E+00 0.  1.
       11   -1    0    0    0    0 -0.00000000000E+00 -0.00000000000E+00 -0.65000000000E+04  0.65000000000E+04  0.00000000000E+00 0. -1.
       22    1    1    2    0    0  0.64921334763E+03  0.12508830011E+04 -0.63453773526E+04  0.65000000000E+04  0.00000000000E+00 0. -1.
       22    1    1    2    0    0 -0.64921334763E+03 -0.12508830011E+04  0.63453773526E+04  0.65000000000E+04  0.00000000000E+00 0.  1.
</event>
<event>
 4   1  0.3671700E-05  0.8062258E+02  0.7546771E-02  0.1202337E+00
      -11   -1    0    0    0    0  0.00000000000E+00  0.00000000000E+00  0.65000000000E+04  0.65000000000E+04  0.00000000000E+00 0.  1.
       11   -1    0    0    0    0 -0.00000000000E+00 -0.00000000000E+00 -0.65000000000E+04  0.65000000000E+04  0.00000000000E+00 0. -1.
       22    1    1    2    0    0  0.94388192308E+03  0.76828465372E+03 -0.63850470324E+04  0.65000000000E+04  0.00000000000E+00 0. -1.
       22    1    1    2    0    0 -0.94388192308E+03 -0.76828465372E+03  0.63850470324E+04  0.65000000000E+04  0.00000000000E+00 0.  1.
</event>
<event>
 4   1  0.3671700E-05  0.8062258E+02  0.7546771E-02  0.1202337E+00
      -11   -1    0    0    0    0  0.00000000000E+00  0.00000000000E+00  0.65000000000E+04  0.65000000000E+04  0.00000000000E+00 0. -1.
       11   -1    0    0    0    0 -0.00000000000E+00 -0.00000000000E+00 -0.65000000000E+04  0.65000000000E+04  0.00000000000E+00 0.  1.
       22    1    1    2    0    0  0.48977315934E+02 -0.16554818310E+04 -0.62854579093E+04  0.65000000000E+04  0.00000000000E+00 0.  1.
       22    1    1    2    0    0 -0.48977315934E+02  0.16554818310E+04  0.62854579093E+04  0.65000000000E+04  0.00000000000E+00 0. -1.
</event>
<event>
 4   1  0.3671700E-05  0.8062258E+02  0.7546771E-02  0.1202337E+00
      -11   -1    0    0    0    0  0.00000000000E+00  0.00000000000E+00  0.65000000000E+04  0.65000000000E+04  0.00000000000E+00 0. -1.
       11   -1    0    0    0    0 -0.00000000000E+00 -0.00000000000E+00 -0.65000000000E+04  0.65000000000E+04  0.00000000000E+00 0.  1.
       22    1    1    2    0    0 -0.13078322431E+04  0.30430911728E+03  0.63597932974E+04  0.65000000000E+04  0.00000000000E+00 0. -1.
       22    1    1    2    0    0  0.13078322431E+04 -0.30430911728E+03 -0.63597932974E+04  0.65000000000E+04  0.00000000000E+00 0.  1.
</event>
<event>
 4   1  0.3671700E-05  0.8062258E+02  0.7546771E-02  0.1202337E+00
      -11   -1    0    0    0    0  0.00000000000E+00  0.00000000000E+00  0.65000000000E+04  0.65000000000E+04  0.00000000000E+00 0. -1.
       11   -1    0    0    0    0 -0.00000000000E+00 -0.00000000000E+00 -0.65000000000E+04  0.65000000000E+04  0.00000000000E+00 0.  1.
       22    1    1    2    0    0  0.64324190207E+03  0.11504657912E+04 -0.63649562700E+04  0.65000000000E+04  0.00000000000E+00 0.  1.
       22    1    1    2    0    0 -0.64324190207E+03 -0.11504657912E+04  0.63649562700E+04  0.65000000000E+04  0.00000000000E+00 0. -1.
</event>
<event>
 4   1  0.3671700E-05  0.8062258E+02  0.7546771E-02  0.1202337E+00
      -11   -1    0    0    0    0  0.00000000000E+00  0.00000000000E+00  0.65000000000E+04  0.65000000000E+04  0.00000000000E+00 0.  1.
       11   -1    0    0    0    0 -0.00000000000E+00 -0.00000000000E+00 -0.65000000000E+04  0.65000000000E+04  0.00000000000E+00 0. -1.
       22    1    1    2    0    0  0.14674640931E+04 -0.30919947081E+04  0.55259494986E+04  0.65000000000E+04  0.00000000000E+00 0.  1.
       22    1    1    2    0    0 -0.14674640931E+04  0.30919947081E+04 -0.55259494986E+04  0.65000000000E+04  0.00000000000E+00 0. -1.
</event>
<event>
 4   1  0.3671700E-05  0.8062258E+02  0.7546771E-02  0.1202337E+00
      -11   -1    0    0    0    0  0.00000000000E+00  0.00000000000E+00  0.65000000000E+04  0.65000000000E+04  0.00000000000E+00 0.  1.
       11   -1    0    0    0    0 -0.00000000000E+00 -0.00000000000E+00 -0.65000000000E+04  0.65000000000E+04  0.00000000000E+00 0. -1.
       22    1    1    2    0    0  0.10743886966E+04  0.16255662245E+03  0.64085305861E+04  0.65000000000E+04  0.00000000000E+00 0.  1.
       22    1    1    2    0    0 -0.10743886966E+04 -0.16255662245E+03 -0.64085305861E+04  0.65000000000E+04  0.00000000000E+00 0. -1.
</event>
<event>
 5   2  0.3671700E-05  0.7833431E+02  0.7546771E-02  0.1207686E+00
      -11   -1    0    0    0    0  0.00000000000E+00  0.00000000000E+00  0.65000000000E+04  0.65000000000E+04  0.00000000000E+00 0. -1.
       11   -1    0    0    0    0 -0.00000000000E+00 -0.00000000000E+00 -0.65000000000E+04  0.65000000000E+04  0.00000000000E+00 0.  1.
       22    1    1    2    0    0 -0.52457251659E+03 -0.41718741163E+03  0.22537400146E+03  0.70711745992E+03  0.00000000000E+00 0. -1.
       22    1    1    2    0    0 -0.39608728368E+04  0.84588153411E+03 -0.45193388189E+04  0.60686450348E+04  0.00000000000E+00 0.  1.
       22    1    1    2    0    0  0.44854453534E+04 -0.42869412248E+03  0.42939648174E+04  0.62242375053E+04  0.00000000000E+00 0. -1.
</event>
<event>
 4   1  0.3671700E-05  0.8062258E+02  0.7546771E-02  0.1202337E+00
      -11   -1    0    0    0    0  0.00000000000E+00  0.00000000000E+00  0.65000000000E+04  0.65000000000E+04  0.00000000000E+00 0.  1.
       11   -1    0    0    0    0 -0.00000000000E+00 -0.00000000000E+00 -0.65000000000E+04  0.65000000000E+04  0.00000000000E+00 0. -1.
       22    1    1    2    0    0 -0.13261679584E+04  0.57731412209E+03  0.63370329769E+04  0.65000000000E+04  0.00000000000E+00 0.  1.
       22    1    1    2    0    0  0.13261679584E+04 -0.57731412209E+03 -0.63370329769E+04  0.65000000000E+04  0.00000000000E+00 0. -1.
</event>
<event>
 4   1  0.3671700E-05  0.8062258E+02  0.7546771E-02  0.1202337E+00
      -11   -1    0    0    0    0  0.00000000000E+00  0.00000000000E+00  0.65000000000E+04  0.65000000000E+04  0.00000000000E+00 0.  1.
       11   -1    0    0    0    0 -0.00000000000E+00 -0.00000000000E+00 -0.65000000000E+04  0.65000000000E+04  0.00000000000E+00 0. -1.
       22    1    1    2    0    0  0.38916014454E+04  0.20447249849E+03 -0.52022715411E+04  0.65000000000E+04  0.00000000000E+00 0. -1.
       22    1    1    2    0    0 -0.38916014454E+04 -0.20447249849E+03  0.52022715411E+04  0.65000000000E+04  0.00000000000E+00 0.  1.
</event>
<event>
 4   1  0.3671700E-05  0.8062258E+02  0.7546771E-02  0.1202337E+00
      -11   -1    0    0    0    0  0.00000000000E+00  0.00000000000E+00  0.65000000000E+04  0.65000000000E+04  0.00000000000E+00 0. -1.
       11   -1    0    0    0    0 -0.00000000000E+00 -0.00000000000E+00 -0.65000000000E+04  0.65000000000E+04  0.00000000000E+00 0.  1.
       22    1    1    2    0    0  0.21861802120E+03 -0.14393567919E+04  0.63348605499E+04  0.65000000000E+04  0.00000000000E+00 0. -1.
       22    1    1    2    0    0 -0.21861802120E+03  0.14393567919E+04 -0.63348605499E+04  0.65000000000E+04  0.00000000000E+00 0.  1.
</event>
<event>
 4   1  0.3671700E-05  0.8062258E+02  0.7546771E-02  0.1202337E+00
      -11   -1    0    0    0    0  0.00000000000E+00  0.00000000000E+00  0.65000000000E+04  0.65000000000E+04  0.00000000000E+00 0.  1.
       11   -1    0    0    0    0 -0.00000000000E+00 -0.00000000000E+00 -0.65000000000E+04  0.65000000000E+04  0.00000000000E+00 0. -1.
       22    1    1    2    0    0  0.28547677801E+03 -0.20854018123E+04 -0.61497644094E+04  0.65000000000E+04  0.00000000000E+00 0. -1.
       22    1    1    2    0    0 -0.28547677801E+03  0.20854018123E+04  0.61497644094E+04  0.65000000000E+04  0.00000000000E+00 0.  1.
</event>
<event>
 4   1  0.3671700E-05  0.8062258E+02  0.7546771E-02  0.1202337E+00
      -11   -1    0    0    0    0  0.00000000000E+00  0.00000000000E+00  0.65000000000E+04  0.65000000000E+04  0.00000000000E+00 0.  1.
       11   -1    0    0    0    0 -0.00000000000E+00 -0.00000000000E+00 -0.65000000000E+04  0.65000000000E+04  0.00000000000E+00 0. -1.
       22    1    1    2    0    0  0.14477708889E+04 -0.41389523492E+04 -0.47982322687E+04  0.65000000000E+04  0.00000000000E+00 0. -1.
       22    1    1    2    0    0 -0.14477708889E+04  0.41389523492E+04  0.47982322687E+04  0.65000000000E+04  0.00000000000E+00 0.  1.
</event>
<event>
 4   1  0.3671700E-05  0.8062258E+02  0.7546771E-02  0.1202337E+00
      -11   -1    0    0    0    0  0.00000000000E+00  0.00000000000E+00  0.65000000000E+04  0.65000000000E+04  0.00000000000E+00 0.  1.
       11   -1    0    0    0    0 -0.00000000000E+00 -0.00000000000E+00 -0.65000000000E+04  0.65000000000E+04  0.00000000000E+00 0. -1.
       22    1    1    2    0    0  0.22976104234E+04  0.13011957444E+04 -0.59395181603E+04  0.65000000000E+04  0.00000000000E+00 0. -1.
       22    1    1    2    0    0 -0.22976104234E+04 -0.13011957444E+04  0.59395181603E+04  0.65000000000E+04  0.00000000000E+00 0.  1.
</event>
<event>
 4   1  0.3671700E-05  0.8062258E+02  0.7546771E-02  0.1202337E+00
      -11   -1    0    0    0    0  0.00000000000E+00  0.00000000000E+00  0.65000000000E+04  0.65000000000E+04  0.00000000000E+00 0.  1.
       11   -1    0    0    0    0 -0.00000000000E+00 -0.00000000000E+00 -0.65000000000E+04  0.65000000000E+04  0.00000000000E+00 0. -1.
       22    1    1    2    0    0  0.17884781664E+04  0.28569143110E+04 -0.55578220975E+04  0.65000000000E+04  0.00000000000E+00 0. -1.
       22    1    1    2    0    0 -0.17884781664E+04 -0.28569143110E+04  0.55578220975E+04  0.65000000000E+04  0.00000000000E+00 0.  1.
</event>
<event>
 5   2  0.3671700E-05  0.8038679E+02  0.7546771E-02  0.1202879E+00
      -11   -1    0    0    0    0  0.00000000000E+00  0.00000000000E+00  0.65000000000E+04  0.65000000000E+04  0.00000000000E+00 0. -1.
       11   -1    0    0    0    0 -0.00000000000E+00 -0.00000000000E+00 -0.65000000000E+04  0.65000000000E+04  0.00000000000E+00 0.  1.
       22    1    1    2    0    0  0.24748190122E+02 -0.30873395239E+02 -0.64542125594E+02  0.75705517791E+02  0.00000000000E+00 0. -1.
       22    1    1    2    0    0  0.27574944878E+03  0.22038220823E+04 -0.60411568402E+04  0.64364932608E+04  0.00000000000E+00 0.  1.
       22    1    1    2    0    0 -0.30049763890E+03 -0.21729486871E+04  0.61056989658E+04  0.64878012214E+04  0.00000000000E+00 0. -1.
</event>
<event>
 4   1  0.3671700E-05  0.8062258E+02  0.7546771E-02  0.1202337E+00
      -11   -1    0    0    0    0  0.00000000000E+00  0.00000000000E+00  0.65000000000E+04  0.65000000000E+04  0.00000000000E+00 0. -1.
       11   -1    0    0    0    0 -0.00000000000E+00 -0.00000000000E+00 -0.65000000000E+04  0.65000000000E+04  0.00000000000E+00 0.  1.
       22    1    1    2    0    0 -0.12113271206E+03  0.16035448741E+04  0.62979338440E+04  0.65000000000E+04  0.00000000000E+00 0. -1.
       22    1    1    2    0    0  0.12113271206E+03 -0.16035448741E+04 -0.62979338440E+04  0.65000000000E+04  0.00000000000E+00 0.  1.
</event>
<event>
 4   1  0.3671700E-05  0.8062258E+02  0.7546771E-02  0.1202337E+00
      -11   -1    0    0    0    0  0.00000000000E+00  0.00000000000E+00  0.65000000000E+04  0.65000000000E+04  0.00000000000E+00 0.  1.
       11   -1    0    0    0    0 -0.00000000000E+00 -0.00000000000E+00 -0.65000000000E+04  0.65000000000E+04  0.00000000000E+00 0. -1.
       22    1    1    2    0    0  0.82087038962E+03  0.73853326111E+03  0.64055242116E+04  0.65000000000E+04  0.00000000000E+00 0.  1.
       22    1    1    2    0    0 -0.82087038962E+03 -0.73853326111E+03 -0.64055242116E+04  0.65000000000E+04  0.00000000000E+00 0. -1.
</event>
<event>
 4   1  0.3671700E-05  0.8062258E+02  0.7546771E-02  0.1202337E+00
      -11   -1    0    0    0    0  0.00000000000E+00  0.00000000000E+00  0.65000000000E+04  0.65000000000E+04  0.00000000000E+00 0. -1.
       11   -1    0    0    0    0 -0.00000000000E+00 -0.00000000000E+00 -0.65000000000E+04  0.65000000000E+04  0.00000000000E+00 0.  1.
       22    1    1    2    0    0  0.21963253280E+04 -0.94885866746E+03 -0.60436596763E+04  0.65000000000E+04  0.00000000000E+00 0.  1.
       22    1    1    2    0    0 -0.21963253280E+04  0.94885866746E+03  0.60436596763E+04  0.65000000000E+04  0.00000000000E+00 0. -1.
</event>
<event>
 5   2  0.3671700E-05  0.7849581E+02  0.7546771E-02  0.1207301E+00
      -11   -1    0    0    0    0  0.00000000000E+00  0.00000000000E+00  0.65000000000E+04  0.65000000000E+04  0.00000000000E+00 0.  1.
       11   -1    0    0    0    0 -0.00000000000E+00 -0.00000000000E+00 -0.65000000000E+04  0.65000000000E+04  0.00000000000E+00 0. -1.
       22    1    1    2    0    0 -0.89977641601E+03 -0.11002928881E+04  0.62126706093E+04  0.63731874394E+04  0.00000000000E+00 0.  1.
       22    1    1    2    0    0  0.35726141585E+03  0.91757331426E+03 -0.58858175204E+04  0.59676146315E+04  0.00000000000E+00 0. -1.
       22    1    1    2    0    0  0.54251500015E+03  0.18271957387E+03 -0.32685308883E+03  0.65919792911E+03  0.00000000000E+00 0. -1.
</event>
<event>
 4   1  0.3671700E-05  0.8062258E+02  0.7546771E-02  0.1202337E+00
      -11   -1    0    0    0    0  0.00000000000E+00  0.00000000000E+00  0.65000000000E+04  0.65000000000E+04  0.00000000000E+00 0. -1.
       11   -1    0    0    0    0 -0.00000000000E+00 -0.00000000000E+00 -0.65000000000E+04  0.65000000000E+04  0.00000000000E+00 0.  1.
       22    1    1    2    0    0 -0.11809538106E+04 -0.46888149869E+04 -0.43440030060E+04  0.65000000000E+04  0.00000000000E+00 0.  1.
       22    1    1    2    0    0  0.11809538106E+04  0.46888149869E+04  0.43440030060E+04  0.65000000000E+04  0.00000000000E+00 0. -1.
</event>
<event>
 5   2  0.3671700E-05  0.7440719E+02  0.7546771E-02  0.1217361E+00
      -11   -1    0    0    0    0  0.00000000000E+00  0.00000000000E+00  0.65000000000E+04  0.65000000000E+04  0.00000000000E+00 0. -1.
       11   -1    0    0    0    0 -0.00000000000E+00 -0.00000000000E+00 -0.65000000000E+04  0.65000000000E+04  0.00000000000E+00 0.  1.
       22    1    1    2    0    0 -0.14997051518E+04  0.25555958769E+03  0.93235934603E+03  0.17842982361E+04  0.00000000000E+00 0.  1.
       22    1    1    2    0    0  0.45007265201E+01 -0.21862535907E+04 -0.55648960995E+04  0.59789458617E+04  0.00000000000E+00 0.  1.
       22    1    1    2    0    0  0.14952044253E+04  0.19306940030E+04  0.46325367535E+04  0.52367559022E+04  0.00000000000E+00 0. -1.
</event>
<event>
 4   1  0.3671700E-05  0.8062258E+02  0.7546771E-02  0.1202337E+00
      -11   -1    0    0    0    0  0.00000000000E+00  0.00000000000E+00  0.65000000000E+04  0.65000000000E+04  0.00000000000E+00 0. -1.
       11   -1    0    0    0    0 -0.00000000000E+00 -0.00000000000E+00 -0.65000000000E+04  0.65000000000E+04  0.00000000000E+00 0.  1.
       22    1    1    2    0    0 -0.54980198166E+03  0.14313418577E+04  0.63165638022E+04  0.65000000000E+04  0.00000000000E+00 0. -1.
       22    1    1    2    0    0  0.54980198166E+03 -0.14313418577E+04 -0.63165638022E+04  0.65000000000E+04  0.00000000000E+00 0.  1.
</event>
<event>
 4   1  0.3671700E-05  0.8062258E+02  0.7546771E-02  0.1202337E+00
      -11   -1    0    0    0    0  0.00000000000E+00  0.00000000000E+00  0.65000000000E+04  0.65000000000E+04  0.00000000000E+00 0. -1.
       11   -1    0    0    0    0 -0.00000000000E+00 -0.00000000000E+00 -0.65000000000E+04  0.65000000000E+04  0.00000000000E+00 0.  1.
       22    1    1    2    0    0 -0.74637357726E+03 -0.11572180494E+04  0.63524619534E+04  0.65000000000E+04  0.00000000000E+00 0. -1.
       22    1    1    2    0    0  0.74637357726E+03  0.11572180494E+04 -0.63524619534E+04  0.65000000000E+04  0.00000000000E+00 0.  1.
</event>
<event>
 4   1  0.3671700E-05  0.8062258E+02  0.7546771E-02  0.1202337E+00
      -11   -1    0    0    0    0  0.00000000000E+00  0.00000000000E+00  0.65000000000E+04  0.65000000000E+04  0.00000000000E+00 0.  1.
       11   -1    0    0    0    0 -0.00000000000E+00 -0.00000000000E+00 -0.65000000000E+04  0.65000000000E+04  0.00000000000E+00 0. -1.
       22    1    1    2    0    0  0.23656366114E+04 -0.12560426242E+04  0.59225096326E+04  0.65000000000E+04  0.00000000000E+00 0.  1.
       22    1    1    2    0    0 -0.23656366114E+04  0.12560426242E+04 -0.59225096326E+04  0.65000000000E+04  0.00000000000E+00 0. -1.
</event>
<event>
 4   1  0.3671700E-05  0.8062258E+02  0.7546771E-02  0.1202337E+00
      -11   -1    0    0    0    0  0.00000000000E+00  0.00000000000E+00  0.65000000000E+04  0.65000000000E+04  0.00000000000E+00 0.  1.
       11   -1    0    0    0    0 -0.00000000000E+00 -0.00000000000E+00 -0.65000000000E+04  0.65000000000E+04  0.00000000000E+00 0. -1.
       22    1    1    2    0    0  0.13157273077E+04 -0.10327344998E+04 -0.62811082704E+04  0.65000000000E+04  0.00000000000E+00 0. -1.
       22    1    1    2    0    0 -0.13157273077E+04  0.10327344998E+04  0.62811082704E+04  0.65000000000E+04  0.00000000000E+00 0.  1.
</event>
<event>
 4   1  0.3671700E-05  0.8062258E+02  0.7546771E-02  0.1202337E+00
      -11   -1    0    0    0    0  0.00000000000E+00  0.00000000000E+00  0.65000000000E+04  0.65000000000E+04  0.00000000000E+00 0.  1.
       11   -1    0    0    0    0 -0.00000000000E+00 -0.00000000000E+00 -0.65000000000E+04  0.65000000000E+04  0.00000000000E+00 0. -1.
       22    1    1    2    0    0  0.78761666230E+03  0.24936499833E+04  0.59507453108E+04  0.65000000000E+04  0.00000000000E+00 0.  1.
       22    1    1    2    0    0 -0.78761666230E+03 -0.24936499833E+04 -0.59507453108E+04  0.65000000000E+04  0.00000000000E+00 0. -1.
</event>
<event>
 4   1  0.3671700E-05  0.8062258E+02  0.7546771E-02  0.1202337E+00
      -11   -1    0    0    0    0  0.00000000000E+00  0.00000000000E+00  0.65000000000E+04  0.65000000000E+04  0.00000000000E+00 0.  1.
       11   -1    0    0    0    0 -0.00000000000E+00 -0.00000000000E+00 -0.65000000000E+04  0.65000000000E+04  0.00000000000E+00 0. -1.
       22    1    1    2    0    0  0.29546297463E+04  0.23136858268E+04 -0.53072611541E+04  0.65000000000E+04  0.00000000000E+00 0. -1.
       22    1    1    2    0    0 -0.29546297463E+04 -0.23136858268E+04  0.53072611541E+04  0.65000000000E+04  0.00000000000E+00 0.  1.
</event>
<event>
 4   1  0.3671700E-05  0.8062258E+02  0.7546771E-02  0.1202337E+00
      -11   -1    0    0    0    0  0.00000000000E+00  0.00000000000E+00  0.65000000000E+04  0.65000000000E+04  0.00000000000E+00 0.  1.
       11   -1    0    0    0    0 -0.00000000000E+00 -0.00000000000E+00 -0.65000000000E+04  0.65000000000E+04  0.00000000000E+00 0. -1.
       22    1    1    2    0    0 -0.89156190969E+03  0.51204315954E+04 -0.39033700360E+04  0.65000000000E+04  0.00000000000E+00 0. -1.
       22    1    1    2    0    0  0.89156190969E+03 -0.51204315954E+04  0.39033700360E+04  0.65000000000E+04  0.00000000000E+00 0.  1.
</event>
<event>
 4   1  0.3671700E-05  0.8062258E+02  0.7546771E-02  0.1202337E+00
      -11   -1    0    0    0    0  0.00000000000E+00  0.00000000000E+00  0.65000000000E+04  0.65000000000E+04  0.00000000000E+00 0.  1.
       11   -1    0    0    0    0 -0.00000000000E+00 -0.00000000000E+00 -0.65000000000E+04  0.65000000000E+04  0.00000000000E+00 0. -1.
       22    1    1    2    0    0  0.60478848386E+04  0.23762843436E+04 -0.16236285720E+03  0.65000000000E+04  0.00000000000E+00 0. -1.
       22    1    1    2    0    0 -0.60478848386E+04 -0.23762843436E+04  0.16236285720E+03  0.65000000000E+04  0.00000000000E+00 0.  1.
</event>
<event>
 4   1  0.3671700E-05  0.8062258E+02  0.7546771E-02  0.1202337E+00
      -11   -1    0    0    0    0  0.00000000000E+00  0.00000000000E+00  0.65000000000E+04  0.65000000000E+04  0.00000000000E+00 0.  1.
       11   -1    0    0    0    0 -0.00000000000E+00 -0.00000000000E+00 -0.65000000000E+04  0.65000000000E+04  0.00000000000E+00 0. -1.
       22    1    1    2    0    0 -0.63245144244E+03  0.12612327038E+04  0.63450214531E+04  0.65000000000E+04  0.00000000000E+00 0.  1.
       22    1    1    2    0    0  0.63245144244E+03 -0.12612327038E+04 -0.63450214531E+04  0.65000000000E+04  0.00000000000E+00 0. -1.
</event>
<event>
 4   1  0.3671700E-05  0.8062258E+02  0.7546771E-02  0.1202337E+00
      -11   -1    0    0    0    0  0.00000000000E+00  0.00000000000E+00  0.65000000000E+04  0.65000000000E+04  0.00000000000E+00 0. -1.
       11   -1    0    0    0    0 -0.00000000000E+00 -0.00000000000E+00 -0.65000000000E+04  0.65000000000E+04  0.00000000000E+00 0.  1.
       22    1    1    2    0    0 -0.93641947438E+03  0.13027642842E+04  0.62988827412E+04  0.65000000000E+04  0.00000000000E+00 0. -1.
       22    1    1    2    0    0  0.93641947438E+03 -0.13027642842E+04 -0.62988827412E+04  0.65000000000E+04  0.00000000000E+00 0.  1.
</event>
<event>
 4   1  0.3671700E-05  0.8062258E+02  0.7546771E-02  0.1202337E+00
      -11   -1    0    0    0    0  0.00000000000E+00  0.00000000000E+00  0.65000000000E+04  0.65000000000E+04  0.00000000000E+00 0.  1.
       11   -1    0    0    0    0 -0.00000000000E+00 -0.00000000000E+00 -0.65000000000E+04  0.65000000000E+04  0.00000000000E+00 0. -1.
       22    1    1    2    0    0  0.66431956432E+03 -0.33018722184E+04  0.55593452285E+04  0.65000000000E+04  0.00000000000E+00 0.  1.
       22    1    1    2    0    0 -0.66431956432E+03  0.33018722184E+04 -0.55593452285E+04  0.65000000000E+04  0.00000000000E+00 0. -1.
</event>
<event>
 4   1  0.3671700E-05  0.8062258E+02  0.7546771E-02  0.1202337E+00
      -11   -1    0    0    0    0  0.00000000000E+00  0.00000000000E+00  0.65000000000E+04  0.65000000000E+04  0.00000000000E+00 0.  1.
       11   -1    0    0    0    0 -0.00000000000E+00 -0.00000000000E+00 -0.65000000000E+04  0.65000000000E+04  0.00000000000E+00 0. -1.
       22    1    1    2    0    0  0.95203588358E+03 -0.73726061810E+03  0.63874935974E+04  0.65000000000E+04  0.00000000000E+00 0.  1.
       22    1    1    2    0    0 -0.95203588358E+03  0.73726061810E+03 -0.63874935974E+04  0.65000000000E+04  0.00000000000E+00 0. -1.
</event>
<event>
 4   1  0.3671700E-05  0.8062258E+02  0.7546771E-02  0.1202337E+00
      -11   -1    0    0    0    0  0.00000000000E+00  0.00000000000E+00  0.65000000000E+04  0.65000000000E+04  0.00000000000E+00 0. -1.
       11   -1    0    0    0    0 -0.00000000000E+00 -0.00000000000E+00 -0.65000000000E+04  0.65000000000E+04  0.00000000000E+00 0.  1.
       22    1    1    2    0    0  0.10648081422E+04 -0.47288600383E+03  0.63947292709E+04  0.65000000000E+04  0.00000000000E+00 0. -1.
       22    1    1    2    0    0 -0.10648081422E+04  0.47288600383E+03 -0.63947292709E+04  0.65000000000E+04  0.00000000000E+00 0.  1.
</event>
<event>
 4   1  0.3671700E-05  0.8062258E+02  0.7546771E-02  0.1202337E+00
      -11   -1    0    0    0    0  0.00000000000E+00  0.00000000000E+00  0.65000000000E+04  0.65000000000E+04  0.00000000000E+00 0.  1.
       11   -1    0    0    0    0 -0.00000000000E+00 -0.00000000000E+00 -0.65000000000E+04  0.65000000000E+04  0.00000000000E+00 0. -1.
       22    1    1    2    0    0  0.10690004521E+04 -0.43749529437E+03 -0.63965487492E+04  0.65000000000E+04  0.00000000000E+00 0. -1.
       22    1    1    2    0    0 -0.10690004521E+04  0.43749529437E+03  0.63965487492E+04  0.65000000000E+04  0.00000000000E+00 0.  1.
</event>
<event>
 4   1  0.3671700E-05  0.8062258E+02  0.7546771E-02  0.1202337E+00
      -11   -1    0    0    0    0  0.00000000000E+00  0.00000000000E+00  0.65000000000E+04  0.65000000000E+04  0.00000000000E+00 0.  1.
       11   -1    0    0    0    0 -0.00000000000E+00 -0.00000000000E+00 -0.65000000000E+04  0.65000000000E+04  0.00000000000E+00 0. -1.
       22    1    1    2    0    0  0.36114973685E+03  0.64798433601E+04 -0.36221664339E+03  0.65000000000E+04  0.00000000000E+00 0.  1.
       22    1    1    2    0    0 -0.36114973685E+03 -0.64798433601E+04  0.36221664339E+03  0.65000000000E+04  0.00000000000E+00 0. -1.
</event>
<event>
 4   1  0.3671700E-05  0.8062258E+02  0.7546771E-02  0.1202337E+00
      -11   -1    0    0    0    0  0.00000000000E+00  0.00000000000E+00  0.65000000000E+04  0.65000000000E+04  0.00000000000E+00 0.  1.
       11   -1    0    0    0    0 -0.00000000000E+00 -0.00000000000E+00 -0.65000000000E+04  0.65000000000E+04  0.00000000000E+00 0. -1.
       22    1    1    2    0    0  0.18595903284E+04 -0.64079496825E+03 -0.61952647739E+04  0.65000000000E+04  0.00000000000E+00 0. -1.
       22    1    1    2    0    0 -0.18595903284E+04  0.64079496825E+03  0.61952647739E+04  0.65000000000E+04  0.00000000000E+00 0.  1.
</event>
<event>
 4   1  0.3671700E-05  0.8062258E+02  0.7546771E-02  0.1202337E+00
      -11   -1    0    0    0    0  0.00000000000E+00  0.00000000000E+00  0.65000000000E+04  0.65000000000E+04  0.00000000000E+00 0.  1.
       11   -1    0    0    0    0 -0.00000000000E+00 -0.00000000000E+00 -0.65000000000E+04  0.65000000000E+04  0.00000000000E+00 0. -1.
       22    1    1    2    0    0 -0.39330651647E+03  0.44001698703E+04  0.47679990663E+04  0.65000000000E+04  0.00000000000E+00 0.  1.
       22    1    1    2    0    0  0.39330651647E+03 -0.44001698703E+04 -0.47679990663E+04  0.65000000000E+04  0.00000000000E+00 0. -1.
</event>
<event>
 5   2  0.3671700E-05  0.8058599E+02  0.7546771E-02  0.1202421E+00
      -11   -1    0    0    0    0  0.00000000000E+00  0.00000000000E+00  0.65000000000E+04  0.65000000000E+04  0.00000000000E+00 0.  1.
       11   -1    0    0    0    0 -0.00000000000E+00 -0.00000000000E+00 -0.65000000000E+04  0.65000000000E+04  0.00000000000E+00 0. -1.
       22    1    1    2    0    0  0.40270118119E+04  0.29948642289E+03  0.50811735745E+04  0.64903652552E+04  0.00000000000E+00 0.  1.
       22    1    1    2    0    0 -0.40327975007E+04 -0.29079065424E+03 -0.50866450876E+04  0.64978437295E+04  0.00000000000E+00 0. -1.
       22    1    1    2    0    0  0.57856888217E+01 -0.86957686446E+01  0.54715130217E+01  0.11791015317E+02  0.00000000000E+00 0. -1.
</event>
<event>
 4   1  0.3671700E-05  0.8062258E+02  0.7546771E-02  0.1202337E+00
      -11   -1    0    0    0    0  0.00000000000E+00  0.00000000000E+00  0.65000000000E+04  0.65000000000E+04  0.00000000000E+00 0. -1.
       11   -1    0    0    0    0 -0.00000000000E+00 -0.00000000000E+00 -0.65000000000E+04  0.65000000000E+04  0.00000000000E+00 0.  1.
       22    1    1    2    0    0  0.12492178677E+04  0.67622945373E+03 -0.63428832911E+04  0.65000000000E+04  0.00000000000E+00 0.  1.
       22    1    1    2    0    0 -0.12492178677E+04 -0.67622945373E+03  0.63428832911E+04  0.65000000000E+04  0.00000000000E+00 0. -1.
</event>
<event>
 4   1  0.3671700E-05  0.8062258E+02  0.7546771E-02  0.1202337E+00
      -11   -1    0    0    0    0  0.00000000000E+00  0.00000000000E+00  0.65000000000E+04  0.65000000000E+04  0.00000000000E+00 0.  1.
       11   -1    0    0    0    0 -0.00000000000E+00 -0.00000000000E+00 -0.65000000000E+04  0.65000000000E+04  0.00000000000E+00 0. -1.
       22    1    1    2    0    0  0.11995588736E+04  0.11874736480E+04 -0.62770187863E+04  0.65000000000E+04  0.00000000000E+00 0. -1.
       22    1    1    2    0    0 -0.11995588736E+04 -0.11874736480E+04  0.62770187863E+04  0.65000000000E+04  0.00000000000E+00 0.  1.
</event>
<event>
 4   1  0.3671700E-05  0.8062258E+02  0.7546771E-02  0.1202337E+00
      -11   -1    0    0    0    0  0.00000000000E+00  0.00000000000E+00  0.65000000000E+04  0.65000000000E+04  0.00000000000E+00 0. -1.
       11   -1    0    0    0    0 -0.00000000000E+00 -0.00000000000E+00 -0.65000000000E+04  0.65000000000E+04  0.00000000000E+00 0.  1.
       22    1    1    2    0    0  0.60055322944E+02 -0.29594820015E+04  0.57868695891E+04  0.65000000000E+04  0.00000000000E+00 0. -1.
       22    1    1    2    0    0 -0.60055322944E+02  0.29594820015E+04 -0.57868695891E+04  0.65000000000E+04  0.00000000000E+00 0.  1.
</event>
<event>
 4   1  0.3671700E-05  0.8062258E+02  0.7546771E-02  0.1202337E+00
      -11   -1    0    0    0    0  0.00000000000E+00  0.00000000000E+00  0.65000000000E+04  0.65000000000E+04  0.00000000000E+00 0. -1.
       11   -1    0    0    0    0 -0.00000000000E+00 -0.00000000000E+00 -0.65000000000E+04  0.65000000000E+04  0.00000000000E+00 0.  1.
       22    1    1    2    0    0  0.16780552794E+04  0.23054198583E+04  0.58411616787E+04  0.65000000000E+04  0.00000000000E+00 0. -1.
       22    1    1    2    0    0 -0.16780552794E+04 -0.23054198583E+04 -0.58411616787E+04  0.65000000000E+04  0.00000000000E+00 0.  1.
</event>
<event>
 4   1  0.3671700E-05  0.8062258E+02  0.7546771E-02  0.1202337E+00
      -11   -1    0    0    0    0  0.00000000000E+00  0.00000000000E+00  0.65000000000E+04  0.65000000000E+04  0.00000000000E+00 0. -1.
       11   -1    0    0    0    0 -0.00000000000E+00 -0.00000000000E+00 -0.65000000000E+04  0.65000000000E+04  0.00000000000E+00 0.  1.
       22    1    1    2    0    0 -0.43534435033E+04 -0.58111348217E+03  0.47916423890E+04  0.65000000000E+04  0.00000000000E+00 0. -1.
       22    1    1    2    0    0  0.43534435033E+04  0.58111348217E+03 -0.47916423890E+04  0.65000000000E+04  0.00000000000E+00 0.  1.
</event>
<event>
 4   1  0.3671700E-05  0.8062258E+02  0.7546771E-02  0.1202337E+00
      -11   -1    0    0    0    0  0.00000000000E+00  0.00000000000E+00  0.65000000000E+04  0.65000000000E+04  0.00000000000E+00 0.  1.
       11   -1    0    0    0    0 -0.00000000000E+00 -0.00000000000E+00 -0.65000000000E+04  0.65000000000E+04  0.00000000000E+00 0. -1.
       22    1    1    2    0    0  0.49249771336E+03 -0.14738761005E+04 -0.63115081591E+04  0.65000000000E+04  0.00000000000E+00 0. -1.
       22    1    1    2    0    0 -0.49249771336E+03  0.14738761005E+04  0.63115081591E+04  0.65000000000E+04  0.00000000000E+00 0.  1.
</event>
<event>
 4   1  0.3671700E-05  0.8062258E+02  0.7546771E-02  0.1202337E+00
      -11   -1    0    0    0    0  0.00000000000E+00  0.00000000000E+00  0.65000000000E+04  0.65000000000E+04  0.00000000000E+00 0. -1.
       11   -1    0    0    0    0 -0.00000000000E+00 -0.00000000000E+00 -0.65000000000E+04  0.65000000000E+04  0.00000000000E+00 0.  1.
       22    1    1    2    0    0 -0.25226165287E+04  0.25745134683E+04  0.54090929231E+04  0.65000000000E+04  0.00000000000E+00 0. -1.
       22    1    1    2    0    0  0.25226165287E+04 -0.25745134683E+04 -0.54090929231E+04  0.65000000000E+04  0.00000000000E+00 0.  1.
</event>
<event>
 4   1  0.3671700E-05  0.8062258E+02  0.7546771E-02  0.1202337E+00
      -11   -1    0    0    0    0  0.00000000000E+00  0.00000000000E+00  0.65000000000E+04  0.65000000000E+04  0.00000000000E+00 0. -1.
       11   -1    0    0    0    0 -0.00000000000E+00 -0.00000000000E+00 -0.65000000000E+04  0.65000000000E+04  0.00000000000E+00 0.  1.
       22    1    1    2    0    0 -0.47400597753E+04 -0.31827685582E+04  0.31067374577E+04  0.65000000000E+04  0.00000000000E+00 0. -1.
       22    1    1    2    0    0  0.47400597753E+04  0.31827685582E+04 -0.31067374577E+04  0.65000000000E+04  0.00000000000E+00 0.  1.
</event>
<event>
 4   1  0.3671700E-05  0.8062258E+02  0.7546771E-02  0.1202337E+00
      -11   -1    0    0    0    0  0.00000000000E+00  0.00000000000E+00  0.65000000000E+04  0.65000000000E+04  0.00000000000E+00 0. -1.
       11   -1    0    0    0    0 -0.00000000000E+00 -0.00000000000E+00 -0.65000000000E+04  0.65000000000E+04  0.00000000000E+00 0.  1.
       22    1    1    2    0    0 -0.24296070158E+04  0.10563903307E+04 -0.59355748852E+04  0.65000000000E+04  0.00000000000E+00 0.  1.
       22    1    1    2    0    0  0.24296070158E+04 -0.10563903307E+04  0.59355748852E+04  0.65000000000E+04  0.00000000000E+00 0. -1.
</event>
<event>
 4   1  0.3671700E-05  0.8062258E+02  0.7546771E-02  0.1202337E+00
      -11   -1    0    0    0    0  0.00000000000E+00  0.00000000000E+00  0.65000000000E+04  0.65000000000E+04  0.00000000000E+00 0.  1.
       11   -1    0    0    0    0 -0.00000000000E+00 -0.00000000000E+00 -0.65000000000E+04  0.65000000000E+04  0.00000000000E+00 0. -1.
       22    1    1    2    0    0  0.35240127315E+04 -0.10636817760E+04  0.53572301937E+04  0.65000000000E+04  0.00000000000E+00 0.  1.
       22    1    1    2    0    0 -0.35240127315E+04  0.10636817760E+04 -0.53572301937E+04  0.65000000000E+04  0.00000000000E+00 0. -1.
</event>
<event>
 4   1  0.3671700E-05  0.8062258E+02  0.7546771E-02  0.1202337E+00
      -11   -1    0    0    0    0  0.00000000000E+00  0.00000000000E+00  0.65000000000E+04  0.65000000000E+04  0.00000000000E+00 0.  1.
       11   -1    0    0    0    0 -0.00000000000E+00 -0.00000000000E+00 -0.65000000000E+04  0.65000000000E+04  0.00000000000E+00 0. -1.
       22    1    1    2    0    0  0.89691114488E+03  0.27287070076E+04 -0.58309268959E+04  0.65000000000E+04  0.00000000000E+00 0. -1.
       22    1    1    2    0    0 -0.89691114488E+03 -0.27287070076E+04  0.58309268959E+04  0.65000000000E+04  0.00000000000E+00 0.  1.
</event>
<event>
 4   1  0.3671700E-05  0.8062258E+02  0.7546771E-02  0.1202337E+00
      -11   -1    0    0    0    0  0.00000000000E+00  0.00000000000E+00  0.65000000000E+04  0.65000000000E+04  0.00000000000E+00 0.  1.
       11   -1    0    0    0    0 -0.00000000000E+00 -0.00000000000E+00 -0.65000000000E+04  0.65000000000E+04  0.00000000000E+00 0. -1.
       22    1    1    2    0    0  0.13211938785E+04  0.10793999599E+04  0.62721082948E+04  0.65000000000E+04  0.00000000000E+00 0.  1.
       22    1    1    2    0    0 -0.13211938785E+04 -0.10793999599E+04 -0.62721082948E+04  0.65000000000E+04  0.00000000000E+00 0. -1.
</event>
<event>
 4   1  0.3671700E-05  0.8062258E+02  0.7546771E-02  0.1202337E+00
      -11   -1    0    0    0    0  0.00000000000E+00  0.00000000000E+00  0.65000000000E+04  0.65000000000E+04  0.00000000000E+00 0.  1.
       11   -1    0    0    0    0 -0.00000000000E+00 -0.00000000000E+00 -0.65000000000E+04  0.65000000000E+04  0.00000000000E+00 0. -1.
       22    1    1    2    0    0 -0.62793080366E+02  0.17384697631E+04 -0.62628891026E+04  0.65000000000E+04  0.00000000000E+00 0. -1.
       22    1    1    2    0    0  0.62793080366E+02 -0.17384697631E+04  0.62628891026E+04  0.65000000000E+04  0.00000000000E+00 0.  1.
</event>
<event>
 4   1  0.3671700E-05  0.8062258E+02  0.7546771E-02  0.1202337E+00
      -11   -1    0    0    0    0  0.00000000000E+00  0.00000000000E+00  0.65000000000E+04  0.65000000000E+04  0.00000000000E+00 0. -1.
       11   -1    0    0    0    0 -0.00000000000E+00 -0.00000000000E+00 -0.65000000000E+04  0.65000000000E+04  0.00000000000E+00 0.  1.
       22    1    1    2    0    0 -0.11783886581E+04 -0.22435581215E+04  0.59856367352E+04  0.65000000000E+04  0.00000000000E+00 0. -1.
       22    1    1    2    0    0  0.11783886581E+04  0.22435581215E+04 -0.59856367352E+04  0.65000000000E+04  0.00000000000E+00 0.  1.
</event>
<event>
 4   1  0.3671700E-05  0.8062258E+02  0.7546771E-02  0.1202337E+00
      -11   -1    0    0    0    0  0.00000000000E+00  0.00000000000E+00  0.65000000000E+04  0.65000000000E+04  0.00000000000E+00 0.  1.
       11   -1    0    0    0    0 -0.00000000000E+00 -0.00000000000E+00 -0.65000000000E+04  0.65000000000E+04  0.00000000000E+00 0. -1.
       22    1    1    2    0    0 -0.95793871993E+03  0.46864031945E+04  0.44011337753E+04  0.65000000000E+04  0.00000000000E+00 0.  1.
       22    1    1    2    0    0  0.95793871993E+03 -0.46864031945E+04 -0.44011337753E+04  0.65000000000E+04  0.00000000000E+00 0. -1.
</event>
<event>
 4   1  0.3671700E-05  0.8062258E+02  0.7546771E-02  0.1202337E+00
      -11   -1    0    0    0    0  0.00000000000E+00  0.00000000000E+00  0.65000000000E+04  0.65000000000E+04  0.00000000000E+00 0.  1.
       11   -1    0    0    0    0 -0.00000000000E+00 -0.00000000000E+00 -0.65000000000E+04  0.65000000000E+04  0.00000000000E+00 0. -1.
       22    1    1    2    0    0 -0.18461367699E+03  0.10865264607E+04  0.64058862026E+04  0.65000000000E+04  0.00000000000E+00 0.  1.
       22    1    1    2    0    0  0.18461367699E+03 -0.10865264607E+04 -0.64058862026E+04  0.65000000000E+04  0.00000000000E+00 0. -1.
</event>
<event>
 4   1  0.3671700E-05  0.8062258E+02  0.7546771E-02  0.1202337E+00
      -11   -1    0    0    0    0  0.00000000000E+00  0.00000000000E+00  0.65000000000E+04  0.65000000000E+04  0.00000000000E+00 0. -1.
       11   -1    0    0    0    0 -0.00000000000E+00 -0.00000000000E+00 -0.65000000000E+04  0.65000000000E+04  0.00000000000E+00 0.  1.
       22    1    1    2    0    0  0.10925764720E+04 -0.29106695290E+03  0.64009028021E+04  0.65000000000E+04  0.00000000000E+00 0. -1.
       22    1    1    2    0    0 -0.10925764720E+04  0.29106695290E+03 -0.64009028021E+04  0.65000000000E+04  0.00000000000E+00 0.  1.
</event>
<event>
 4   1  0.3671700E-05  0.8062258E+02  0.7546771E-02  0.1202337E+00
      -11   -1    0    0    0    0  0.00000000000E+00  0.00000000000E+00  0.65000000000E+04  0.65000000000E+04  0.00000000000E+00 0. -1.
       11   -1    0    0    0    0 -0.00000000000E+00 -0.00000000000E+00 -0.65000000000E+04  0.65000000000E+04  0.00000000000E+00 0.  1.
       22    1    1    2    0    0  0.12121832123E+03  0.11532737446E+04  0.63957224603E+04  0.65000000000E+04  0.00000000000E+00 0. -1.
       22    1    1    2    0    0 -0.12121832123E+03 -0.11532737446E+04 -0.63957224603E+04  0.65000000000E+04  0.00000000000E+00 0.  1.
</event>
<event>
 4   1  0.3671700E-05  0.8062258E+02  0.7546771E-02  0.1202337E+00
      -11   -1    0    0    0    0  0.00000000000E+00  0.00000000000E+00  0.65000000000E+04  0.65000000000E+04  0.00000000000E+00 0. -1.
       11   -1    0    0    0    0 -0.00000000000E+00 -0.00000000000E+00 -0.65000000000E+04  0.65000000000E+04  0.00000000000E+00 0.  1.
       22    1    1    2    0    0 -0.95604183115E+03 -0.18878198594E+04 -0.61459027161E+04  0.65000000000E+04  0.00000000000E+00 0.  1.
       22    1    1    2    0    0  0.95604183115E+03  0.18878198594E+04  0.61459027161E+04  0.65000000000E+04  0.00000000000E+00 0. -1.
</event>
<event>
 4   1  0.3671700E-05  0.8062258E+02  0.7546771E-02  0.1202337E+00
      -11   -1    0    0    0    0  0.00000000000E+00  0.00000000000E+00  0.65000000000E+04  0.65000000000E+04  0.00000000000E+00 0.  1.
       11   -1    0    0    0    0 -0.00000000000E+00 -0.00000000000E+00 -0.65000000000E+04  0.65000000000E+04  0.00000000000E+00 0. -1.
       22    1    1    2    0    0  0.16176047498E+04  0.18775097369E+04 -0.60090192262E+04  0.65000000000E+04  0.00000000000E+00 0. -1.
       22    1    1    2    0    0 -0.16176047498E+04 -0.18775097369E+04  0.60090192262E+04  0.65000000000E+04  0.00000000000E+00 0.  1.
</event>
<event>
 5   2  0.3671700E-05  0.7965338E+02  0.7546771E-02  0.1204578E+00
      -11   -1    0    0    0    0  0.00000000000E+00  0.00000000000E+00  0.65000000000E+04  0.65000000000E+04  0.00000000000E+00 0. -1.
       11   -1    0    0    0    0 -0.00000000000E+00 -0.00000000000E+00 -0.65000000000E+04  0.65000000000E+04  0.00000000000E+00 0.  1.
       22    1    1    2    0    0 -0.88409786925E+03  0.43921095616E+04 -0.43271057897E+04  0.62286515362E+04  0.00000000000E+00 0.  1.
       22    1    1    2    0    0  0.95209455425E+03 -0.44142147430E+04  0.46256298052E+04  0.64643814037E+04  0.00000000000E+00 0. -1.
       22    1    1    2    0    0 -0.67996684997E+02  0.22105181366E+02 -0.29852401544E+03  0.30696706014E+03  0.00000000000E+00 0.  1.
</event>
<event>
 4   1  0.3671700E-05  0.8062258E+02  0.7546771E-02  0.1202337E+00
      -11   -1    0    0    0    0  0.00000000000E+00  0.00000000000E+00  0.65000000000E+04  0.65000000000E+04  0.00000000000E+00 0. -1.
       11   -1    0    0    0    0 -0.00000000000E+00 -0.00000000000E+00 -0.65000000000E+04  0.65000000000E+04  0.00000000000E+00 0.  1.
       22    1    1    2    0    0 -0.12293809947E+04  0.29621480492E+03 -0.63758041971E+04  0.65000000000E+04  0.00000000000E+00 0.  1.
       22    1    1    2    0    0  0.12293809947E+04 -0.29621480492E+03  0.63758041971E+04  0.65000000000E+04  0.00000000000E+00 0. -1.
</event>
<event>
 4   1  0.3671700E-05  0.8062258E+02  0.7546771E-02  0.1202337E+00
      -11   -1    0    0    0    0  0.00000000000E+00  0.00000000000E+00  0.65000000000E+04  0.65000000000E+04  0.00000000000E+00 0. -1.
       11   -1    0    0    0    0 -0.00000000000E+00 -0.00000000000E+00 -0.65000000000E+04  0.65000000000E+04  0.00000000000E+00 0.  1.
       22    1    1    2    0    0  0.97350119388E+03 -0.13276870074E+04  0.62880476013E+04  0.65000000000E+04  0.00000000000E+00 0. -1.
       22    1    1    2    0    0 -0.97350119388E+03  0.13276870074E+04 -0.62880476013E+04  0.65000000000E+04  0.00000000000E+00 0.  1.
</event>
<event>
 4   1  0.3671700E-05  0.8062258E+02  0.7546771E-02  0.1202337E+00
      -11   -1    0    0    0    0  0.00000000000E+00  0.00000000000E+00  0.65000000000E+04  0.65000000000E+04  0.00000000000E+00 0. -1.
       11   -1    0    0    0    0 -0.00000000000E+00 -0.00000000000E+00 -0.65000000000E+04  0.65000000000E+04  0.00000000000E+00 0.  1.
       22    1    1    2    0    0  0.39901991145E+04  0.54734240697E+03  0.51018356810E+04  0.65000000000E+04  0.00000000000E+00 0. -1.
       22    1    1    2    0    0 -0.39901991145E+04 -0.54734240697E+03 -0.51018356810E+04  0.65000000000E+04  0.00000000000E+00 0.  1.
</event>
<event>
 4   1  0.3671700E-05  0.8062258E+02  0.7546771E-02  0.1202337E+00
      -11   -1    0    0    0    0  0.00000000000E+00  0.00000000000E+00  0.65000000000E+04  0.65000000000E+04  0.00000000000E+00 0.  1.
       11   -1    0    0    0    0 -0.00000000000E+00 -0.00000000000E+00 -0.65000000000E+04  0.65000000000E+04  0.00000000000E+00 0. -1.
       22    1    1    2    0    0 -0.13410492223E+04  0.13994339406E+04 -0.62042865528E+04  0.65000000000E+04  0.00000000000E+00 0. -1.
       22    1    1    2    0    0  0.13410492223E+04 -0.13994339406E+04  0.62042865528E+04  0.65000000000E+04  0.00000000000E+00 0.  1.
</event>
<event>
 4   1  0.3671700E-05  0.8062258E+02  0.7546771E-02  0.1202337E+00
      -11   -1    0    0    0    0  0.00000000000E+00  0.00000000000E+00  0.65000000000E+04  0.65000000000E+04  0.00000000000E+00 0.  1.
       11   -1    0    0    0    0 -0.00000000000E+00 -0.00000000000E+00 -0.65000000000E+04  0.65000000000E+04  0.00000000000E+00 0. -1.
       22    1    1    2    0    0  0.13354491745E+04 -0.78629757086E+03 -0.63125519113E+04  0.65000000000E+04  0.00000000000E+00 0. -1.
       22    1    1    2    0    0 -0.13354491745E+04  0.78629757086E+03  0.63125519113E+04  0.65000000000E+04  0.00000000000E+00 0.  1.
</event>
<event>
 4   1  0.3671700E-05  0.8062258E+02  0.7546771E-02  0.1202337E+00
      -11   -1    0    0    0    0  0.00000000000E+00  0.00000000000E+00  0.65000000000E+04  0.65000000000E+04  0.00000000000E+00 0. -1.
       11   -1    0    0    0    0 -0.00000000000E+00 -0.00000000000E+00 -0.65000000000E+04  0.65000000000E+04  0.00000000000E+00 0.  1.
       22    1    1    2    0    0  0.11020717834E+04 -0.64878960776E+03  0.63729514221E+04  0.65000000000E+04  0.00000000000E+00 0. -1.
       22    1    1    2    0    0 -0.11020717834E+04  0.64878960776E+03 -0.63729514221E+04  0.65000000000E+04  0.00000000000E+00 0.  1.
</event>
<event>
 4   1  0.3671700E-05  0.8062258E+02  0.7546771E-02  0.1202337E+00
      -11   -1    0    0    0    0  0.00000000000E+00  0.00000000000E+00  0.65000000000E+04  0.65000000000E+04  0.00000000000E+00 0. -1.
       11   -1    0    0    0    0 -0.00000000000E+00 -0.00000000000E+00 -0.65000000000E+04  0.65000000000E+04  0.00000000000E+00 0.  1.
       22    1    1    2    0    0 -0.22156691324E+04  0.38363670747E+03 -0.60986583092E+04  0.65000000000E+04  0.00000000000E+00 0.  1.
       22    1    1    2    0    0  0.22156691324E+04 -0.38363670747E+03  0.60986583092E+04  0.65000000000E+04  0.00000000000E+00 0. -1.
</event>
<event>
 4   1  0.3671700E-05  0.8062258E+02  0.7546771E-02  0.1202337E+00
      -11   -1    0    0    0    0  0.00000000000E+00  0.00000000000E+00  0.65000000000E+04  0.65000000000E+04  0.00000000000E+00 0.  1.
       11   -1    0    0    0    0 -0.00000000000E+00 -0.00000000000E+00 -0.65000000000E+04  0.65000000000E+04  0.00000000000E+00 0. -1.
       22    1    1    2    0    0  0.16111449185E+04  0.29971775290E+04 -0.55381530234E+04  0.65000000000E+04  0.00000000000E+00 0. -1.
       22    1    1    2    0    0 -0.16111449185E+04 -0.29971775290E+04  0.55381530234E+04  0.65000000000E+04  0.00000000000E+00 0.  1.
</event>
<event>
 4   1  0.3671700E-05  0.8062258E+02  0.7546771E-02  0.1202337E+00
      -11   -1    0    0    0    0  0.00000000000E+00  0.00000000000E+00  0.65000000000E+04  0.65000000000E+04  0.00000000000E+00 0.  1.
       11   -1    0    0    0    0 -0.00000000000E+00 -0.00000000000E+00 -0.65000000000E+04  0.65000000000E+04  0.00000000000E+00 0. -1.
       22    1    1    2    0    0 -0.53674262373E+03  0.12069845067E+04 -0.63643613785E+04  0.65000000000E+04  0.00000000000E+00 0. -1.
       22    1    1    2    0    0  0.53674262373E+03 -0.12069845067E+04  0.63643613785E+04  0.65000000000E+04  0.00000000000E+00 0.  1.
</event>
<event>
 4   1  0.3671700E-05  0.8062258E+02  0.7546771E-02  0.1202337E+00
      -11   -1    0    0    0    0  0.00000000000E+00  0.00000000000E+00  0.65000000000E+04  0.65000000000E+04  0.00000000000E+00 0.  1.
       11   -1    0    0    0    0 -0.00000000000E+00 -0.00000000000E+00 -0.65000000000E+04  0.65000000000E+04  0.00000000000E+00 0. -1.
       22    1    1    2    0    0 -0.11026616278E+04 -0.24914702327E+03 -0.64009423599E+04  0.65000000000E+04  0.00000000000E+00 0. -1.
       22    1    1    2    0    0  0.11026616278E+04  0.24914702327E+03  0.64009423599E+04  0.65000000000E+04  0.00000000000E+00 0.  1.
</event>
<event>
 4   1  0.3671700E-05  0.8062258E+02  0.7546771E-02  0.1202337E+00
      -11   -1    0    0    0    0  0.00000000000E+00  0.00000000000E+00  0.65000000000E+04  0.65000000000E+04  0.00000000000E+00 0. -1.
       11   -1    0    0    0    0 -0.00000000000E+00 -0.00000000000E+00 -0.65000000000E+04  0.65000000000E+04  0.00000000000E+00 0.  1.
       22    1    1    2    0    0 -0.82432501819E+02 -0.14709678122E+04 -0.63308339560E+04  0.65000000000E+04  0.00000000000E+00 0.  1.
       22    1    1    2    0    0  0.82432501819E+02  0.14709678122E+04  0.63308339560E+04  0.65000000000E+04  0.00000000000E+00 0. -1.
</event>
<event>
 4   1  0.3671700E-05  0.8062258E+02  0.7546771E-02  0.1202337E+00
      -11   -1    0    0    0    0  0.00000000000E+00  0.00000000000E+00  0.65000000000E+04  0.65000000000E+04  0.00000000000E+00 0. -1.
       11   -1    0    0    0    0 -0.00000000000E+00 -0.00000000000E+00 -0.65000000000E+04  0.65000000000E+04  0.00000000000E+00 0.  1.
       22    1    1    2    0    0  0.77610410509E+03 -0.17551939981E+04 -0.62102299834E+04  0.65000000000E+04  0.00000000000E+00 0.  1.
       22    1    1    2    0    0 -0.77610410509E+03  0.17551939981E+04  0.62102299834E+04  0.65000000000E+04  0.00000000000E+00 0. -1.
</event>
<event>
 4   1  0.3671700E-05  0.8062258E+02  0.7546771E-02  0.1202337E+00
      -11   -1    0    0    0    0  0.00000000000E+00  0.00000000000E+00  0.65000000000E+04  0.65000000000E+04  0.00000000000E+00 0.  1.
       11   -1    0    0    0    0 -0.00000000000E+00 -0.00000000000E+00 -0.65000000000E+04  0.65000000000E+04  0.00000000000E+00 0. -1.
       22    1    1    2    0    0 -0.11748381948E+03  0.13097170022E+04 -0.63655980808E+04  0.65000000000E+04  0.00000000000E+00 0. -1.
       22    1    1    2    0    0  0.11748381948E+03 -0.13097170022E+04  0.63655980808E+04  0.65000000000E+04  0.00000000000E+00 0.  1.
</event>
<event>
 4   1  0.3671700E-05  0.8062258E+02  0.7546771E-02  0.1202337E+00
      -11   -1    0    0    0    0  0.00000000000E+00  0.00000000000E+00  0.65000000000E+04  0.65000000000E+04  0.00000000000E+00 0. -1.
       11   -1    0    0    0    0 -0.00000000000E+00 -0.00000000000E+00 -0.65000000000E+04  0.65000000000E+04  0.00000000000E+00 0.  1.
       22    1    1    2    0    0  0.10296074708E+04  0.95672015860E+03 -0.63462268313E+04  0.65000000000E+04  0.00000000000E+00 0.  1.
       22    1    1    2    0    0 -0.10296074708E+04 -0.95672015860E+03  0.63462268313E+04  0.65000000000E+04  0.00000000000E+00 0. -1.
</event>
<event>
 4   1  0.3671700E-05  0.8062258E+02  0.7546771E-02  0.1202337E+00
      -11   -1    0    0    0    0  0.00000000000E+00  0.00000000000E+00  0.65000000000E+04  0.65000000000E+04  0.00000000000E+00 0.  1.
       11   -1    0    0    0    0 -0.00000000000E+00 -0.00000000000E+00 -0.65000000000E+04  0.65000000000E+04  0.00000000000E+00 0. -1.
       22    1    1    2    0    0 -0.23585646138E+04  0.19077508518E+04  0.57487093899E+04  0.65000000000E+04  0.00000000000E+00 0.  1.
       22    1    1    2    0    0  0.23585646138E+04 -0.19077508518E+04 -0.57487093899E+04  0.65000000000E+04  0.00000000000E+00 0. -1.
</event>
<event>
 4   1  0.3671700E-05  0.8062258E+02  0.7546771E-02  0.1202337E+00
      -11   -1    0    0    0    0  0.00000000000E+00  0.00000000000E+00  0.65000000000E+04  0.65000000000E+04  0.00000000000E+00 0. -1.
       11   -1    0    0    0    0 -0.00000000000E+00 -0.00000000000E+00 -0.65000000000E+04  0.65000000000E+04  0.00000000000E+00 0.  1.
       22    1    1    2    0    0  0.22169803620E+04 -0.34895231354E+04  0.50157976795E+04  0.65000000000E+04  0.00000000000E+00 0. -1.
       22    1    1    2    0    0 -0.22169803620E+04  0.34895231354E+04 -0.50157976795E+04  0.65000000000E+04  0.00000000000E+00 0.  1.
</event>
<event>
 4   1  0.3671700E-05  0.8062258E+02  0.7546771E-02  0.1202337E+00
      -11   -1    0    0    0    0  0.00000000000E+00  0.00000000000E+00  0.65000000000E+04  0.65000000000E+04  0.00000000000E+00 0.  1.
       11   -1    0    0    0    0 -0.00000000000E+00 -0.00000000000E+00 -0.65000000000E+04  0.65000000000E+04  0.00000000000E+00 0. -1.
       22    1    1    2    0    0  0.13400886285E+04 -0.97485123337E+03 -0.62852070404E+04  0.65000000000E+04  0.00000000000E+00 0. -1.
       22    1    1    2    0    0 -0.13400886285E+04  0.97485123337E+03  0.62852070404E+04  0.65000000000E+04  0.00000000000E+00 0.  1.
</event>
<event>
 4   1  0.3671700E-05  0.8062258E+02  0.7546771E-02  0.1202337E+00
      -11   -1    0    0    0    0  0.00000000000E+00  0.00000000000E+00  0.65000000000E+04  0.65000000000E+04  0.00000000000E+00 0.  1.
       11   -1    0    0    0    0 -0.00000000000E+00 -0.00000000000E+00 -0.65000000000E+04  0.65000000000E+04  0.00000000000E+00 0. -1.
       22    1    1    2    0    0 -0.58133481482E+03  0.28140229534E+04 -0.58303794603E+04  0.65000000000E+04  0.00000000000E+00 0. -1.
       22    1    1    2    0    0  0.58133481482E+03 -0.28140229534E+04  0.58303794603E+04  0.65000000000E+04  0.00000000000E+00 0.  1.
</event>
<event>
 4   1  0.3671700E-05  0.8062258E+02  0.7546771E-02  0.1202337E+00
      -11   -1    0    0    0    0  0.00000000000E+00  0.00000000000E+00  0.65000000000E+04  0.65000000000E+04  0.00000000000E+00 0.  1.
       11   -1    0    0    0    0 -0.00000000000E+00 -0.00000000000E+00 -0.65000000000E+04  0.65000000000E+04  0.00000000000E+00 0. -1.
       22    1    1    2    0    0 -0.77496154432E+03 -0.10368890989E+04 -0.63697955698E+04  0.65000000000E+04  0.00000000000E+00 0. -1.
       22    1    1    2    0    0  0.77496154432E+03  0.10368890989E+04  0.63697955698E+04  0.65000000000E+04  0.00000000000E+00 0.  1.
</event>
<event>
 4   1  0.3671700E-05  0.8062258E+02  0.7546771E-02  0.1202337E+00
      -11   -1    0    0    0    0  0.00000000000E+00  0.00000000000E+00  0.65000000000E+04  0.65000000000E+04  0.00000000000E+00 0. -1.
       11   -1    0    0    0    0 -0.00000000000E+00 -0.00000000000E+00 -0.65000000000E+04  0.65000000000E+04  0.00000000000E+00 0.  1.
       22    1    1    2    0    0  0.29654110571E+04  0.24081349101E+04  0.52590135498E+04  0.65000000000E+04  0.00000000000E+00 0. -1.
       22    1    1    2    0    0 -0.29654110571E+04 -0.24081349101E+04 -0.52590135498E+04  0.65000000000E+04  0.00000000000E+00 0.  1.
</event>
<event>
 4   1  0.3671700E-05  0.8062258E+02  0.7546771E-02  0.1202337E+00
      -11   -1    0    0    0    0  0.00000000000E+00  0.00000000000E+00  0.65000000000E+04  0.65000000000E+04  0.00000000000E+00 0. -1.
       11   -1    0    0    0    0 -0.00000000000E+00 -0.00000000000E+00 -0.65000000000E+04  0.65000000000E+04  0.00000000000E+00 0.  1.
       22    1    1    2    0    0  0.11081465138E+04  0.11669200952E+04  0.62976431143E+04  0.65000000000E+04  0.00000000000E+00 0. -1.
       22    1    1    2    0    0 -0.11081465138E+04 -0.11669200952E+04 -0.62976431143E+04  0.65000000000E+04  0.00000000000E+00 0.  1.
</event>
<event>
 5   2  0.3671700E-05  0.7567358E+02  0.7546771E-02  0.1214169E+00
      -11   -1    0    0    0    0  0.00000000000E+00  0.00000000000E+00  0.65000000000E+04  0.65000000000E+04  0.00000000000E+00 0. -1.
       11   -1    0    0    0    0 -0.00000000000E+00 -0.00000000000E+00 -0.65000000000E+04  0.65000000000E+04  0.00000000000E+00 0.  1.
       22    1    1    2    0    0 -0.11967990330E+04 -0.99628976911E+03  0.49422560723E+04  0.51817773315E+04  0.00000000000E+00 0.  1.
       22    1    1    2    0    0  0.10354820889E+04  0.41190944802E+03 -0.62649099188E+04  0.63632530077E+04  0.00000000000E+00 0.  1.
       22    1    1    2    0    0  0.16131694411E+03  0.58438032109E+03  0.13226538465E+04  0.14549696608E+04  0.00000000000E+00 0. -1.
</event>
<event>
 4   1  0.3671700E-05  0.8062258E+02  0.7546771E-02  0.1202337E+00
      -11   -1    0    0    0    0  0.00000000000E+00  0.00000000000E+00  0.65000000000E+04  0.65000000000E+04  0.00000000000E+00 0.  1.
       11   -1    0    0    0    0 -0.00000000000E+00 -0.00000000000E+00 -0.65000000000E+04  0.65000000000E+04  0.00000000000E+00 0. -1.
       22    1    1    2    0    0  0.38887661339E+03  0.10892871832E+04  0.63962667559E+04  0.65000000000E+04  0.00000000000E+00 0.  1.
       22    1    1    2    0    0 -0.38887661339E+03 -0.10892871832E+04 -0.63962667559E+04  0.65000000000E+04  0.00000000000E+00 0. -1.
</event>
<event>
 4   1  0.3671700E-05  0.8062258E+02  0.7546771E-02  0.1202337E+00
      -11   -1    0    0    0    0  0.00000000000E+00  0.00000000000E+00  0.65000000000E+04  0.65000000000E+04  0.00000000000E+00 0. -1.
       11   -1    0    0    0    0 -0.00000000000E+00 -0.00000000000E+00 -0.65000000000E+04  0.65000000000E+04  0.00000000000E+00 0.  1.
       22    1    1    2    0    0  0.86487865988E+03 -0.39159292669E+04  0.51154161982E+04  0.65000000000E+04  0.00000000000E+00 0. -1.
       22    1    1    2    0    0 -0.86487865988E+03  0.39159292669E+04 -0.51154161982E+04  0.65000000000E+04  0.00000000000E+00 0.  1.
</event>
<event>
 4   1  0.3671700E-05  0.8062258E+02  0.7546771E-02  0.1202337E+00
      -11   -1    0    0    0    0  0.00000000000E+00  0.00000000000E+00  0.65000000000E+04  0.65000000000E+04  0.00000000000E+00 0. -1.
       11   -1    0    0    0    0 -0.00000000000E+00 -0.00000000000E+00 -0.65000000000E+04  0.65000000000E+04  0.00000000000E+00 0.  1.
       22    1    1    2    0    0  0.63164075803E+03 -0.94854099659E+03  0.63993202710E+04  0.65000000000E+04  0.00000000000E+00 0. -1.
       22    1    1    2    0    0 -0.63164075803E+03  0.94854099659E+03 -0.63993202710E+04  0.65000000000E+04  0.00000000000E+00 0.  1.
</event>
<event>
 4   1  0.3671700E-05  0.8062258E+02  0.7546771E-02  0.1202337E+00
      -11   -1    0    0    0    0  0.00000000000E+00  0.00000000000E+00  0.65000000000E+04  0.65000000000E+04  0.00000000000E+00 0. -1.
       11   -1    0    0    0    0 -0.00000000000E+00 -0.00000000000E+00 -0.65000000000E+04  0.65000000000E+04  0.00000000000E+00 0.  1.
       22    1    1    2    0    0  0.11440718830E+03 -0.20095346745E+04  0.61805081819E+04  0.65000000000E+04  0.00000000000E+00 0. -1.
       22    1    1    2    0    0 -0.11440718830E+03  0.20095346745E+04 -0.61805081819E+04  0.65000000000E+04  0.00000000000E+00 0.  1.
</event>
<event>
 4   1  0.3671700E-05  0.8062258E+02  0.7546771E-02  0.1202337E+00
      -11   -1    0    0    0    0  0.00000000000E+00  0.00000000000E+00  0.65000000000E+04  0.65000000000E+04  0.00000000000E+00 0. -1.
       11   -1    0    0    0    0 -0.00000000000E+00 -0.00000000000E+00 -0.65000000000E+04  0.65000000000E+04  0.00000000000E+00 0.  1.
       22    1    1    2    0    0 -0.15482812723E+04  0.56324700614E+04 -0.28509833583E+04  0.65000000000E+04  0.00000000000E+00 0.  1.
       22    1    1    2    0    0  0.15482812723E+04 -0.56324700614E+04  0.28509833583E+04  0.65000000000E+04  0.00000000000E+00 0. -1.
</event>
<event>
 4   1  0.3671700E-05  0.8062258E+02  0.7546771E-02  0.1202337E+00
      -11   -1    0    0    0    0  0.00000000000E+00  0.00000000000E+00  0.65000000000E+04  0.65000000000E+04  0.00000000000E+00 0.  1.
       11   -1    0    0    0    0 -0.00000000000E+00 -0.00000000000E+00 -0.65000000000E+04  0.65000000000E+04  0.00000000000E+00 0. -1.
       22    1    1    2    0    0  0.15459554359E+04 -0.49113548093E+03 -0.62943472838E+04  0.65000000000E+04  0.00000000000E+00 0. -1.
       22    1    1    2    0    0 -0.15459554359E+04  0.49113548093E+03  0.62943472838E+04  0.65000000000E+04  0.00000000000E+00 0.  1.
</event>
<event>
 4   1  0.3671700E-05  0.8062258E+02  0.7546771E-02  0.1202337E+00
      -11   -1    0    0    0    0  0.00000000000E+00  0.00000000000E+00  0.65000000000E+04  0.65000000000E+04  0.00000000000E+00 0.  1.
       11   -1    0    0    0    0 -0.00000000000E+00 -0.00000000000E+00 -0.65000000000E+04  0.65000000000E+04  0.00000000000E+00 0. -1.
       22    1    1    2    0    0  0.49460093648E+04  0.23727175302E+04 -0.34867180679E+04  0.65000000000E+04  0.00000000000E+00 0.  1.
       22    1    1    2    0    0 -0.49460093648E+04 -0.23727175302E+04  0.34867180679E+04  0.65000000000E+04  0.00000000000E+00 0. -1.
</event>
<event>
 4   1  0.3671700E-05  0.8062258E+02  0.7546771E-02  0.1202337E+00
      -11   -1    0    0    0    0  0.00000000000E+00  0.00000000000E+00  0.65000000000E+04  0.65000000000E+04  0.00000000000E+00 0.  1.
       11   -1    0    0    0    0 -0.00000000000E+00 -0.00000000000E+00 -0.65000000000E+04  0.65000000000E+04  0.00000000000E+00 0. -1.
       22    1    1    2    0    0  0.10776571070E+04  0.23472251843E+04  0.59648293432E+04  0.65000000000E+04  0.00000000000E+00 0.  1.
       22    1    1    2    0    0 -0.10776571070E+04 -0.23472251843E+04 -0.59648293432E+04  0.65000000000E+04  0.00000000000E+00 0. -1.
</event>
<event>
 4   1  0.3671700E-05  0.8062258E+02  0.7546771E-02  0.1202337E+00
      -11   -1    0    0    0    0  0.00000000000E+00  0.00000000000E+00  0.65000000000E+04  0.65000000000E+04  0.00000000000E+00 0.  1.
       11   -1    0    0    0    0 -0.00000000000E+00 -0.00000000000E+00 -0.65000000000E+04  0.65000000000E+04  0.00000000000E+00 0. -1.
       22    1    1    2    0    0 -0.11677922672E+04  0.60406342816E+03 -0.63656396847E+04  0.65000000000E+04  0.00000000000E+00 0. -1.
       22    1    1    2    0    0  0.11677922672E+04 -0.60406342816E+03  0.63656396847E+04  0.65000000000E+04  0.00000000000E+00 0.  1.
</event>
<event>
 4   1  0.3671700E-05  0.8062258E+02  0.7546771E-02  0.1202337E+00
      -11   -1    0    0    0    0  0.00000000000E+00  0.00000000000E+00  0.65000000000E+04  0.65000000000E+04  0.00000000000E+00 0. -1.
       11   -1    0    0    0    0 -0.00000000000E+00 -0.00000000000E+00 -0.65000000000E+04  0.65000000000E+04  0.00000000000E+00 0.  1.
       22    1    1    2    0    0 -0.14774729090E+04 -0.40983794496E+04  0.48239361200E+04  0.65000000000E+04  0.00000000000E+00 0. -1.
       22    1    1    2    0    0  0.14774729090E+04  0.40983794496E+04 -0.48239361200E+04  0.65000000000E+04  0.00000000000E+00 0.  1.
</event>
<event>
 4   1  0.3671700E-05  0.8062258E+02  0.7546771E-02  0.1202337E+00
      -11   -1    0    0    0    0  0.00000000000E+00  0.00000000000E+00  0.65000000000E+04  0.65000000000E+04  0.00000000000E+00 0. -1.
       11   -1    0    0    0    0 -0.00000000000E+00 -0.00000000000E+00 -0.65000000000E+04  0.65000000000E+04  0.00000000000E+00 0.  1.
       22    1    1    2    0    0  0.67399433126E+03  0.84728953161E+03 -0.64091990210E+04  0.65000000000E+04  0.00000000000E+00 0.  1.
       22    1    1    2    0    0 -0.67399433126E+03 -0.84728953161E+03  0.64091990210E+04  0.65000000000E+04  0.00000000000E+00 0. -1.
</event>
<event>
 4   1  0.3671700E-05  0.8062258E+02  0.7546771E-02  0.1202337E+00
      -11   -1    0    0    0    0  0.00000000000E+00  0.00000000000E+00  0.65000000000E+04  0.65000000000E+04  0.00000000000E+00 0. -1.
       11   -1    0    0    0    0 -0.00000000000E+00 -0.00000000000E+00 -0.65000000000E+04  0.65000000000E+04  0.00000000000E+00 0.  1.
       22    1    1    2    0    0  0.16316806949E+04 -0.10490254740E+04  0.62038023554E+04  0.65000000000E+04  0.00000000000E+00 0. -1.
       22    1    1    2    0    0 -0.16316806949E+04  0.10490254740E+04 -0.62038023554E+04  0.65000000000E+04  0.00000000000E+00 0.  1.
</event>
<event>
 4   1  0.3671700E-05  0.8062258E+02  0.7546771E-02  0.1202337E+00
      -11   -1    0    0    0    0  0.00000000000E+00  0.00000000000E+00  0.65000000000E+04  0.65000000000E+04  0.00000000000E+00 0.  1.
       11   -1    0    0    0    0 -0.00000000000E+00 -0.00000000000E+00 -0.65000000000E+04  0.65000000000E+04  0.00000000000E+00 0. -1.
       22    1    1    2    0    0  0.10077207895E+04 -0.21005533368E+04  0.60681277582E+04  0.65000000000E+04  0.00000000000E+00 0.  1.
       22    1    1    2    0    0 -0.10077207895E+04  0.21005533368E+04 -0.60681277582E+04  0.65000000000E+04  0.00000000000E+00 0. -1.
</event>
<event>
 4   1  0.3671700E-05  0.8062258E+02  0.7546771E-02  0.1202337E+00
      -11   -1    0    0    0    0  0.00000000000E+00  0.00000000000E+00  0.65000000000E+04  0.65000000000E+04  0.00000000000E+00 0. -1.
       11   -1    0    0    0    0 -0.00000000000E+00 -0.00000000000E+00 -0.65000000000E+04  0.65000000000E+04  0.00000000000E+00 0.  1.
       22    1    1    2    0    0  0.93934502959E+03 -0.83368669280E+03 -0.63775071473E+04  0.65000000000E+04  0.00000000000E+00 0.  1.
       22    1    1    2    0    0 -0.93934502959E+03  0.83368669280E+03  0.63775071473E+04  0.65000000000E+04  0.00000000000E+00 0. -1.
</event>
<event>
 4   1  0.3671700E-05  0.8062258E+02  0.7546771E-02  0.1202337E+00
      -11   -1    0    0    0    0  0.00000000000E+00  0.00000000000E+00  0.65000000000E+04  0.65000000000E+04  0.00000000000E+00 0.  1.
       11   -1    0    0    0    0 -0.00000000000E+00 -0.00000000000E+00 -0.65000000000E+04  0.65000000000E+04  0.00000000000E+00 0. -1.
       22    1    1    2    0    0 -0.16507879389E+04  0.12231718652E+04 -0.61667454763E+04  0.65000000000E+04  0.00000000000E+00 0. -1.
       22    1    1    2    0    0  0.16507879389E+04 -0.12231718652E+04  0.61667454763E+04  0.65000000000E+04  0.00000000000E+00 0.  1.
</event>
<event>
 4   1  0.3671700E-05  0.8062258E+02  0.7546771E-02  0.1202337E+00
      -11   -1    0    0    0    0  0.00000000000E+00  0.00000000000E+00  0.65000000000E+04  0.65000000000E+04  0.00000000000E+00 0. -1.
       11   -1    0    0    0    0 -0.00000000000E+00 -0.00000000000E+00 -0.65000000000E+04  0.65000000000E+04  0.00000000000E+00 0.  1.
       22    1    1    2    0    0 -0.20243393603E+03  0.12638952266E+04  0.63727222878E+04  0.65000000000E+04  0.00000000000E+00 0. -1.
       22    1    1    2    0    0  0.20243393603E+03 -0.12638952266E+04 -0.63727222878E+04  0.65000000000E+04  0.00000000000E+00 0.  1.
</event>
<event>
 4   1  0.3671700E-05  0.8062258E+02  0.7546771E-02  0.1202337E+00
      -11   -1    0    0    0    0  0.00000000000E+00  0.00000000000E+00  0.65000000000E+04  0.65000000000E+04  0.00000000000E+00 0.  1.
       11   -1    0    0    0    0 -0.00000000000E+00 -0.00000000000E+00 -0.65000000000E+04  0.65000000000E+04  0.00000000000E+00 0. -1.
       22    1    1    2    0    0 -0.37362980565E+04  0.22876252912E+04  0.48017546127E+04  0.65000000000E+04  0.00000000000E+00 0.  1.
       22    1    1    2    0    0  0.37362980565E+04 -0.22876252912E+04 -0.48017546127E+04  0.65000000000E+04  0.00000000000E+00 0. -1.
</event>
<event>
 4   1  0.3671700E-05  0.8062258E+02  0.7546771E-02  0.1202337E+00
      -11   -1    0    0    0    0  0.00000000000E+00  0.00000000000E+00  0.65000000000E+04  0.65000000000E+04  0.00000000000E+00 0.  1.
       11   -1    0    0    0    0 -0.00000000000E+00 -0.00000000000E+00 -0.65000000000E+04  0.65000000000E+04  0.00000000000E+00 0. -1.
       22    1    1    2    0    0 -0.72365064714E+03  0.39499793554E+04  0.51111635498E+04  0.65000000000E+04  0.00000000000E+00 0. -1.
       22    1    1    2    0    0  0.72365064714E+03 -0.39499793554E+04 -0.51111635498E+04  0.65000000000E+04  0.00000000000E+00 0.  1.
</event>
<event>
 5   2  0.3671700E-05  0.7953166E+02  0.7546771E-02  0.1204862E+00
      -11   -1    0    0    0    0  0.00000000000E+00  0.00000000000E+00  0.65000000000E+04  0.65000000000E+04  0.00000000000E+00 0. -1.
       11   -1    0    0    0    0 -0.00000000000E+00 -0.00000000000E+00 -0.65000000000E+04  0.65000000000E+04  0.00000000000E+00 0.  1.
       22    1    1    2    0    0  0.21735861524E+04  0.31185545257E+04  0.49257312610E+04  0.62219520689E+04  0.00000000000E+00 0. -1.
       22    1    1    2    0    0 -0.20752768826E+04 -0.30787854650E+04 -0.52537467184E+04  0.64333155262E+04  0.00000000000E+00 0.  1.
       22    1    1    2    0    0 -0.98309269799E+02 -0.39769060720E+02  0.32801545735E+03  0.34473240489E+03  0.00000000000E+00 0. -1.
</event>
<event>
 4   1  0.3671700E-05  0.8062258E+02  0.7546771E-02  0.1202337E+00
      -11   -1    0    0    0    0  0.00000000000E+00  0.00000000000E+00  0.65000000000E+04  0.65000000000E+04  0.00000000000E+00 0. -1.
       11   -1    0    0    0    0 -0.00000000000E+00 -0.00000000000E+00 -0.65000000000E+04  0.65000000000E+04  0.00000000000E+00 0.  1.
       22    1    1    2    0    0  0.10991799504E+04  0.27816211165E+04  0.57709953561E+04  0.65000000000E+04  0.00000000000E+00 0. -1.
       22    1    1    2    0    0 -0.10991799504E+04 -0.27816211165E+04 -0.57709953561E+04  0.65000000000E+04  0.00000000000E+00 0.  1.
</event>
<event>
 4   1  0.3671700E-05  0.8062258E+02  0.7546771E-02  0.1202337E+00
      -11   -1    0    0    0    0  0.00000000000E+00  0.00000000000E+00  0.65000000000E+04  0.65000000000E+04  0.00000000000E+00 0. -1.
       11   -1    0    0    0    0 -0.00000000000E+00 -0.00000000000E+00 -0.65000000000E+04  0.65000000000E+04  0.00000000000E+00 0.  1.
       22    1    1    2    0    0 -0.21317211457E+04 -0.32185142193E+04  0.52294293357E+04  0.65000000000E+04  0.00000000000E+00 0. -1.
       22    1    1    2    0    0  0.21317211457E+04  0.32185142193E+04 -0.52294293357E+04  0.65000000000E+04  0.00000000000E+00 0.  1.
</event>
<event>
 4   1  0.3671700E-05  0.8062258E+02  0.7546771E-02  0.1202337E+00
      -11   -1    0    0    0    0  0.00000000000E+00  0.00000000000E+00  0.65000000000E+04  0.65000000000E+04  0.00000000000E+00 0. -1.
       11   -1    0    0    0    0 -0.00000000000E+00 -0.00000000000E+00 -0.65000000000E+04  0.65000000000E+04  0.00000000000E+00 0.  1.
       22    1    1    2    0    0  0.31798868390E+04 -0.20806123575E+04 -0.52734591976E+04  0.65000000000E+04  0.00000000000E+00 0.  1.
       22    1    1    2    0    0 -0.31798868390E+04  0.20806123575E+04  0.52734591976E+04  0.65000000000E+04  0.00000000000E+00 0. -1.
</event>
<event>
 5   2  0.3671700E-05  0.8056345E+02  0.7546771E-02  0.1202473E+00
      -11   -1    0    0    0    0  0.00000000000E+00  0.00000000000E+00  0.65000000000E+04  0.65000000000E+04  0.00000000000E+00 0. -1.
       11   -1    0    0    0    0 -0.00000000000E+00 -0.00000000000E+00 -0.65000000000E+04  0.65000000000E+04  0.00000000000E+00 0.  1.
       22    1    1    2    0    0 -0.13067029641E+03 -0.53295639470E+04  0.36864197867E+04  0.64815906562E+04  0.00000000000E+00 0. -1.
       22    1    1    2    0    0 -0.67424273671E+00 -0.10704985356E+02  0.15739805950E+02  0.19047120677E+02  0.00000000000E+00 0.  1.
       22    1    1    2    0    0  0.13134453915E+03  0.53402689323E+04 -0.37021595926E+04  0.64993622231E+04  0.00000000000E+00 0.  1.
</event>
<event>
 4   1  0.3671700E-05  0.8062258E+02  0.7546771E-02  0.1202337E+00
      -11   -1    0    0    0    0  0.00000000000E+00  0.00000000000E+00  0.65000000000E+04  0.65000000000E+04  0.00000000000E+00 0. -1.
       11   -1    0    0    0    0 -0.00000000000E+00 -0.00000000000E+00 -0.65000000000E+04  0.65000000000E+04  0.00000000000E+00 0.  1.
       22    1    1    2    0    0 -0.14648286757E+04  0.31313996099E+04 -0.55044176290E+04  0.65000000000E+04  0.00000000000E+00 0.  1.
       22    1    1    2    0    0  0.14648286757E+04 -0.31313996099E+04  0.55044176290E+04  0.65000000000E+04  0.00000000000E+00 0. -1.
</event>
<event>
 4   1  0.3671700E-05  0.8062258E+02  0.7546771E-02  0.1202337E+00
      -11   -1    0    0    0    0  0.00000000000E+00  0.00000000000E+00  0.65000000000E+04  0.65000000000E+04  0.00000000000E+00 0.  1.
       11   -1    0    0    0    0 -0.00000000000E+00 -0.00000000000E+00 -0.65000000000E+04  0.65000000000E+04  0.00000000000E+00 0. -1.
       22    1    1    2    0    0 -0.19962980819E+04 -0.21270499827E+04 -0.58086532294E+04  0.65000000000E+04  0.00000000000E+00 0. -1.
       22    1    1    2    0    0  0.19962980819E+04  0.21270499827E+04  0.58086532294E+04  0.65000000000E+04  0.00000000000E+00 0.  1.
</event>
<event>
 4   1  0.3671700E-05  0.8062258E+02  0.7546771E-02  0.1202337E+00
      -11   -1    0    0    0    0  0.00000000000E+00  0.00000000000E+00  0.65000000000E+04  0.65000000000E+04  0.00000000000E+00 0.  1.
       11   -1    0    0    0    0 -0.00000000000E+00 -0.00000000000E+00 -0.65000000000E+04  0.65000000000E+04  0.00000000000E+00 0. -1.
       22    1    1    2    0    0  0.47370651139E+03  0.39282199444E+04  0.51570039955E+04  0.65000000000E+04  0.00000000000E+00 0.  1.
       22    1    1    2    0    0 -0.47370651139E+03 -0.39282199444E+04 -0.51570039955E+04  0.65000000000E+04  0.00000000000E+00 0. -1.
</event>
<event>
 4   1  0.3671700E-05  0.8062258E+02  0.7546771E-02  0.1202337E+00
      -11   -1    0    0    0    0  0.00000000000E+00  0.00000000000E+00  0.65000000000E+04  0.65000000000E+04  0.00000000000E+00 0.  1.
       11   -1    0    0    0    0 -0.00000000000E+00 -0.00000000000E+00 -0.65000000000E+04  0.65000000000E+04  0.00000000000E+00 0. -1.
       22    1    1    2    0    0  0.15272378950E+04  0.35639096326E+04 -0.52169044981E+04  0.65000000000E+04  0.00000000000E+00 0. -1.
       22    1    1    2    0    0 -0.15272378950E+04 -0.35639096326E+04  0.52169044981E+04  0.65000000000E+04  0.00000000000E+00 0.  1.
</event>
<event>
 4   1  0.3671700E-05  0.8062258E+02  0.7546771E-02  0.1202337E+00
      -11   -1    0    0    0    0  0.00000000000E+00  0.00000000000E+00  0.65000000000E+04  0.65000000000E+04  0.00000000000E+00 0.  1.
       11   -1    0    0    0    0 -0.00000000000E+00 -0.00000000000E+00 -0.65000000000E+04  0.65000000000E+04  0.00000000000E+00 0. -1.
       22    1    1    2    0    0  0.38831534038E+04  0.12962664577E+04 -0.50488427301E+04  0.65000000000E+04  0.00000000000E+00 0. -1.
       22    1    1    2    0    0 -0.38831534038E+04 -0.12962664577E+04  0.50488427301E+04  0.65000000000E+04  0.00000000000E+00 0.  1.
</event>
<event>
 4   1  0.3671700E-05  0.8062258E+02  0.7546771E-02  0.1202337E+00
      -11   -1    0    0    0    0  0.00000000000E+00  0.00000000000E+00  0.65000000000E+04  0.65000000000E+04  0.00000000000E+00 0.  1.
       11   -1    0    0    0    0 -0.00000000000E+00 -0.00000000000E+00 -0.65000000000E+04  0.65000000000E+04  0.00000000000E+00 0. -1.
       22    1    1    2    0    0 -0.10719223707E+04  0.60992589887E+03  0.63819254798E+04  0.65000000000E+04  0.00000000000E+00 0.  1.
       22    1    1    2    0    0  0.10719223707E+04 -0.60992589887E+03 -0.63819254798E+04  0.65000000000E+04  0.00000000000E+00 0. -1.
</event>
<event>
 4   1  0.3671700E-05  0.8062258E+02  0.7546771E-02  0.1202337E+00
      -11   -1    0    0    0    0  0.00000000000E+00  0.00000000000E+00  0.65000000000E+04  0.65000000000E+04  0.00000000000E+00 0.  1.
       11   -1    0    0    0    0 -0.00000000000E+00 -0.00000000000E+00 -0.65000000000E+04  0.65000000000E+04  0.00000000000E+00 0. -1.
       22    1    1    2    0    0 -0.17002995211E+04 -0.49206753503E+03  0.62543465749E+04  0.65000000000E+04  0.00000000000E+00 0.  1.
       22    1    1    2    0    0  0.17002995211E+04  0.49206753503E+03 -0.62543465749E+04  0.65000000000E+04  0.00000000000E+00 0. -1.
</event>
<event>
 4   1  0.3671700E-05  0.8062258E+02  0.7546771E-02  0.1202337E+00
      -11   -1    0    0    0    0  0.00000000000E+00  0.00000000000E+00  0.65000000000E+04  0.65000000000E+04  0.00000000000E+00 0.  1.
       11   -1    0    0    0    0 -0.00000000000E+00 -0.00000000000E+00 -0.65000000000E+04  0.65000000000E+04  0.00000000000E+00 0. -1.
       22    1    1    2    0    0 -0.36060438899E+04 -0.40110672743E+04 -0.36273663704E+04  0.65000000000E+04  0.00000000000E+00 0. -1.
       22    1    1    2    0    0  0.36060438899E+04  0.40110672743E+04  0.36273663704E+04  0.65000000000E+04  0.00000000000E+00 0.  1.
</event>
<event>
 4   1  0.3671700E-05  0.8062258E+02  0.7546771E-02  0.1202337E+00
      -11   -1    0    0    0    0  0.00000000000E+00  0.00000000000E+00  0.65000000000E+04  0.65000000000E+04  0.00000000000E+00 0. -1.
       11   -1    0    0    0    0 -0.00000000000E+00 -0.00000000000E+00 -0.65000000000E+04  0.65000000000E+04  0.00000000000E+00 0.  1.
       22    1    1    2    0    0 -0.33950052320E+04  0.29503352270E+04  0.46924899065E+04  0.65000000000E+04  0.00000000000E+00 0. -1.
       22    1    1    2    0    0  0.33950052320E+04 -0.29503352270E+04 -0.46924899065E+04  0.65000000000E+04  0.00000000000E+00 0.  1.
</event>
<event>
 4   1  0.3671700E-05  0.8062258E+02  0.7546771E-02  0.1202337E+00
      -11   -1    0    0    0    0  0.00000000000E+00  0.00000000000E+00  0.65000000000E+04  0.65000000000E+04  0.00000000000E+00 0. -1.
       11   -1    0    0    0    0 -0.00000000000E+00 -0.00000000000E+00 -0.65000000000E+04  0.65000000000E+04  0.00000000000E+00 0.  1.
       22    1    1    2    0    0  0.44681953130E+04 -0.58127510505E+03 -0.46847998780E+04  0.65000000000E+04  0.00000000000E+00 0.  1.
       22    1    1    2    0    0 -0.44681953130E+04  0.58127510505E+03  0.46847998780E+04  0.65000000000E+04  0.00000000000E+00 0. -1.
</event>
<event>
 4   1  0.3671700E-05  0.8062258E+02  0.7546771E-02  0.1202337E+00
      -11   -1    0    0    0    0  0.00000000000E+00  0.00000000000E+00  0.65000000000E+04  0.65000000000E+04  0.00000000000E+00 0. -1.
       11   -1    0    0    0    0 -0.00000000000E+00 -0.00000000000E+00 -0.65000000000E+04  0.65000000000E+04  0.00000000000E+00 0.  1.
       22    1    1    2    0    0 -0.94075264338E+03 -0.15929304976E+04  0.62311762047E+04  0.65000000000E+04  0.00000000000E+00 0. -1.
       22    1    1    2    0    0  0.94075264338E+03  0.15929304976E+04 -0.62311762047E+04  0.65000000000E+04  0.00000000000E+00 0.  1.
</event>
<event>
 4   1  0.3671700E-05  0.8062258E+02  0.7546771E-02  0.1202337E+00
      -11   -1    0    0    0    0  0.00000000000E+00  0.00000000000E+00  0.65000000000E+04  0.65000000000E+04  0.00000000000E+00 0. -1.
       11   -1    0    0    0    0 -0.00000000000E+00 -0.00000000000E+00 -0.65000000000E+04  0.65000000000E+04  0.00000000000E+00 0.  1.
       22    1    1    2    0    0 -0.40095592148E+04  0.92461758827E+03  0.50317509098E+04  0.65000000000E+04  0.00000000000E+00 0. -1.
       22    1    1    2    0    0  0.40095592148E+04 -0.92461758827E+03 -0.50317509098E+04  0.65000000000E+04  0.00000000000E+00 0.  1.
</event>
<event>
 4   1  0.3671700E-05  0.8062258E+02  0.7546771E-02  0.1202337E+00
      -11   -1    0    0    0    0  0.00000000000E+00  0.00000000000E+00  0.65000000000E+04  0.65000000000E+04  0.00000000000E+00 0.  1.
       11   -1    0    0    0    0 -0.00000000000E+00 -0.00000000000E+00 -0.65000000000E+04  0.65000000000E+04  0.00000000000E+00 0. -1.
       22    1    1    2    0    0 -0.51622346693E+03 -0.25842299981E+04  0.59418236804E+04  0.65000000000E+04  0.00000000000E+00 0.  1.
       22    1    1    2    0    0  0.51622346693E+03  0.25842299981E+04 -0.59418236804E+04  0.65000000000E+04  0.00000000000E+00 0. -1.
</event>
<event>
 4   1  0.3671700E-05  0.8062258E+02  0.7546771E-02  0.1202337E+00
      -11   -1    0    0    0    0  0.00000000000E+00  0.00000000000E+00  0.65000000000E+04  0.65000000000E+04  0.00000000000E+00 0. -1.
       11   -1    0    0    0    0 -0.00000000000E+00 -0.00000000000E+00 -0.65000000000E+04  0.65000000000E+04  0.00000000000E+00 0.  1.
       22    1    1    2    0    0  0.79993365668E+03 -0.11373085783E+04 -0.63495381992E+04  0.65000000000E+04  0.00000000000E+00 0.  1.
       22    1    1    2    0    0 -0.79993365668E+03  0.11373085783E+04  0.63495381992E+04  0.65000000000E+04  0.00000000000E+00 0. -1.
</event>
<event>
 4   1  0.3671700E-05  0.8062258E+02  0.7546771E-02  0.1202337E+00
      -11   -1    0    0    0    0  0.00000000000E+00  0.00000000000E+00  0.65000000000E+04  0.65000000000E+04  0.00000000000E+00 0. -1.
       11   -1    0    0    0    0 -0.00000000000E+00 -0.00000000000E+00 -0.65000000000E+04  0.65000000000E+04  0.00000000000E+00 0.  1.
       22    1    1    2    0    0 -0.17184257587E+04  0.12378867664E+03 -0.62675106123E+04  0.65000000000E+04  0.00000000000E+00 0.  1.
       22    1    1    2    0    0  0.17184257587E+04 -0.12378867664E+03  0.62675106123E+04  0.65000000000E+04  0.00000000000E+00 0. -1.
</event>
<event>
 4   1  0.3671700E-05  0.8062258E+02  0.7546771E-02  0.1202337E+00
      -11   -1    0    0    0    0  0.00000000000E+00  0.00000000000E+00  0.65000000000E+04  0.65000000000E+04  0.00000000000E+00 0.  1.
       11   -1    0    0    0    0 -0.00000000000E+00 -0.00000000000E+00 -0.65000000000E+04  0.65000000000E+04  0.00000000000E+00 0. -1.
       22    1    1    2    0    0  0.14431033310E+04 -0.38406946397E+04 -0.50414796896E+04  0.65000000000E+04  0.00000000000E+00 0. -1.
       22    1    1    2    0    0 -0.14431033310E+04  0.38406946397E+04  0.50414796896E+04  0.65000000000E+04  0.00000000000E+00 0.  1.
</event>
<event>
 4   1  0.3671700E-05  0.8062258E+02  0.7546771E-02  0.1202337E+00
      -11   -1    0    0    0    0  0.00000000000E+00  0.00000000000E+00  0.65000000000E+04  0.65000000000E+04  0.00000000000E+00 0. -1.
       11   -1    0    0    0    0 -0.00000000000E+00 -0.00000000000E+00 -0.65000000000E+04  0.65000000000E+04  0.00000000000E+00 0.  1.
       22    1    1    2    0    0 -0.16263678257E+02  0.13140555023E+04 -0.63657673245E+04  0.65000000000E+04  0.00000000000E+00 0.  1.
       22    1    1    2    0    0  0.16263678257E+02 -0.13140555023E+04  0.63657673245E+04  0.65000000000E+04  0.00000000000E+00 0. -1.
</event>
<event>
 4   1  0.3671700E-05  0.8062258E+02  0.7546771E-02  0.1202337E+00
      -11   -1    0    0    0    0  0.00000000000E+00  0.00000000000E+00  0.65000000000E+04  0.65000000000E+04  0.00000000000E+00 0.  1.
       11   -1    0    0    0    0 -0.00000000000E+00 -0.00000000000E+00 -0.65000000000E+04  0.65000000000E+04  0.00000000000E+00 0. -1.
       22    1    1    2    0    0 -0.48578733307E+03 -0.11376085521E+04  0.63812112839E+04  0.65000000000E+04  0.00000000000E+00 0.  1.
       22    1    1    2    0    0  0.48578733307E+03  0.11376085521E+04 -0.63812112839E+04  0.65000000000E+04  0.00000000000E+00 0. -1.
</event>
<event>
 4   1  0.3671700E-05  0.8062258E+02  0.7546771E-02  0.1202337E+00
      -11   -1    0    0    0    0  0.00000000000E+00  0.00000000000E+00  0.65000000000E+04  0.65000000000E+04  0.00000000000E+00 0.  1.
       11   -1    0    0    0    0 -0.00000000000E+00 -0.00000000000E+00 -0.65000000000E+04  0.65000000000E+04  0.00000000000E+00 0. -1.
       22    1    1    2    0    0 -0.35170538572E+04  0.70404050294E+03  0.54207618594E+04  0.65000000000E+04  0.00000000000E+00 0.  1.
       22    1    1    2    0    0  0.35170538572E+04 -0.70404050294E+03 -0.54207618594E+04  0.65000000000E+04  0.00000000000E+00 0. -1.
</event>
<event>
 4   1  0.3671700E-05  0.8062258E+02  0.7546771E-02  0.1202337E+00
      -11   -1    0    0    0    0  0.00000000000E+00  0.00000000000E+00  0.65000000000E+04  0.65000000000E+04  0.00000000000E+00 0. -1.
       11   -1    0    0    0    0 -0.00000000000E+00 -0.00000000000E+00 -0.65000000000E+04  0.65000000000E+04  0.00000000000E+00 0.  1.
       22    1    1    2    0    0  0.19530488387E+04  0.27210474897E+04  0.55705924992E+04  0.65000000000E+04  0.00000000000E+00 0. -1.
       22    1    1    2    0    0 -0.19530488387E+04 -0.27210474897E+04 -0.55705924992E+04  0.65000000000E+04  0.00000000000E+00 0.  1.
</event>
<event>
 4   1  0.3671700E-05  0.8062258E+02  0.7546771E-02  0.1202337E+00
      -11   -1    0    0    0    0  0.00000000000E+00  0.00000000000E+00  0.65000000000E+04  0.65000000000E+04  0.00000000000E+00 0. -1.
       11   -1    0    0    0    0 -0.00000000000E+00 -0.00000000000E+00 -0.65000000000E+04  0.65000000000E+04  0.00000000000E+00 0.  1.
       22    1    1    2    0    0  0.11814408473E+04 -0.10562989644E+02  0.63917201087E+04  0.65000000000E+04  0.00000000000E+00 0. -1.
       22    1    1    2    0    0 -0.11814408473E+04  0.10562989644E+02 -0.63917201087E+04  0.65000000000E+04  0.00000000000E+00 0.  1.
</event>
<event>
 4   1  0.3671700E-05  0.8062258E+02  0.7546771E-02  0.1202337E+00
      -11   -1    0    0    0    0  0.00000000000E+00  0.00000000000E+00  0.65000000000E+04  0.65000000000E+04  0.00000000000E+00 0.  1.
       11   -1    0    0    0    0 -0.00000000000E+00 -0.00000000000E+00 -0.65000000000E+04  0.65000000000E+04  0.00000000000E+00 0. -1.
       22    1    1    2    0    0  0.39507861090E+04 -0.13369635571E+04  0.49853603248E+04  0.65000000000E+04  0.00000000000E+00 0.  1.
       22    1    1    2    0    0 -0.39507861090E+04  0.13369635571E+04 -0.49853603248E+04  0.65000000000E+04  0.00000000000E+00 0. -1.
</event>
<event>
 4   1  0.3671700E-05  0.8062258E+02  0.7546771E-02  0.1202337E+00
      -11   -1    0    0    0    0  0.00000000000E+00  0.00000000000E+00  0.65000000000E+04  0.65000000000E+04  0.00000000000E+00 0.  1.
       11   -1    0    0    0    0 -0.00000000000E+00 -0.00000000000E+00 -0.65000000000E+04  0.65000000000E+04  0.00000000000E+00 0. -1.
       22    1    1    2    0    0  0.51164285569E+03 -0.14285496415E+04  0.63204008979E+04  0.65000000000E+04  0.00000000000E+00 0.  1.
       22    1    1    2    0    0 -0.51164285569E+03  0.14285496415E+04 -0.63204008979E+04  0.65000000000E+04  0.00000000000E+00 0. -1.
</event>
<event>
 4   1  0.3671700E-05  0.8062258E+02  0.7546771E-02  0.1202337E+00
      -11   -1    0    0    0    0  0.00000000000E+00  0.00000000000E+00  0.65000000000E+04  0.65000000000E+04  0.00000000000E+00 0. -1.
       11   -1    0    0    0    0 -0.00000000000E+00 -0.00000000000E+00 -0.65000000000E+04  0.65000000000E+04  0.00000000000E+00 0.  1.
       22    1    1    2    0    0 -0.13940474735E+04 -0.55743056308E+04  0.30387083400E+04  0.65000000000E+04  0.00000000000E+00 0. -1.
       22    1    1    2    0    0  0.13940474735E+04  0.55743056308E+04 -0.30387083400E+04  0.65000000000E+04  0.00000000000E+00 0.  1.
</event>
<event>
 4   1  0.3671700E-05  0.8062258E+02  0.7546771E-02  0.1202337E+00
      -11   -1    0    0    0    0  0.00000000000E+00  0.00000000000E+00  0.65000000000E+04  0.65000000000E+04  0.00000000000E+00 0.  1.
       11   -1    0    0    0    0 -0.00000000000E+00 -0.00000000000E+00 -0.65000000000E+04  0.65000000000E+04  0.00000000000E+00 0. -1.
       22    1    1    2    0    0  0.55633637157E+03 -0.27454620478E+04 -0.58654009228E+04  0.65000000000E+04  0.00000000000E+00 0. -1.
       22    1    1    2    0    0 -0.55633637157E+03  0.27454620478E+04  0.58654009228E+04  0.65000000000E+04  0.00000000000E+00 0.  1.
</event>
<event>
 4   1  0.3671700E-05  0.8062258E+02  0.7546771E-02  0.1202337E+00
      -11   -1    0    0    0    0  0.00000000000E+00  0.00000000000E+00  0.65000000000E+04  0.65000000000E+04  0.00000000000E+00 0.  1.
       11   -1    0    0    0    0 -0.00000000000E+00 -0.00000000000E+00 -0.65000000000E+04  0.65000000000E+04  0.00000000000E+00 0. -1.
       22    1    1    2    0    0 -0.29210724323E+04  0.98853841651E+02 -0.58058215407E+04  0.65000000000E+04  0.00000000000E+00 0. -1.
       22    1    1    2    0    0  0.29210724323E+04 -0.98853841651E+02  0.58058215407E+04  0.65000000000E+04  0.00000000000E+00 0.  1.
</event>
<event>
 4   1  0.3671700E-05  0.8062258E+02  0.7546771E-02  0.1202337E+00
      -11   -1    0    0    0    0  0.00000000000E+00  0.00000000000E+00  0.65000000000E+04  0.65000000000E+04  0.00000000000E+00 0.  1.
       11   -1    0    0    0    0 -0.00000000000E+00 -0.00000000000E+00 -0.65000000000E+04  0.65000000000E+04  0.00000000000E+00 0. -1.
       22    1    1    2    0    0  0.13268847440E+04  0.13449362014E+04 -0.62193668078E+04  0.65000000000E+04  0.00000000000E+00 0. -1.
       22    1    1    2    0    0 -0.13268847440E+04 -0.13449362014E+04  0.62193668078E+04  0.65000000000E+04  0.00000000000E+00 0.  1.
</event>
<event>
 4   1  0.3671700E-05  0.8062258E+02  0.7546771E-02  0.1202337E+00
      -11   -1    0    0    0    0  0.00000000000E+00  0.00000000000E+00  0.65000000000E+04  0.65000000000E+04  0.00000000000E+00 0. -1.
       11   -1    0    0    0    0 -0.00000000000E+00 -0.00000000000E+00 -0.65000000000E+04  0.65000000000E+04  0.00000000000E+00 0.  1.
       22    1    1    2    0    0  0.82593119226E+03  0.10361710169E+04 -0.63635043246E+04  0.65000000000E+04  0.00000000000E+00 0.  1.
       22    1    1    2    0    0 -0.82593119226E+03 -0.10361710169E+04  0.63635043246E+04  0.65000000000E+04  0.00000000000E+00 0. -1.
</event>
<event>
 4   1  0.3671700E-05  0.8062258E+02  0.7546771E-02  0.1202337E+00
      -11   -1    0    0    0    0  0.00000000000E+00  0.00000000000E+00  0.65000000000E+04  0.65000000000E+04  0.00000000000E+00 0.  1.
       11   -1    0    0    0    0 -0.00000000000E+00 -0.00000000000E+00 -0.65000000000E+04  0.65000000000E+04  0.00000000000E+00 0. -1.
       22    1    1    2    0    0 -0.64658132683E+04  0.40849990648E+03 -0.52572483882E+03  0.65000000000E+04  0.00000000000E+00 0. -1.
       22    1    1    2    0    0  0.64658132683E+04 -0.40849990648E+03  0.52572483882E+03  0.65000000000E+04  0.00000000000E+00 0.  1.
</event>
<event>
 4   1  0.3671700E-05  0.8062258E+02  0.7546771E-02  0.1202337E+00
      -11   -1    0    0    0    0  0.00000000000E+00  0.00000000000E+00  0.65000000000E+04  0.65000000000E+04  0.00000000000E+00 0.  1.
       11   -1    0    0    0    0 -0.00000000000E+00 -0.00000000000E+00 -0.65000000000E+04  0.65000000000E+04  0.00000000000E+00 0. -1.
       22    1    1    2    0    0 -0.16415165248E+04 -0.62451273916E+04  0.74418234451E+03  0.65000000000E+04  0.00000000000E+00 0.  1.
       22    1    1    2    0    0  0.16415165248E+04  0.62451273916E+04 -0.74418234451E+03  0.65000000000E+04  0.00000000000E+00 0. -1.
</event>
<event>
 5   2  0.3671700E-05  0.7920531E+02  0.7546771E-02  0.1205626E+00
      -11   -1    0    0    0    0  0.00000000000E+00  0.00000000000E+00  0.65000000000E+04  0.65000000000E+04  0.00000000000E+00 0. -1.
       11   -1    0    0    0    0 -0.00000000000E+00 -0.00000000000E+00 -0.65000000000E+04  0.65000000000E+04  0.00000000000E+00 0.  1.
       22    1    1    2    0    0  0.81974836791E+03  0.22399156176E+04 -0.60262784579E+04  0.64811450696E+04  0.00000000000E+00 0.  1.
       22    1    1    2    0    0  0.12370078778E+02 -0.29546643595E+03  0.33271396813E+03  0.44514269421E+03  0.00000000000E+00 0. -1.
       22    1    1    2    0    0 -0.83211844668E+03 -0.19444491817E+04  0.56935644897E+04  0.60737122362E+04  0.00000000000E+00 0. -1.
</event>
<event>
 4   1  0.3671700E-05  0.8062258E+02  0.7546771E-02  0.1202337E+00
      -11   -1    0    0    0    0  0.00000000000E+00  0.00000000000E+00  0.65000000000E+04  0.65000000000E+04  0.00000000000E+00 0.  1.
       11   -1    0    0    0    0 -0.00000000000E+00 -0.00000000000E+00 -0.65000000000E+04  0.65000000000E+04  0.00000000000E+00 0. -1.
       22    1    1    2    0    0 -0.42726254349E+02 -0.46261466511E+04  0.45658451167E+04  0.65000000000E+04  0.00000000000E+00 0.  1.
       22    1    1    2    0    0  0.42726254349E+02  0.46261466511E+04 -0.45658451167E+04  0.65000000000E+04  0.00000000000E+00 0. -1.
</event>
<event>
 4   1  0.3671700E-05  0.8062258E+02  0.7546771E-02  0.1202337E+00
      -11   -1    0    0    0    0  0.00000000000E+00  0.00000000000E+00  0.65000000000E+04  0.65000000000E+04  0.00000000000E+00 0. -1.
       11   -1    0    0    0    0 -0.00000000000E+00 -0.00000000000E+00 -0.65000000000E+04  0.65000000000E+04  0.00000000000E+00 0.  1.
       22    1    1    2    0    0 -0.51263449365E+04  0.53428491830E+03 -0.39604453307E+04  0.65000000000E+04  0.00000000000E+00 0.  1.
       22    1    1    2    0    0  0.51263449365E+04 -0.53428491830E+03  0.39604453307E+04  0.65000000000E+04  0.00000000000E+00 0. -1.
</event>
<event>
 4   1  0.3671700E-05  0.8062258E+02  0.7546771E-02  0.1202337E+00
      -11   -1    0    0    0    0  0.00000000000E+00  0.00000000000E+00  0.65000000000E+04  0.65000000000E+04  0.00000000000E+00 0.  1.
       11   -1    0    0    0    0 -0.00000000000E+00 -0.00000000000E+00 -0.65000000000E+04  0.65000000000E+04  0.00000000000E+00 0. -1.
       22    1    1    2    0    0 -0.86210275586E+03  0.35642531470E+04 -0.53668313130E+04  0.65000000000E+04  0.00000000000E+00 0. -1.
       22    1    1    2    0    0  0.86210275586E+03 -0.35642531470E+04  0.53668313130E+04  0.65000000000E+04  0.00000000000E+00 0.  1.
</event>
<event>
 4   1  0.3671700E-05  0.8062258E+02  0.7546771E-02  0.1202337E+00
      -11   -1    0    0    0    0  0.00000000000E+00  0.00000000000E+00  0.65000000000E+04  0.65000000000E+04  0.00000000000E+00 0.  1.
       11   -1    0    0    0    0 -0.00000000000E+00 -0.00000000000E+00 -0.65000000000E+04  0.65000000000E+04  0.00000000000E+00 0. -1.
       22    1    1    2    0    0  0.19416407704E+04 -0.14076528229E+04  0.60414025399E+04  0.65000000000E+04  0.00000000000E+00 0.  1.
       22    1    1    2    0    0 -0.19416407704E+04  0.14076528229E+04 -0.60414025399E+04  0.65000000000E+04  0.00000000000E+00 0. -1.
</event>
<event>
 4   1  0.3671700E-05  0.8062258E+02  0.7546771E-02  0.1202337E+00
      -11   -1    0    0    0    0  0.00000000000E+00  0.00000000000E+00  0.65000000000E+04  0.65000000000E+04  0.00000000000E+00 0.  1.
       11   -1    0    0    0    0 -0.00000000000E+00 -0.00000000000E+00 -0.65000000000E+04  0.65000000000E+04  0.00000000000E+00 0. -1.
       22    1    1    2    0    0  0.18408423191E+03  0.13920490937E+04 -0.63465197011E+04  0.65000000000E+04  0.00000000000E+00 0. -1.
       22    1    1    2    0    0 -0.18408423191E+03 -0.13920490937E+04  0.63465197011E+04  0.65000000000E+04  0.00000000000E+00 0.  1.
</event>
<event>
 4   1  0.3671700E-05  0.8062258E+02  0.7546771E-02  0.1202337E+00
      -11   -1    0    0    0    0  0.00000000000E+00  0.00000000000E+00  0.65000000000E+04  0.65000000000E+04  0.00000000000E+00 0.  1.
       11   -1    0    0    0    0 -0.00000000000E+00 -0.00000000000E+00 -0.65000000000E+04  0.65000000000E+04  0.00000000000E+00 0. -1.
       22    1    1    2    0    0 -0.13335151518E+04  0.66173942345E+03  0.63272299054E+04  0.65000000000E+04  0.00000000000E+00 0.  1.
       22    1    1    2    0    0  0.13335151518E+04 -0.66173942345E+03 -0.63272299054E+04  0.65000000000E+04  0.00000000000E+00 0. -1.
</event>
<event>
 4   1  0.3671700E-05  0.8062258E+02  0.7546771E-02  0.1202337E+00
      -11   -1    0    0    0    0  0.00000000000E+00  0.00000000000E+00  0.65000000000E+04  0.65000000000E+04  0.00000000000E+00 0.  1.
       11   -1    0    0    0    0 -0.00000000000E+00 -0.00000000000E+00 -0.65000000000E+04  0.65000000000E+04  0.00000000000E+00 0. -1.
       22    1    1    2    0    0 -0.15549823987E+04 -0.13218216227E+04  0.61712897629E+04  0.65000000000E+04  0.00000000000E+00 0.  1.
       22    1    1    2    0    0  0.15549823987E+04  0.13218216227E+04 -0.61712897629E+04  0.65000000000E+04  0.00000000000E+00 0. -1.
</event>
<event>
 4   1  0.3671700E-05  0.8062258E+02  0.7546771E-02  0.1202337E+00
      -11   -1    0    0    0    0  0.00000000000E+00  0.00000000000E+00  0.65000000000E+04  0.65000000000E+04  0.00000000000E+00 0. -1.
       11   -1    0    0    0    0 -0.00000000000E+00 -0.00000000000E+00 -0.65000000000E+04  0.65000000000E+04  0.00000000000E+00 0.  1.
       22    1    1    2    0    0  0.26676437567E+04 -0.13201332669E+04  0.57784881193E+04  0.65000000000E+04  0.00000000000E+00 0. -1.
       22    1    1    2    0    0 -0.26676437567E+04  0.13201332669E+04 -0.57784881193E+04  0.65000000000E+04  0.00000000000E+00 0.  1.
</event>
<event>
 4   1  0.3671700E-05  0.8062258E+02  0.7546771E-02  0.1202337E+00
      -11   -1    0    0    0    0  0.00000000000E+00  0.00000000000E+00  0.65000000000E+04  0.65000000000E+04  0.00000000000E+00 0.  1.
       11   -1    0    0    0    0 -0.00000000000E+00 -0.00000000000E+00 -0.65000000000E+04  0.65000000000E+04  0.00000000000E+00 0. -1.
       22    1    1    2    0    0 -0.13574681827E+04 -0.38460220938E+04 -0.50611652993E+04  0.65000000000E+04  0.00000000000E+00 0. -1.
       22    1    1    2    0    0  0.13574681827E+04  0.38460220938E+04  0.50611652993E+04  0.65000000000E+04  0.00000000000E+00 0.  1.
</event>
</LesHouchesEvents>
