<LesHouchesEvents version="3.0">
<header>
<!--
#*********************************************************************
#                                                                    *
#                        MadGraph5_aMC@NLO                           *
#                                                                    *
#                           Going Beyond                             *
#                                                                    *
#                   http://madgraph.hep.uiuc.edu                     *
#                   http://madgraph.phys.ucl.ac.be                   *
#                   http://amcatnlo.cern.ch                          *
#                                                                    *
#                     The MadGraph5_aMC@NLO team                     *
#                                                                    *
#....................................................................*
#                                                                    *
# This file contains all the information necessary to reproduce      *
# the events generated:                                              *
#                                                                    *
# 1. software version                                                *
# 2. proc_card          : code generation info including model       *
# 3. param_card         : model primary parameters in the LH format  *
# 4. run_card           : running parameters (collider and cuts)     *
# 5. pythia_card        : present only if pythia has been run        *
# 6. pgs_card           : present only if pgs has been run           *
# 7. delphes_cards      : present only if delphes has been run       *
#                                                                    *
#                                                                    *
#*********************************************************************
-->
<MGVersion>
#5.2.1.2
</MGVersion>
<MG5ProcCard>
#************************************************************
#*                     MadGraph5_aMC@NLO                    *
#*                                                          *
#*                *                       *                 *
#*                  *        * *        *                   *
#*                    * * * * 5 * * * *                     *
#*                  *        * *        *                   *
#*                *                       *                 *
#*                                                          *
#*                                                          *
#*         VERSION 2.1.2                 2014-07-03         *
#*                                                          *
#*    The MadGraph5_aMC@NLO Development Team - Find us at   *
#*    https://server06.fynu.ucl.ac.be/projects/madgraph     *
#*                                                          *
#************************************************************
#*                                                          *
#*               Command File for MadGraph5_aMC@NLO         *
#*                                                          *
#*     run as ./bin/mg5_aMC  filename                       *
#*                                                          *
#************************************************************
set group_subprocesses Auto
set ignore_six_quark_processes False
set gauge unitary
set complex_mass_scheme False
import model DarkPhotonTest_UFO
generate e+ e- > a dp
output ../../DarkPhotonSignalTest
</MG5ProcCard>
<MGProcCard>
#*********************************************************************
#                        MadGraph/MadEvent                           *
#                   http://madgraph.hep.uiuc.edu                     *
#                                                                    *
#                          proc_card.dat                             *
#*********************************************************************
#                                                                    *
#            This Files is generated by MADGRAPH 5                   *
#                                                                    *
# WARNING: This Files is generated for MADEVENT (compatibility issue)*
#          This files is NOT a valid MG4 proc_card.dat               *
#          Running this in MG4 will NEVER reproduce the result of MG5*
#                                                                    *
#*********************************************************************
#*********************************************************************
# Process(es) requested : mg2 input                                  *
#*********************************************************************
# Begin PROCESS # This is TAG. Do not modify this line
e+ e- > a dp           #Process
# Be carefull the coupling are here in MG5 convention
          
end_coup           # End the couplings input

done               # this tells MG there are no more procs
# End PROCESS  # This is TAG. Do not modify this line
#*********************************************************************
# Model information                                                  *
#*********************************************************************
# Begin MODEL  # This is TAG. Do not modify this line
DarkPhotonTest_UFO
# End   MODEL  # This is TAG. Do not modify this line
#*********************************************************************
# Start multiparticle definitions                                    *
#*********************************************************************
# Begin MULTIPARTICLES # This is TAG. Do not modify this line

# End  MULTIPARTICLES # This is TAG. Do not modify this line
</MGProcCard>
<MGRunCard>
#*********************************************************************
#                       MadGraph5_aMC@NLO                            *
#                                                                    *
#                     run_card.dat MadEvent                          *
#                                                                    *
#  This file is used to set the parameters of the run.               *
#                                                                    *
#  Some notation/conventions:                                        *
#                                                                    *
#   Lines starting with a '# ' are info or comments                  *
#                                                                    *
#   mind the format:   value    = variable     ! comment             *
#*********************************************************************
#
#*******************                                                 
# Running parameters
#*******************                                                 
#                                                                    
#*********************************************************************
# Tag name for the run (one word)                                    *
#*********************************************************************
  tag_1     = run_tag ! name of the run 
#*********************************************************************
# Run to generate the grid pack                                      *
#*********************************************************************
  .false.     = gridpack  !True = setting up the grid pack
#*********************************************************************
# Number of events and rnd seed                                      *
# Warning: Do not generate more than 1M events in a single run       *
# If you want to run Pythia, avoid more than 50k events in a run.    *
#*********************************************************************
  1000 = nevents ! Number of unweighted events requested 
 63 = iseed   ! rnd seed (0=assigned automatically=default))
#*********************************************************************
# Collider type and energy                                           *
# lpp: 0=No PDF, 1=proton, -1=antiproton, 2=photon from proton,      *
#                                         3=photon from electron     *
#*********************************************************************
        0     = lpp1    ! beam 1 type 
        -0     = lpp2    ! beam 2 type

     0.035744     = ebeam1  ! beam 1 total energy in GeV
     0.035744     = ebeam2  ! beam 2 total energy in GeV

#*********************************************************************
# Beam polarization from -100 (left-handed) to 100 (right-handed)    *
#*********************************************************************
        0     = polbeam1 ! beam polarization for beam 1
        0     = polbeam2 ! beam polarization for beam 2
#*********************************************************************
# PDF CHOICE: this automatically fixes also alpha_s and its evol.    *
#*********************************************************************
 'nn23lo1'    = pdlabel     ! PDF set                                     
#*********************************************************************
# Renormalization and factorization scales                           *
#*********************************************************************
 T        = fixed_ren_scale  ! if .true. use fixed ren scale
 T        = fixed_fac_scale  ! if .true. use fixed fac scale
 91.1880  = scale            ! fixed ren scale
 91.1880  = dsqrt_q2fact1    ! fixed fact scale for pdf1
 91.1880  = dsqrt_q2fact2    ! fixed fact scale for pdf2
 1        = scalefact        ! scale factor for event-by-event scales
#*********************************************************************
# Matching - Warning! ickkw > 1 is still beta
#*********************************************************************
 0        = ickkw            ! 0 no matching, 1 MLM, 2 CKKW matching
 1        = highestmult      ! for ickkw=2, highest mult group
 1        = ktscheme         ! for ickkw=1, 1 Durham kT, 2 Pythia pTE
 1        = alpsfact         ! scale factor for QCD emission vx
 F        = chcluster        ! cluster only according to channel diag
 T        = pdfwgt           ! for ickkw=1, perform pdf reweighting
 5        = asrwgtflavor     ! highest quark flavor for a_s reweight
 T        = clusinfo         ! include clustering tag in output
 3.0      = lhe_version       ! Change the way clustering information pass to shower.        
#*********************************************************************
#**********************************************************
#
#**********************************************************
# Automatic ptj and mjj cuts if xqcut > 0
# (turn off for VBF and single top processes)
#**********************************************************
   T  = auto_ptj_mjj  ! Automatic setting of ptj and mjj
#**********************************************************
#                                                                    
#**********************************
# BW cutoff (M+/-bwcutoff*Gamma)
#**********************************
  15  = bwcutoff      ! (M+/-bwcutoff*Gamma)
#**********************************************************
# Apply pt/E/eta/dr/mij cuts on decay products or not
# (note that etmiss/ptll/ptheavy/ht/sorted cuts always apply)
#**********************************************************
   T  = cut_decays    ! Cut decay products 
#*************************************************************
# Number of helicities to sum per event (0 = all helicities)
# 0 gives more stable result, but longer run time (needed for
# long decay chains e.g.).
# Use >=2 if most helicities contribute, e.g. pure QCD.
#*************************************************************
   0  = nhel          ! Number of helicities used per event
#*******************                                                 
# Standard Cuts
#*******************                                                 
#                                                                    
#*********************************************************************
# Minimum and maximum pt's (for max, -1 means no cut)                *
#*********************************************************************
 20  = ptj       ! minimum pt for the jets 
  0  = ptb       ! minimum pt for the b 

0.003  = pta       ! minimum pt for the photons 

# 0.013753  = pta       ! minimum pt for the photons 

 0  = ptl       ! minimum pt for the charged leptons 
  0  = misset    ! minimum missing Et (sum of neutrino's momenta)
  0  = ptheavy   ! minimum pt for one heavy final state
 1.0 = ptonium   ! minimum pt for the quarkonium states
 -1  = ptjmax    ! maximum pt for the jets
 -1  = ptbmax    ! maximum pt for the b

 #0.01778  = ptamax    ! maximum pt for the photons
-1 = ptamax 
-1  = ptlmax    ! maximum pt for the charged leptons

 #0.01778  = ptamax    ! maximum pt for the photons
 #-1  = ptlmax    ! maximum pt for the charged leptons

 -1  = missetmax ! maximum missing Et (sum of neutrino's momenta)
#*********************************************************************
# Minimum and maximum E's (in the center of mass frame)              *
#*********************************************************************
  0  = ej     ! minimum E for the jets 
  0  = eb     ! minimum E for the b 
  0  = ea     ! minimum E for the photons 
  0  = el     ! minimum E for the charged leptons 
 -1   = ejmax ! maximum E for the jets
 -1   = ebmax ! maximum E for the b
 -1   = eamax ! maximum E for the photons
 -1   = elmax ! maximum E for the charged leptons
#*********************************************************************
# Maximum and minimum absolute rapidity (for max, -1 means no cut)   *
#*********************************************************************
   5  = etaj    ! max rap for the jets 
  -1  = etab    ! max rap for the b
  -1 = etaa
#  1.58619 = etaa    ! max rap for the photons 
 -1  = etal    ! max rap for the charged leptons 
 0.6  = etaonium ! max rap for the quarkonium states
   0  = etajmin ! min rap for the jets
   0  = etabmin ! min rap for the b
   0 = etaamin 
#   1.29833  = etaamin ! min rap for the photons
   0  = etalmin ! main rap for the charged leptons
#*********************************************************************
# Minimum and maximum DeltaR distance                                *
#*********************************************************************
 0.4 = drjj    ! min distance between jets 
 0   = drbb    ! min distance between b's 
 0.4 = drll    ! min distance between leptons 
 0 = draa    ! min distance between gammas 
 0   = drbj    ! min distance between b and jet 
 0.4 = draj    ! min distance between gamma and jet 
 0.4 = drjl    ! min distance between jet and lepton 
 0   = drab    ! min distance between gamma and b 
 0   = drbl    ! min distance between b and lepton 
 0 = dral    ! min distance between gamma and lepton 
 -1  = drjjmax ! max distance between jets
 -1  = drbbmax ! max distance between b's
 -1  = drllmax ! max distance between leptons
 -1  = draamax ! max distance between gammas
 -1  = drbjmax ! max distance between b and jet
 -1  = drajmax ! max distance between gamma and jet
 -1  = drjlmax ! max distance between jet and lepton
 -1  = drabmax ! max distance between gamma and b
 -1  = drblmax ! max distance between b and lepton
 -1  = dralmax ! maxdistance between gamma and lepton
#*********************************************************************
# Minimum and maximum invariant mass for pairs                       *
# WARNING: for four lepton final state mmll cut require to have      *
#          different lepton masses for each flavor!                  *           
#*********************************************************************
 0   = mmjj    ! min invariant mass of a jet pair 
 0   = mmbb    ! min invariant mass of a b pair 
 0   = mmaa    ! min invariant mass of gamma gamma pair
 0   = mmll    ! min invariant mass of l+l- (same flavour) lepton pair
 -1  = mmjjmax ! max invariant mass of a jet pair
 -1  = mmbbmax ! max invariant mass of a b pair
 -1  = mmaamax ! max invariant mass of gamma gamma pair
 -1  = mmllmax ! max invariant mass of l+l- (same flavour) lepton pair
#*********************************************************************
# Minimum and maximum invariant mass for all letpons                 *
#*********************************************************************
 0   = mmnl    ! min invariant mass for all letpons (l+- and vl) 
 -1  = mmnlmax ! max invariant mass for all letpons (l+- and vl) 
#*********************************************************************
# Minimum and maximum pt for 4-momenta sum of leptons                *
#*********************************************************************
 0   = ptllmin  ! Minimum pt for 4-momenta sum of leptons(l and vl)
 -1  = ptllmax  ! Maximum pt for 4-momenta sum of leptons(l and vl)
#*********************************************************************
# Inclusive cuts                                                     *
#*********************************************************************
 0  = xptj ! minimum pt for at least one jet  
 0  = xptb ! minimum pt for at least one b 
 0  = xpta ! minimum pt for at least one photon 
 0  = xptl ! minimum pt for at least one charged lepton 
#*********************************************************************
# Control the pt's of the jets sorted by pt                          *
#*********************************************************************
 0   = ptj1min ! minimum pt for the leading jet in pt
 0   = ptj2min ! minimum pt for the second jet in pt
 0   = ptj3min ! minimum pt for the third jet in pt
 0   = ptj4min ! minimum pt for the fourth jet in pt
 -1  = ptj1max ! maximum pt for the leading jet in pt 
 -1  = ptj2max ! maximum pt for the second jet in pt
 -1  = ptj3max ! maximum pt for the third jet in pt
 -1  = ptj4max ! maximum pt for the fourth jet in pt
 0   = cutuse  ! reject event if fails any (0) / all (1) jet pt cuts
#*********************************************************************
# Control the pt's of leptons sorted by pt                           *
#*********************************************************************
 0   = ptl1min ! minimum pt for the leading lepton in pt
 0   = ptl2min ! minimum pt for the second lepton in pt
 0   = ptl3min ! minimum pt for the third lepton in pt
 0   = ptl4min ! minimum pt for the fourth lepton in pt
 -1  = ptl1max ! maximum pt for the leading lepton in pt 
 -1  = ptl2max ! maximum pt for the second lepton in pt
 -1  = ptl3max ! maximum pt for the third lepton in pt
 -1  = ptl4max ! maximum pt for the fourth lepton in pt
#*********************************************************************
# Control the Ht(k)=Sum of k leading jets                            *
#*********************************************************************
 0   = htjmin ! minimum jet HT=Sum(jet pt)
 -1  = htjmax ! maximum jet HT=Sum(jet pt)
 0   = ihtmin  !inclusive Ht for all partons (including b)
 -1  = ihtmax  !inclusive Ht for all partons (including b)
 0   = ht2min ! minimum Ht for the two leading jets
 0   = ht3min ! minimum Ht for the three leading jets
 0   = ht4min ! minimum Ht for the four leading jets
 -1  = ht2max ! maximum Ht for the two leading jets
 -1  = ht3max ! maximum Ht for the three leading jets
 -1  = ht4max ! maximum Ht for the four leading jets
#***********************************************************************
# Photon-isolation cuts, according to hep-ph/9801442                   *
# When ptgmin=0, all the other parameters are ignored                  *
# When ptgmin>0, pta and draj are not going to be used                 *
#***********************************************************************
   0 = ptgmin ! Min photon transverse momentum
 0.0 = R0gamma ! Radius of isolation code
 1.0 = xn ! n parameter of eq.(3.4) in hep-ph/9801442
 1.0 = epsgamma ! epsilon_gamma parameter of eq.(3.4) in hep-ph/9801442
 .true. = isoEM ! isolate photons from EM energy (photons and leptons)
#*********************************************************************
# WBF cuts                                                           *
#*********************************************************************
 0   = xetamin ! minimum rapidity for two jets in the WBF case  
 0   = deltaeta ! minimum rapidity for two jets in the WBF case 
#*********************************************************************
# KT DURHAM CUT                                                      *
#*********************************************************************
 -1    =  ktdurham        
 0.4  =  dparameter 
#*********************************************************************
# maximal pdg code for quark to be considered as a light jet         *
# (otherwise b cuts are applied)                                     *
#*********************************************************************
 4 = maxjetflavor    ! Maximum jet pdg code
#*********************************************************************
# Jet measure cuts                                                   *
#*********************************************************************
 0   = xqcut   ! minimum kt jet measure between partons
#*********************************************************************
#
#*********************************************************************
# Store info for systematics studies                                 *
# WARNING: If use_syst is T, matched Pythia output is                *
#          meaningful ONLY if plotted taking matchscale              *
#          reweighting into account!                                 *
#*********************************************************************
   F  = use_syst      ! Enable systematics studies
#
#**************************************
# Parameter of the systematics study
#  will be used by SysCalc (if installed)
#**************************************                                  
#
0.5 1 2 = sys_scalefact  # factorization/renormalization scale factor
0.5 1 2 = sys_alpsfact  # \alpha_s emission scale factors
30 50 = sys_matchscale # variation of merging scale
# PDF sets and number of members (0 or none for all members).
CT10nlo.LHgrid = sys_pdf # matching scales
# MSTW2008nlo68cl.LHgrid 1  = sys_pdf
</MGRunCard>
<slha>
######################################################################
## PARAM_CARD AUTOMATICALY GENERATED BY MG5 FOLLOWING UFO MODEL   ####
######################################################################
##                                                                  ##
##  Width set on Auto will be computed following the information    ##
##        present in the decay.py files of the model.               ##
##        See  arXiv:1402.1178 for more details.                    ##
##                                                                  ##
######################################################################

###################################
## INFORMATION FOR DARKPHOTONINPUTS
###################################
Block darkphotoninputs 
    1 1.000000e-04 # gedP 
    2 1.000000e-02 # gdFdP 

###################################
## INFORMATION FOR MASS
###################################
Block mass 
   11 5.110000e-04 # Me 
  9000001 35.000000e-03 # MdP 
  9000002 20.110000e-04 # MdF 
## Dependent parameters, given by model restrictions.
## Those values should be edited following the 
## analytical expression. MG5 ignores those values 
## but they are important for interfacing the output of MG5
## to external program such as Pythia.
  22 0.000000 # a : 0.0 

###################################
## INFORMATION FOR SMINPUTS
###################################
Block sminputs 
    1 1.279000e+02 # aEWM1 

###################################
## INFORMATION FOR DECAY
###################################
DECAY 9000001 1.000000e-08 # WdP 
## Dependent parameters, given by model restrictions.
## Those values should be edited following the 
## analytical expression. MG5 ignores those values 
## but they are important for interfacing the output of MG5
## to external program such as Pythia.
DECAY  11 0.000000 # e- : 0.0 
DECAY  22 0.000000 # a : 0.0 
DECAY  9000002 0.000000 # df- : 0.0 
#===========================================================
# QUANTUM NUMBERS OF NEW STATE(S) (NON SM PDG CODE)
#===========================================================

Block QNUMBERS 9000001  # dp 
        1 0  # 3 times electric charge
        2 3  # number of spin states (2S+1)
        3 1  # colour rep (1: singlet, 3: triplet, 8: octet)
        4 0  # Particle/Antiparticle distinction (0=own anti)
Block QNUMBERS 9000002  # df- 
        1 0  # 3 times electric charge
        2 2  # number of spin states (2S+1)
        3 1  # colour rep (1: singlet, 3: triplet, 8: octet)
        4 1  # Particle/Antiparticle distinction (0=own anti)
</slha>
## END BANNER##
<MGGenerationInfo>
#  Number of Events        :         1000
#  Integrated weight (pb)  :  0.43342E+02
#  Truncated wgt (pb)      :  0.00000E+00
#  Unit wgt                :  0.43342E-01
</MGGenerationInfo>
</header>
<init>
      -11       11  0.35744000000E-01  0.35744000000E-01 0 0       0       0 3   1
  0.43342490950E+02  0.30288343083E-01  0.43342000000E-01   0
<generator name='MadGraph5_aMC@NLO' version='#5.2.1.2'>please cite 1405.0301 </generator>
</init>
<event>
 4   0  0.4334200E-01  0.9118800E+02  0.7818609E-02  0.1379984E+01
      -11   -1    0    0    0    0  0.00000000000E+00  0.00000000000E+00  0.35740347158E-01  0.35744000000E-01  0.51099999109E-03 0. -1.
       11   -1    0    0    0    0 -0.00000000000E+00 -0.00000000000E+00 -0.35740347158E-01  0.35744000000E-01  0.51099999109E-03 0.  1.
       22    1    1    2    0    0 -0.14997776216E-02  0.70053585557E-02 -0.26214834983E-01  0.27176128396E-01  0.00000000000E+00 0.  1.
  9000001    1    1    2    0    0  0.14997776216E-02 -0.70053585557E-02  0.26214834983E-01  0.44311871604E-01  0.35000000149E-01 0. -1.
</event>
<event>
 4   0  0.4334200E-01  0.9118800E+02  0.7818609E-02  0.1379984E+01
      -11   -1    0    0    0    0  0.00000000000E+00  0.00000000000E+00  0.35740347158E-01  0.35744000000E-01  0.51099999109E-03 0. -1.
       11   -1    0    0    0    0 -0.00000000000E+00 -0.00000000000E+00 -0.35740347158E-01  0.35744000000E-01  0.51099999109E-03 0.  1.
       22    1    1    2    0    0  0.67519051660E-02 -0.25257478511E-02 -0.26202563406E-01  0.27176128396E-01  0.00000000000E+00 0.  1.
  9000001    1    1    2    0    0 -0.67519051660E-02  0.25257478511E-02  0.26202563406E-01  0.44311871604E-01  0.35000000149E-01 0. -1.
</event>
<event>
 4   0  0.4334200E-01  0.9118800E+02  0.7818609E-02  0.1379984E+01
      -11   -1    0    0    0    0  0.00000000000E+00  0.00000000000E+00  0.35740347158E-01  0.35744000000E-01  0.51099999109E-03 0.  1.
       11   -1    0    0    0    0 -0.00000000000E+00 -0.00000000000E+00 -0.35740347158E-01  0.35744000000E-01  0.51099999109E-03 0. -1.
       22    1    1    2    0    0 -0.22778482695E-02  0.67884288893E-02 -0.26215846259E-01  0.27176128396E-01  0.00000000000E+00 0. -1.
  9000001    1    1    2    0    0  0.22778482695E-02 -0.67884288893E-02  0.26215846259E-01  0.44311871604E-01  0.35000000149E-01 0.  1.
</event>
<event>
 4   0  0.4334200E-01  0.9118800E+02  0.7818609E-02  0.1379984E+01
      -11   -1    0    0    0    0  0.00000000000E+00  0.00000000000E+00  0.35740347158E-01  0.35744000000E-01  0.51099999109E-03 0. -1.
       11   -1    0    0    0    0 -0.00000000000E+00 -0.00000000000E+00 -0.35740347158E-01  0.35744000000E-01  0.51099999109E-03 0.  1.
       22    1    1    2    0    0  0.22160826651E-01 -0.29890244483E-02 -0.15443621647E-01  0.27176128396E-01  0.00000000000E+00 0. -1.
  9000001    1    1    2    0    0 -0.22160826651E-01  0.29890244483E-02  0.15443621647E-01  0.44311871604E-01  0.35000000149E-01 0.  1.
</event>
<event>
 4   0  0.4334200E-01  0.9118800E+02  0.7818609E-02  0.1379984E+01
      -11   -1    0    0    0    0  0.00000000000E+00  0.00000000000E+00  0.35740347158E-01  0.35744000000E-01  0.51099999109E-03 0.  1.
       11   -1    0    0    0    0 -0.00000000000E+00 -0.00000000000E+00 -0.35740347158E-01  0.35744000000E-01  0.51099999109E-03 0. -1.
       22    1    1    2    0    0  0.10574946678E-02 -0.31322866070E-02 -0.26974292210E-01  0.27176128396E-01  0.00000000000E+00 0. -1.
  9000001    1    1    2    0    0 -0.10574946678E-02  0.31322866070E-02  0.26974292210E-01  0.44311871604E-01  0.35000000149E-01 0.  1.
</event>
<event>
 4   0  0.4334200E-01  0.9118800E+02  0.7818609E-02  0.1379984E+01
      -11   -1    0    0    0    0  0.00000000000E+00  0.00000000000E+00  0.35740347158E-01  0.35744000000E-01  0.51099999109E-03 0. -1.
       11   -1    0    0    0    0 -0.00000000000E+00 -0.00000000000E+00 -0.35740347158E-01  0.35744000000E-01  0.51099999109E-03 0.  1.
       22    1    1    2    0    0 -0.13752701214E-01 -0.75131564647E-02 -0.22202649478E-01  0.27176128396E-01  0.00000000000E+00 0.  1.
  9000001    1    1    2    0    0  0.13752701214E-01  0.75131564647E-02  0.22202649478E-01  0.44311871604E-01  0.35000000149E-01 0. -1.
</event>
<event>
 4   0  0.4334200E-01  0.9118800E+02  0.7818609E-02  0.1379984E+01
      -11   -1    0    0    0    0  0.00000000000E+00  0.00000000000E+00  0.35740347158E-01  0.35744000000E-01  0.51099999109E-03 0.  1.
       11   -1    0    0    0    0 -0.00000000000E+00 -0.00000000000E+00 -0.35740347158E-01  0.35744000000E-01  0.51099999109E-03 0. -1.
       22    1    1    2    0    0  0.89673786288E-02  0.67057534399E-03 -0.25645241349E-01  0.27176128396E-01  0.00000000000E+00 0. -1.
  9000001    1    1    2    0    0 -0.89673786288E-02 -0.67057534399E-03  0.25645241349E-01  0.44311871604E-01  0.35000000149E-01 0.  1.
</event>
<event>
 4   0  0.4334200E-01  0.9118800E+02  0.7818609E-02  0.1379984E+01
      -11   -1    0    0    0    0  0.00000000000E+00  0.00000000000E+00  0.35740347158E-01  0.35744000000E-01  0.51099999109E-03 0.  1.
       11   -1    0    0    0    0 -0.00000000000E+00 -0.00000000000E+00 -0.35740347158E-01  0.35744000000E-01  0.51099999109E-03 0. -1.
       22    1    1    2    0    0  0.25870347100E-01 -0.63416661347E-02  0.53898391574E-02  0.27176128396E-01  0.00000000000E+00 0.  1.
  9000001    1    1    2    0    0 -0.25870347100E-01  0.63416661347E-02 -0.53898391574E-02  0.44311871604E-01  0.35000000149E-01 0.  0.
</event>
<event>
 4   0  0.4334200E-01  0.9118800E+02  0.7818609E-02  0.1379984E+01
      -11   -1    0    0    0    0  0.00000000000E+00  0.00000000000E+00  0.35740347158E-01  0.35744000000E-01  0.51099999109E-03 0. -1.
       11   -1    0    0    0    0 -0.00000000000E+00 -0.00000000000E+00 -0.35740347158E-01  0.35744000000E-01  0.51099999109E-03 0.  1.
       22    1    1    2    0    0 -0.69445912173E-03  0.33664611084E-02 -0.26957867511E-01  0.27176128396E-01  0.00000000000E+00 0.  1.
  9000001    1    1    2    0    0  0.69445912173E-03 -0.33664611084E-02  0.26957867511E-01  0.44311871604E-01  0.35000000149E-01 0. -1.
</event>
<event>
 4   0  0.4334200E-01  0.9118800E+02  0.7818609E-02  0.1379984E+01
      -11   -1    0    0    0    0  0.00000000000E+00  0.00000000000E+00  0.35740347158E-01  0.35744000000E-01  0.51099999109E-03 0.  1.
       11   -1    0    0    0    0 -0.00000000000E+00 -0.00000000000E+00 -0.35740347158E-01  0.35744000000E-01  0.51099999109E-03 0. -1.
       22    1    1    2    0    0 -0.25427377102E-02  0.70638815927E-02 -0.26118537792E-01  0.27176128396E-01  0.00000000000E+00 0. -1.
  9000001    1    1    2    0    0  0.25427377102E-02 -0.70638815927E-02  0.26118537792E-01  0.44311871604E-01  0.35000000149E-01 0.  1.
</event>
<event>
 4   0  0.4334200E-01  0.9118800E+02  0.7818609E-02  0.1379984E+01
      -11   -1    0    0    0    0  0.00000000000E+00  0.00000000000E+00  0.35740347158E-01  0.35744000000E-01  0.51099999109E-03 0. -1.
       11   -1    0    0    0    0 -0.00000000000E+00 -0.00000000000E+00 -0.35740347158E-01  0.35744000000E-01  0.51099999109E-03 0.  1.
       22    1    1    2    0    0 -0.32517991118E-02  0.34301100049E-02 -0.26761952516E-01  0.27176128396E-01  0.00000000000E+00 0.  1.
  9000001    1    1    2    0    0  0.32517991118E-02 -0.34301100049E-02  0.26761952516E-01  0.44311871604E-01  0.35000000149E-01 0. -1.
</event>
<event>
 4   0  0.4334200E-01  0.9118800E+02  0.7818609E-02  0.1379984E+01
      -11   -1    0    0    0    0  0.00000000000E+00  0.00000000000E+00  0.35740347158E-01  0.35744000000E-01  0.51099999109E-03 0. -1.
       11   -1    0    0    0    0 -0.00000000000E+00 -0.00000000000E+00 -0.35740347158E-01  0.35744000000E-01  0.51099999109E-03 0.  1.
       22    1    1    2    0    0  0.24502814951E-02 -0.12990367612E-01 -0.23744229289E-01  0.27176128396E-01  0.00000000000E+00 0.  1.
  9000001    1    1    2    0    0 -0.24502814951E-02  0.12990367612E-01  0.23744229289E-01  0.44311871604E-01  0.35000000149E-01 0. -1.
</event>
<event>
 4   0  0.4334200E-01  0.9118800E+02  0.7818609E-02  0.1379984E+01
      -11   -1    0    0    0    0  0.00000000000E+00  0.00000000000E+00  0.35740347158E-01  0.35744000000E-01  0.51099999109E-03 0.  1.
       11   -1    0    0    0    0 -0.00000000000E+00 -0.00000000000E+00 -0.35740347158E-01  0.35744000000E-01  0.51099999109E-03 0. -1.
       22    1    1    2    0    0 -0.15740606236E-01  0.52143354151E-02  0.21531046795E-01  0.27176128396E-01  0.00000000000E+00 0.  1.
  9000001    1    1    2    0    0  0.15740606236E-01 -0.52143354151E-02 -0.21531046795E-01  0.44311871604E-01  0.35000000149E-01 0. -1.
</event>
<event>
 4   0  0.4334200E-01  0.9118800E+02  0.7818609E-02  0.1379984E+01
      -11   -1    0    0    0    0  0.00000000000E+00  0.00000000000E+00  0.35740347158E-01  0.35744000000E-01  0.51099999109E-03 0. -1.
       11   -1    0    0    0    0 -0.00000000000E+00 -0.00000000000E+00 -0.35740347158E-01  0.35744000000E-01  0.51099999109E-03 0.  1.
       22    1    1    2    0    0 -0.32103154892E-02 -0.38241975048E-02 -0.26713504871E-01  0.27176128396E-01  0.00000000000E+00 0.  1.
  9000001    1    1    2    0    0  0.32103154892E-02  0.38241975048E-02  0.26713504871E-01  0.44311871604E-01  0.35000000149E-01 0. -1.
</event>
<event>
 4   0  0.4334200E-01  0.9118800E+02  0.7818609E-02  0.1379984E+01
      -11   -1    0    0    0    0  0.00000000000E+00  0.00000000000E+00  0.35740347158E-01  0.35744000000E-01  0.51099999109E-03 0.  1.
       11   -1    0    0    0    0 -0.00000000000E+00 -0.00000000000E+00 -0.35740347158E-01  0.35744000000E-01  0.51099999109E-03 0. -1.
       22    1    1    2    0    0 -0.18601162788E-01  0.21753087648E-02 -0.19692809076E-01  0.27176128396E-01  0.00000000000E+00 0. -1.
  9000001    1    1    2    0    0  0.18601162788E-01 -0.21753087648E-02  0.19692809076E-01  0.44311871604E-01  0.35000000149E-01 0.  1.
</event>
<event>
 4   0  0.4334200E-01  0.9118800E+02  0.7818609E-02  0.1379984E+01
      -11   -1    0    0    0    0  0.00000000000E+00  0.00000000000E+00  0.35740347158E-01  0.35744000000E-01  0.51099999109E-03 0. -1.
       11   -1    0    0    0    0 -0.00000000000E+00 -0.00000000000E+00 -0.35740347158E-01  0.35744000000E-01  0.51099999109E-03 0.  1.
       22    1    1    2    0    0 -0.20921118132E-01  0.16870613249E-01 -0.40287937829E-02  0.27176128396E-01  0.00000000000E+00 0.  1.
  9000001    1    1    2    0    0  0.20921118132E-01 -0.16870613249E-01  0.40287937829E-02  0.44311871604E-01  0.35000000149E-01 0. -1.
</event>
<event>
 4   0  0.4334200E-01  0.9118800E+02  0.7818609E-02  0.1379984E+01
      -11   -1    0    0    0    0  0.00000000000E+00  0.00000000000E+00  0.35740347158E-01  0.35744000000E-01  0.51099999109E-03 0.  1.
       11   -1    0    0    0    0 -0.00000000000E+00 -0.00000000000E+00 -0.35740347158E-01  0.35744000000E-01  0.51099999109E-03 0. -1.
       22    1    1    2    0    0  0.12966268833E-01 -0.22600760572E-02 -0.23776246200E-01  0.27176128396E-01  0.00000000000E+00 0. -1.
  9000001    1    1    2    0    0 -0.12966268833E-01  0.22600760572E-02  0.23776246200E-01  0.44311871604E-01  0.35000000149E-01 0.  1.
</event>
<event>
 4   0  0.4334200E-01  0.9118800E+02  0.7818609E-02  0.1379984E+01
      -11   -1    0    0    0    0  0.00000000000E+00  0.00000000000E+00  0.35740347158E-01  0.35744000000E-01  0.51099999109E-03 0. -1.
       11   -1    0    0    0    0 -0.00000000000E+00 -0.00000000000E+00 -0.35740347158E-01  0.35744000000E-01  0.51099999109E-03 0.  1.
       22    1    1    2    0    0 -0.43733465601E-02 -0.22679708870E-01 -0.14319448315E-01  0.27176128396E-01  0.00000000000E+00 0. -1.
  9000001    1    1    2    0    0  0.43733465601E-02  0.22679708870E-01  0.14319448315E-01  0.44311871604E-01  0.35000000149E-01 0.  1.
</event>
<event>
 4   0  0.4334200E-01  0.9118800E+02  0.7818609E-02  0.1379984E+01
      -11   -1    0    0    0    0  0.00000000000E+00  0.00000000000E+00  0.35740347158E-01  0.35744000000E-01  0.51099999109E-03 0.  1.
       11   -1    0    0    0    0 -0.00000000000E+00 -0.00000000000E+00 -0.35740347158E-01  0.35744000000E-01  0.51099999109E-03 0. -1.
       22    1    1    2    0    0 -0.24303682313E-01  0.11999411955E-01  0.19715712958E-02  0.27176128396E-01  0.00000000000E+00 0.  1.
  9000001    1    1    2    0    0  0.24303682313E-01 -0.11999411955E-01 -0.19715712958E-02  0.44311871604E-01  0.35000000149E-01 0. -1.
</event>
<event>
 4   0  0.4334200E-01  0.9118800E+02  0.7818609E-02  0.1379984E+01
      -11   -1    0    0    0    0  0.00000000000E+00  0.00000000000E+00  0.35740347158E-01  0.35744000000E-01  0.51099999109E-03 0.  1.
       11   -1    0    0    0    0 -0.00000000000E+00 -0.00000000000E+00 -0.35740347158E-01  0.35744000000E-01  0.51099999109E-03 0. -1.
       22    1    1    2    0    0  0.17291940930E-01  0.13118262613E-01  0.16353651564E-01  0.27176128396E-01  0.00000000000E+00 0.  1.
  9000001    1    1    2    0    0 -0.17291940930E-01 -0.13118262613E-01 -0.16353651564E-01  0.44311871604E-01  0.35000000149E-01 0. -1.
</event>
<event>
 4   0  0.4334200E-01  0.9118800E+02  0.7818609E-02  0.1379984E+01
      -11   -1    0    0    0    0  0.00000000000E+00  0.00000000000E+00  0.35740347158E-01  0.35744000000E-01  0.51099999109E-03 0. -1.
       11   -1    0    0    0    0 -0.00000000000E+00 -0.00000000000E+00 -0.35740347158E-01  0.35744000000E-01  0.51099999109E-03 0.  1.
       22    1    1    2    0    0  0.65075089344E-02  0.69788065462E-02  0.25445835440E-01  0.27176128396E-01  0.00000000000E+00 0. -1.
  9000001    1    1    2    0    0 -0.65075089344E-02 -0.69788065462E-02 -0.25445835440E-01  0.44311871604E-01  0.35000000149E-01 0.  1.
</event>
<event>
 4   0  0.4334200E-01  0.9118800E+02  0.7818609E-02  0.1379984E+01
      -11   -1    0    0    0    0  0.00000000000E+00  0.00000000000E+00  0.35740347158E-01  0.35744000000E-01  0.51099999109E-03 0.  1.
       11   -1    0    0    0    0 -0.00000000000E+00 -0.00000000000E+00 -0.35740347158E-01  0.35744000000E-01  0.51099999109E-03 0. -1.
       22    1    1    2    0    0  0.20093499129E-01  0.53811756638E-02  0.17488173027E-01  0.27176128396E-01  0.00000000000E+00 0.  1.
  9000001    1    1    2    0    0 -0.20093499129E-01 -0.53811756638E-02 -0.17488173027E-01  0.44311871604E-01  0.35000000149E-01 0. -1.
</event>
<event>
 4   0  0.4334200E-01  0.9118800E+02  0.7818609E-02  0.1379984E+01
      -11   -1    0    0    0    0  0.00000000000E+00  0.00000000000E+00  0.35740347158E-01  0.35744000000E-01  0.51099999109E-03 0.  1.
       11   -1    0    0    0    0 -0.00000000000E+00 -0.00000000000E+00 -0.35740347158E-01  0.35744000000E-01  0.51099999109E-03 0. -1.
       22    1    1    2    0    0 -0.45010992651E-03 -0.34119258735E-02 -0.26957338843E-01  0.27176128396E-01  0.00000000000E+00 0. -1.
  9000001    1    1    2    0    0  0.45010992651E-03  0.34119258735E-02  0.26957338843E-01  0.44311871604E-01  0.35000000149E-01 0.  1.
</event>
<event>
 4   0  0.4334200E-01  0.9118800E+02  0.7818609E-02  0.1379984E+01
      -11   -1    0    0    0    0  0.00000000000E+00  0.00000000000E+00  0.35740347158E-01  0.35744000000E-01  0.51099999109E-03 0.  1.
       11   -1    0    0    0    0 -0.00000000000E+00 -0.00000000000E+00 -0.35740347158E-01  0.35744000000E-01  0.51099999109E-03 0. -1.
       22    1    1    2    0    0  0.16457781728E-01  0.61160751968E-02 -0.20743119326E-01  0.27176128396E-01  0.00000000000E+00 0. -1.
  9000001    1    1    2    0    0 -0.16457781728E-01 -0.61160751968E-02  0.20743119326E-01  0.44311871604E-01  0.35000000149E-01 0.  1.
</event>
<event>
 4   0  0.4334200E-01  0.9118800E+02  0.7818609E-02  0.1379984E+01
      -11   -1    0    0    0    0  0.00000000000E+00  0.00000000000E+00  0.35740347158E-01  0.35744000000E-01  0.51099999109E-03 0. -1.
       11   -1    0    0    0    0 -0.00000000000E+00 -0.00000000000E+00 -0.35740347158E-01  0.35744000000E-01  0.51099999109E-03 0.  1.
       22    1    1    2    0    0 -0.18914086956E-01 -0.32889882500E-02  0.19234911633E-01  0.27176128396E-01  0.00000000000E+00 0. -1.
  9000001    1    1    2    0    0  0.18914086956E-01  0.32889882500E-02 -0.19234911633E-01  0.44311871604E-01  0.35000000149E-01 0.  1.
</event>
<event>
 4   0  0.4334200E-01  0.9118800E+02  0.7818609E-02  0.1379984E+01
      -11   -1    0    0    0    0  0.00000000000E+00  0.00000000000E+00  0.35740347158E-01  0.35744000000E-01  0.51099999109E-03 0. -1.
       11   -1    0    0    0    0 -0.00000000000E+00 -0.00000000000E+00 -0.35740347158E-01  0.35744000000E-01  0.51099999109E-03 0.  1.
       22    1    1    2    0    0 -0.12671951537E-02 -0.17047267346E-01  0.21126448994E-01  0.27176128396E-01  0.00000000000E+00 0. -1.
  9000001    1    1    2    0    0  0.12671951537E-02  0.17047267346E-01 -0.21126448994E-01  0.44311871604E-01  0.35000000149E-01 0.  1.
</event>
<event>
 4   0  0.4334200E-01  0.9118800E+02  0.7818609E-02  0.1379984E+01
      -11   -1    0    0    0    0  0.00000000000E+00  0.00000000000E+00  0.35740347158E-01  0.35744000000E-01  0.51099999109E-03 0. -1.
       11   -1    0    0    0    0 -0.00000000000E+00 -0.00000000000E+00 -0.35740347158E-01  0.35744000000E-01  0.51099999109E-03 0.  1.
       22    1    1    2    0    0 -0.97979601038E-02  0.15171392971E-01 -0.20306914284E-01  0.27176128396E-01  0.00000000000E+00 0.  1.
  9000001    1    1    2    0    0  0.97979601038E-02 -0.15171392971E-01  0.20306914284E-01  0.44311871604E-01  0.35000000149E-01 0. -1.
</event>
<event>
 4   0  0.4334200E-01  0.9118800E+02  0.7818609E-02  0.1379984E+01
      -11   -1    0    0    0    0  0.00000000000E+00  0.00000000000E+00  0.35740347158E-01  0.35744000000E-01  0.51099999109E-03 0.  1.
       11   -1    0    0    0    0 -0.00000000000E+00 -0.00000000000E+00 -0.35740347158E-01  0.35744000000E-01  0.51099999109E-03 0. -1.
       22    1    1    2    0    0 -0.35570060963E-03  0.68184998504E-02 -0.26304438627E-01  0.27176128396E-01  0.00000000000E+00 0. -1.
  9000001    1    1    2    0    0  0.35570060963E-03 -0.68184998504E-02  0.26304438627E-01  0.44311871604E-01  0.35000000149E-01 0.  1.
</event>
<event>
 4   0  0.4334200E-01  0.9118800E+02  0.7818609E-02  0.1379984E+01
      -11   -1    0    0    0    0  0.00000000000E+00  0.00000000000E+00  0.35740347158E-01  0.35744000000E-01  0.51099999109E-03 0.  1.
       11   -1    0    0    0    0 -0.00000000000E+00 -0.00000000000E+00 -0.35740347158E-01  0.35744000000E-01  0.51099999109E-03 0. -1.
       22    1    1    2    0    0  0.31986555001E-02 -0.11182369111E-01  0.24561457177E-01  0.27176128396E-01  0.00000000000E+00 0.  1.
  9000001    1    1    2    0    0 -0.31986555001E-02  0.11182369111E-01 -0.24561457177E-01  0.44311871604E-01  0.35000000149E-01 0. -1.
</event>
<event>
 4   0  0.4334200E-01  0.9118800E+02  0.7818609E-02  0.1379984E+01
      -11   -1    0    0    0    0  0.00000000000E+00  0.00000000000E+00  0.35740347158E-01  0.35744000000E-01  0.51099999109E-03 0. -1.
       11   -1    0    0    0    0 -0.00000000000E+00 -0.00000000000E+00 -0.35740347158E-01  0.35744000000E-01  0.51099999109E-03 0.  1.
       22    1    1    2    0    0 -0.18095453544E-01 -0.50948423818E-02  0.19624961063E-01  0.27176128396E-01  0.00000000000E+00 0. -1.
  9000001    1    1    2    0    0  0.18095453544E-01  0.50948423818E-02 -0.19624961063E-01  0.44311871604E-01  0.35000000149E-01 0.  0.
</event>
<event>
 4   0  0.4334200E-01  0.9118800E+02  0.7818609E-02  0.1379984E+01
      -11   -1    0    0    0    0  0.00000000000E+00  0.00000000000E+00  0.35740347158E-01  0.35744000000E-01  0.51099999109E-03 0. -1.
       11   -1    0    0    0    0 -0.00000000000E+00 -0.00000000000E+00 -0.35740347158E-01  0.35744000000E-01  0.51099999109E-03 0.  1.
       22    1    1    2    0    0  0.10728326880E-01 -0.20967918777E-01  0.13556966442E-01  0.27176128396E-01  0.00000000000E+00 0. -1.
  9000001    1    1    2    0    0 -0.10728326880E-01  0.20967918777E-01 -0.13556966442E-01  0.44311871604E-01  0.35000000149E-01 0.  1.
</event>
<event>
 4   0  0.4334200E-01  0.9118800E+02  0.7818609E-02  0.1379984E+01
      -11   -1    0    0    0    0  0.00000000000E+00  0.00000000000E+00  0.35740347158E-01  0.35744000000E-01  0.51099999109E-03 0.  1.
       11   -1    0    0    0    0 -0.00000000000E+00 -0.00000000000E+00 -0.35740347158E-01  0.35744000000E-01  0.51099999109E-03 0. -1.
       22    1    1    2    0    0 -0.19357315747E-01  0.78802800496E-02 -0.17370592045E-01  0.27176128396E-01  0.00000000000E+00 0. -1.
  9000001    1    1    2    0    0  0.19357315747E-01 -0.78802800496E-02  0.17370592045E-01  0.44311871604E-01  0.35000000149E-01 0.  1.
</event>
<event>
 4   0  0.4334200E-01  0.9118800E+02  0.7818609E-02  0.1379984E+01
      -11   -1    0    0    0    0  0.00000000000E+00  0.00000000000E+00  0.35740347158E-01  0.35744000000E-01  0.51099999109E-03 0. -1.
       11   -1    0    0    0    0 -0.00000000000E+00 -0.00000000000E+00 -0.35740347158E-01  0.35744000000E-01  0.51099999109E-03 0.  1.
       22    1    1    2    0    0 -0.18798180892E-02 -0.25445374135E-02  0.26991360987E-01  0.27176128396E-01  0.00000000000E+00 0. -1.
  9000001    1    1    2    0    0  0.18798180892E-02  0.25445374135E-02 -0.26991360987E-01  0.44311871604E-01  0.35000000149E-01 0.  1.
</event>
<event>
 4   0  0.4334200E-01  0.9118800E+02  0.7818609E-02  0.1379984E+01
      -11   -1    0    0    0    0  0.00000000000E+00  0.00000000000E+00  0.35740347158E-01  0.35744000000E-01  0.51099999109E-03 0.  1.
       11   -1    0    0    0    0 -0.00000000000E+00 -0.00000000000E+00 -0.35740347158E-01  0.35744000000E-01  0.51099999109E-03 0. -1.
       22    1    1    2    0    0  0.89602953009E-02  0.32866239370E-03  0.25654376698E-01  0.27176128396E-01  0.00000000000E+00 0.  1.
  9000001    1    1    2    0    0 -0.89602953009E-02 -0.32866239370E-03 -0.25654376698E-01  0.44311871604E-01  0.35000000149E-01 0. -1.
</event>
<event>
 4   0  0.4334200E-01  0.9118800E+02  0.7818609E-02  0.1379984E+01
      -11   -1    0    0    0    0  0.00000000000E+00  0.00000000000E+00  0.35740347158E-01  0.35744000000E-01  0.51099999109E-03 0. -1.
       11   -1    0    0    0    0 -0.00000000000E+00 -0.00000000000E+00 -0.35740347158E-01  0.35744000000E-01  0.51099999109E-03 0.  1.
       22    1    1    2    0    0  0.42735315967E-02  0.18001895138E-02  0.26777568971E-01  0.27176128396E-01  0.00000000000E+00 0. -1.
  9000001    1    1    2    0    0 -0.42735315967E-02 -0.18001895138E-02 -0.26777568971E-01  0.44311871604E-01  0.35000000149E-01 0.  1.
</event>
<event>
 4   0  0.4334200E-01  0.9118800E+02  0.7818609E-02  0.1379984E+01
      -11   -1    0    0    0    0  0.00000000000E+00  0.00000000000E+00  0.35740347158E-01  0.35744000000E-01  0.51099999109E-03 0.  1.
       11   -1    0    0    0    0 -0.00000000000E+00 -0.00000000000E+00 -0.35740347158E-01  0.35744000000E-01  0.51099999109E-03 0. -1.
       22    1    1    2    0    0  0.25371673311E-02 -0.46454235018E-02  0.26655670635E-01  0.27176128396E-01  0.00000000000E+00 0.  1.
  9000001    1    1    2    0    0 -0.25371673311E-02  0.46454235018E-02 -0.26655670635E-01  0.44311871604E-01  0.35000000149E-01 0. -1.
</event>
<event>
 4   0  0.4334200E-01  0.9118800E+02  0.7818609E-02  0.1379984E+01
      -11   -1    0    0    0    0  0.00000000000E+00  0.00000000000E+00  0.35740347158E-01  0.35744000000E-01  0.51099999109E-03 0. -1.
       11   -1    0    0    0    0 -0.00000000000E+00 -0.00000000000E+00 -0.35740347158E-01  0.35744000000E-01  0.51099999109E-03 0.  1.
       22    1    1    2    0    0 -0.13440165485E-01  0.75975516335E-02 -0.22364729274E-01  0.27176128396E-01  0.00000000000E+00 0.  1.
  9000001    1    1    2    0    0  0.13440165485E-01 -0.75975516335E-02  0.22364729274E-01  0.44311871604E-01  0.35000000149E-01 0. -1.
</event>
<event>
 4   0  0.4334200E-01  0.9118800E+02  0.7818609E-02  0.1379984E+01
      -11   -1    0    0    0    0  0.00000000000E+00  0.00000000000E+00  0.35740347158E-01  0.35744000000E-01  0.51099999109E-03 0.  1.
       11   -1    0    0    0    0 -0.00000000000E+00 -0.00000000000E+00 -0.35740347158E-01  0.35744000000E-01  0.51099999109E-03 0. -1.
       22    1    1    2    0    0 -0.34058779540E-02 -0.15593123562E-02 -0.26916732620E-01  0.27176128396E-01  0.00000000000E+00 0. -1.
  9000001    1    1    2    0    0  0.34058779540E-02  0.15593123562E-02  0.26916732620E-01  0.44311871604E-01  0.35000000149E-01 0.  1.
</event>
<event>
 4   0  0.4334200E-01  0.9118800E+02  0.7818609E-02  0.1379984E+01
      -11   -1    0    0    0    0  0.00000000000E+00  0.00000000000E+00  0.35740347158E-01  0.35744000000E-01  0.51099999109E-03 0. -1.
       11   -1    0    0    0    0 -0.00000000000E+00 -0.00000000000E+00 -0.35740347158E-01  0.35744000000E-01  0.51099999109E-03 0.  1.
       22    1    1    2    0    0  0.92768390910E-03 -0.27148350330E-01 -0.80525247325E-03  0.27176128396E-01  0.00000000000E+00 0.  1.
  9000001    1    1    2    0    0 -0.92768390910E-03  0.27148350330E-01  0.80525247325E-03  0.44311871604E-01  0.35000000149E-01 0. -1.
</event>
<event>
 4   0  0.4334200E-01  0.9118800E+02  0.7818609E-02  0.1379984E+01
      -11   -1    0    0    0    0  0.00000000000E+00  0.00000000000E+00  0.35740347158E-01  0.35744000000E-01  0.51099999109E-03 0. -1.
       11   -1    0    0    0    0 -0.00000000000E+00 -0.00000000000E+00 -0.35740347158E-01  0.35744000000E-01  0.51099999109E-03 0.  1.
       22    1    1    2    0    0 -0.28725974214E-02  0.19151512742E-02  0.26955933192E-01  0.27176128396E-01  0.00000000000E+00 0. -1.
  9000001    1    1    2    0    0  0.28725974214E-02 -0.19151512742E-02 -0.26955933192E-01  0.44311871604E-01  0.35000000149E-01 0.  1.
</event>
<event>
 4   0  0.4334200E-01  0.9118800E+02  0.7818609E-02  0.1379984E+01
      -11   -1    0    0    0    0  0.00000000000E+00  0.00000000000E+00  0.35740347158E-01  0.35744000000E-01  0.51099999109E-03 0.  1.
       11   -1    0    0    0    0 -0.00000000000E+00 -0.00000000000E+00 -0.35740347158E-01  0.35744000000E-01  0.51099999109E-03 0. -1.
       22    1    1    2    0    0 -0.74162686994E-02 -0.24490305955E-01  0.91523673112E-02  0.27176128396E-01  0.00000000000E+00 0.  1.
  9000001    1    1    2    0    0  0.74162686994E-02  0.24490305955E-01 -0.91523673112E-02  0.44311871604E-01  0.35000000149E-01 0. -1.
</event>
<event>
 4   0  0.4334200E-01  0.9118800E+02  0.7818609E-02  0.1379984E+01
      -11   -1    0    0    0    0  0.00000000000E+00  0.00000000000E+00  0.35740347158E-01  0.35744000000E-01  0.51099999109E-03 0.  1.
       11   -1    0    0    0    0 -0.00000000000E+00 -0.00000000000E+00 -0.35740347158E-01  0.35744000000E-01  0.51099999109E-03 0. -1.
       22    1    1    2    0    0  0.45257379208E-02  0.10708797986E-01  0.24563820887E-01  0.27176128396E-01  0.00000000000E+00 0.  1.
  9000001    1    1    2    0    0 -0.45257379208E-02 -0.10708797986E-01 -0.24563820887E-01  0.44311871604E-01  0.35000000149E-01 0. -1.
</event>
<event>
 4   0  0.4334200E-01  0.9118800E+02  0.7818609E-02  0.1379984E+01
      -11   -1    0    0    0    0  0.00000000000E+00  0.00000000000E+00  0.35740347158E-01  0.35744000000E-01  0.51099999109E-03 0.  1.
       11   -1    0    0    0    0 -0.00000000000E+00 -0.00000000000E+00 -0.35740347158E-01  0.35744000000E-01  0.51099999109E-03 0. -1.
       22    1    1    2    0    0  0.31145580409E-02 -0.27070908643E-02 -0.26860996666E-01  0.27176128396E-01  0.00000000000E+00 0. -1.
  9000001    1    1    2    0    0 -0.31145580409E-02  0.27070908643E-02  0.26860996666E-01  0.44311871604E-01  0.35000000149E-01 0.  1.
</event>
<event>
 4   0  0.4334200E-01  0.9118800E+02  0.7818609E-02  0.1379984E+01
      -11   -1    0    0    0    0  0.00000000000E+00  0.00000000000E+00  0.35740347158E-01  0.35744000000E-01  0.51099999109E-03 0. -1.
       11   -1    0    0    0    0 -0.00000000000E+00 -0.00000000000E+00 -0.35740347158E-01  0.35744000000E-01  0.51099999109E-03 0.  1.
       22    1    1    2    0    0  0.69766579634E-02  0.40258487227E-02  0.25954975252E-01  0.27176128396E-01  0.00000000000E+00 0. -1.
  9000001    1    1    2    0    0 -0.69766579634E-02 -0.40258487227E-02 -0.25954975252E-01  0.44311871604E-01  0.35000000149E-01 0.  1.
</event>
<event>
 4   0  0.4334200E-01  0.9118800E+02  0.7818609E-02  0.1379984E+01
      -11   -1    0    0    0    0  0.00000000000E+00  0.00000000000E+00  0.35740347158E-01  0.35744000000E-01  0.51099999109E-03 0.  1.
       11   -1    0    0    0    0 -0.00000000000E+00 -0.00000000000E+00 -0.35740347158E-01  0.35744000000E-01  0.51099999109E-03 0. -1.
       22    1    1    2    0    0 -0.54133586829E-02  0.54029401148E-02 -0.26077686640E-01  0.27176128396E-01  0.00000000000E+00 0. -1.
  9000001    1    1    2    0    0  0.54133586829E-02 -0.54029401148E-02  0.26077686640E-01  0.44311871604E-01  0.35000000149E-01 0.  1.
</event>
<event>
 4   0  0.4334200E-01  0.9118800E+02  0.7818609E-02  0.1379984E+01
      -11   -1    0    0    0    0  0.00000000000E+00  0.00000000000E+00  0.35740347158E-01  0.35744000000E-01  0.51099999109E-03 0. -1.
       11   -1    0    0    0    0 -0.00000000000E+00 -0.00000000000E+00 -0.35740347158E-01  0.35744000000E-01  0.51099999109E-03 0.  1.
       22    1    1    2    0    0 -0.71928317824E-02  0.57298677705E-02 -0.25572910294E-01  0.27176128396E-01  0.00000000000E+00 0.  1.
  9000001    1    1    2    0    0  0.71928317824E-02 -0.57298677705E-02  0.25572910294E-01  0.44311871604E-01  0.35000000149E-01 0. -1.
</event>
<event>
 4   0  0.4334200E-01  0.9118800E+02  0.7818609E-02  0.1379984E+01
      -11   -1    0    0    0    0  0.00000000000E+00  0.00000000000E+00  0.35740347158E-01  0.35744000000E-01  0.51099999109E-03 0.  1.
       11   -1    0    0    0    0 -0.00000000000E+00 -0.00000000000E+00 -0.35740347158E-01  0.35744000000E-01  0.51099999109E-03 0. -1.
       22    1    1    2    0    0 -0.14853489577E-01  0.18536499977E-03 -0.22757008631E-01  0.27176128396E-01  0.00000000000E+00 0. -1.
  9000001    1    1    2    0    0  0.14853489577E-01 -0.18536499977E-03  0.22757008631E-01  0.44311871604E-01  0.35000000149E-01 0.  1.
</event>
<event>
 4   0  0.4334200E-01  0.9118800E+02  0.7818609E-02  0.1379984E+01
      -11   -1    0    0    0    0  0.00000000000E+00  0.00000000000E+00  0.35740347158E-01  0.35744000000E-01  0.51099999109E-03 0.  1.
       11   -1    0    0    0    0 -0.00000000000E+00 -0.00000000000E+00 -0.35740347158E-01  0.35744000000E-01  0.51099999109E-03 0. -1.
       22    1    1    2    0    0 -0.39354202968E-02 -0.19542227144E-03  0.26888961152E-01  0.27176128396E-01  0.00000000000E+00 0.  1.
  9000001    1    1    2    0    0  0.39354202968E-02  0.19542227144E-03 -0.26888961152E-01  0.44311871604E-01  0.35000000149E-01 0. -1.
</event>
<event>
 4   0  0.4334200E-01  0.9118800E+02  0.7818609E-02  0.1379984E+01
      -11   -1    0    0    0    0  0.00000000000E+00  0.00000000000E+00  0.35740347158E-01  0.35744000000E-01  0.51099999109E-03 0.  1.
       11   -1    0    0    0    0 -0.00000000000E+00 -0.00000000000E+00 -0.35740347158E-01  0.35744000000E-01  0.51099999109E-03 0. -1.
       22    1    1    2    0    0  0.61570959846E-02 -0.43471594884E-02 -0.26110042666E-01  0.27176128396E-01  0.00000000000E+00 0. -1.
  9000001    1    1    2    0    0 -0.61570959846E-02  0.43471594884E-02  0.26110042666E-01  0.44311871604E-01  0.35000000149E-01 0.  1.
</event>
<event>
 4   0  0.4334200E-01  0.9118800E+02  0.7818609E-02  0.1379984E+01
      -11   -1    0    0    0    0  0.00000000000E+00  0.00000000000E+00  0.35740347158E-01  0.35744000000E-01  0.51099999109E-03 0.  1.
       11   -1    0    0    0    0 -0.00000000000E+00 -0.00000000000E+00 -0.35740347158E-01  0.35744000000E-01  0.51099999109E-03 0. -1.
       22    1    1    2    0    0  0.89015019618E-02  0.23985994447E-02 -0.25564661901E-01  0.27176128396E-01  0.00000000000E+00 0.  1.
  9000001    1    1    2    0    0 -0.89015019618E-02 -0.23985994447E-02  0.25564661901E-01  0.44311871604E-01  0.35000000149E-01 0.  1.
</event>
<event>
 4   0  0.4334200E-01  0.9118800E+02  0.7818609E-02  0.1379984E+01
      -11   -1    0    0    0    0  0.00000000000E+00  0.00000000000E+00  0.35740347158E-01  0.35744000000E-01  0.51099999109E-03 0. -1.
       11   -1    0    0    0    0 -0.00000000000E+00 -0.00000000000E+00 -0.35740347158E-01  0.35744000000E-01  0.51099999109E-03 0.  1.
       22    1    1    2    0    0 -0.24526919741E-02 -0.14932546086E-01  0.22573110642E-01  0.27176128396E-01  0.00000000000E+00 0. -1.
  9000001    1    1    2    0    0  0.24526919741E-02  0.14932546086E-01 -0.22573110642E-01  0.44311871604E-01  0.35000000149E-01 0.  1.
</event>
<event>
 4   0  0.4334200E-01  0.9118800E+02  0.7818609E-02  0.1379984E+01
      -11   -1    0    0    0    0  0.00000000000E+00  0.00000000000E+00  0.35740347158E-01  0.35744000000E-01  0.51099999109E-03 0.  1.
       11   -1    0    0    0    0 -0.00000000000E+00 -0.00000000000E+00 -0.35740347158E-01  0.35744000000E-01  0.51099999109E-03 0. -1.
       22    1    1    2    0    0 -0.80695039215E-03  0.30379757051E-02 -0.26993730555E-01  0.27176128396E-01  0.00000000000E+00 0. -1.
  9000001    1    1    2    0    0  0.80695039215E-03 -0.30379757051E-02  0.26993730555E-01  0.44311871604E-01  0.35000000149E-01 0.  1.
</event>
<event>
 4   0  0.4334200E-01  0.9118800E+02  0.7818609E-02  0.1379984E+01
      -11   -1    0    0    0    0  0.00000000000E+00  0.00000000000E+00  0.35740347158E-01  0.35744000000E-01  0.51099999109E-03 0.  1.
       11   -1    0    0    0    0 -0.00000000000E+00 -0.00000000000E+00 -0.35740347158E-01  0.35744000000E-01  0.51099999109E-03 0. -1.
       22    1    1    2    0    0  0.21268718955E-03 -0.64859867242E-02 -0.26389935486E-01  0.27176128396E-01  0.00000000000E+00 0. -1.
  9000001    1    1    2    0    0 -0.21268718955E-03  0.64859867242E-02  0.26389935486E-01  0.44311871604E-01  0.35000000149E-01 0.  1.
</event>
<event>
 4   0  0.4334200E-01  0.9118800E+02  0.7818609E-02  0.1379984E+01
      -11   -1    0    0    0    0  0.00000000000E+00  0.00000000000E+00  0.35740347158E-01  0.35744000000E-01  0.51099999109E-03 0.  1.
       11   -1    0    0    0    0 -0.00000000000E+00 -0.00000000000E+00 -0.35740347158E-01  0.35744000000E-01  0.51099999109E-03 0. -1.
       22    1    1    2    0    0  0.24338304283E-04  0.24255864341E-01 -0.12255382789E-01  0.27176128396E-01  0.00000000000E+00 0. -1.
  9000001    1    1    2    0    0 -0.24338304283E-04 -0.24255864341E-01  0.12255382789E-01  0.44311871604E-01  0.35000000149E-01 0.  1.
</event>
<event>
 4   0  0.4334200E-01  0.9118800E+02  0.7818609E-02  0.1379984E+01
      -11   -1    0    0    0    0  0.00000000000E+00  0.00000000000E+00  0.35740347158E-01  0.35744000000E-01  0.51099999109E-03 0.  1.
       11   -1    0    0    0    0 -0.00000000000E+00 -0.00000000000E+00 -0.35740347158E-01  0.35744000000E-01  0.51099999109E-03 0. -1.
       22    1    1    2    0    0 -0.85900655941E-03 -0.12672904296E-01  0.24025019439E-01  0.27176128396E-01  0.00000000000E+00 0.  1.
  9000001    1    1    2    0    0  0.85900655941E-03  0.12672904296E-01 -0.24025019439E-01  0.44311871604E-01  0.35000000149E-01 0. -1.
</event>
<event>
 4   0  0.4334200E-01  0.9118800E+02  0.7818609E-02  0.1379984E+01
      -11   -1    0    0    0    0  0.00000000000E+00  0.00000000000E+00  0.35740347158E-01  0.35744000000E-01  0.51099999109E-03 0.  1.
       11   -1    0    0    0    0 -0.00000000000E+00 -0.00000000000E+00 -0.35740347158E-01  0.35744000000E-01  0.51099999109E-03 0. -1.
       22    1    1    2    0    0 -0.12006394507E-01  0.19675531906E-01  0.14396592991E-01  0.27176128396E-01  0.00000000000E+00 0. -1.
  9000001    1    1    2    0    0  0.12006394507E-01 -0.19675531906E-01 -0.14396592991E-01  0.44311871604E-01  0.35000000149E-01 0. -1.
</event>
<event>
 4   0  0.4334200E-01  0.9118800E+02  0.7818609E-02  0.1379984E+01
      -11   -1    0    0    0    0  0.00000000000E+00  0.00000000000E+00  0.35740347158E-01  0.35744000000E-01  0.51099999109E-03 0.  1.
       11   -1    0    0    0    0 -0.00000000000E+00 -0.00000000000E+00 -0.35740347158E-01  0.35744000000E-01  0.51099999109E-03 0. -1.
       22    1    1    2    0    0  0.42470577736E-02  0.32134665636E-02  0.26649166732E-01  0.27176128396E-01  0.00000000000E+00 0.  1.
  9000001    1    1    2    0    0 -0.42470577736E-02 -0.32134665636E-02 -0.26649166732E-01  0.44311871604E-01  0.35000000149E-01 0. -1.
</event>
<event>
 4   0  0.4334200E-01  0.9118800E+02  0.7818609E-02  0.1379984E+01
      -11   -1    0    0    0    0  0.00000000000E+00  0.00000000000E+00  0.35740347158E-01  0.35744000000E-01  0.51099999109E-03 0. -1.
       11   -1    0    0    0    0 -0.00000000000E+00 -0.00000000000E+00 -0.35740347158E-01  0.35744000000E-01  0.51099999109E-03 0.  1.
       22    1    1    2    0    0 -0.24623557149E-01  0.49106068523E-02  0.10397515486E-01  0.27176128396E-01  0.00000000000E+00 0.  1.
  9000001    1    1    2    0    0  0.24623557149E-01 -0.49106068523E-02 -0.10397515486E-01  0.44311871604E-01  0.35000000149E-01 0.  0.
</event>
<event>
 4   0  0.4334200E-01  0.9118800E+02  0.7818609E-02  0.1379984E+01
      -11   -1    0    0    0    0  0.00000000000E+00  0.00000000000E+00  0.35740347158E-01  0.35744000000E-01  0.51099999109E-03 0.  1.
       11   -1    0    0    0    0 -0.00000000000E+00 -0.00000000000E+00 -0.35740347158E-01  0.35744000000E-01  0.51099999109E-03 0. -1.
       22    1    1    2    0    0  0.51558703237E-02  0.67042134462E-02 -0.25826584712E-01  0.27176128396E-01  0.00000000000E+00 0. -1.
  9000001    1    1    2    0    0 -0.51558703237E-02 -0.67042134462E-02  0.25826584712E-01  0.44311871604E-01  0.35000000149E-01 0.  1.
</event>
<event>
 4   0  0.4334200E-01  0.9118800E+02  0.7818609E-02  0.1379984E+01
      -11   -1    0    0    0    0  0.00000000000E+00  0.00000000000E+00  0.35740347158E-01  0.35744000000E-01  0.51099999109E-03 0.  1.
       11   -1    0    0    0    0 -0.00000000000E+00 -0.00000000000E+00 -0.35740347158E-01  0.35744000000E-01  0.51099999109E-03 0. -1.
       22    1    1    2    0    0  0.56900267304E-02 -0.26569518737E-02  0.26440615673E-01  0.27176128396E-01  0.00000000000E+00 0. -1.
  9000001    1    1    2    0    0 -0.56900267304E-02  0.26569518737E-02 -0.26440615673E-01  0.44311871604E-01  0.35000000149E-01 0. -1.
</event>
<event>
 4   0  0.4334200E-01  0.9118800E+02  0.7818609E-02  0.1379984E+01
      -11   -1    0    0    0    0  0.00000000000E+00  0.00000000000E+00  0.35740347158E-01  0.35744000000E-01  0.51099999109E-03 0. -1.
       11   -1    0    0    0    0 -0.00000000000E+00 -0.00000000000E+00 -0.35740347158E-01  0.35744000000E-01  0.51099999109E-03 0.  1.
       22    1    1    2    0    0 -0.20736927139E-01 -0.16984549924E-01  0.44773732607E-02  0.27176128396E-01  0.00000000000E+00 0. -1.
  9000001    1    1    2    0    0  0.20736927139E-01  0.16984549924E-01 -0.44773732607E-02  0.44311871604E-01  0.35000000149E-01 0.  0.
</event>
<event>
 4   0  0.4334200E-01  0.9118800E+02  0.7818609E-02  0.1379984E+01
      -11   -1    0    0    0    0  0.00000000000E+00  0.00000000000E+00  0.35740347158E-01  0.35744000000E-01  0.51099999109E-03 0.  1.
       11   -1    0    0    0    0 -0.00000000000E+00 -0.00000000000E+00 -0.35740347158E-01  0.35744000000E-01  0.51099999109E-03 0. -1.
       22    1    1    2    0    0  0.81494759418E-02  0.12696048640E-01  0.22603945350E-01  0.27176128396E-01  0.00000000000E+00 0.  1.
  9000001    1    1    2    0    0 -0.81494759418E-02 -0.12696048640E-01 -0.22603945350E-01  0.44311871604E-01  0.35000000149E-01 0. -1.
</event>
<event>
 4   0  0.4334200E-01  0.9118800E+02  0.7818609E-02  0.1379984E+01
      -11   -1    0    0    0    0  0.00000000000E+00  0.00000000000E+00  0.35740347158E-01  0.35744000000E-01  0.51099999109E-03 0.  1.
       11   -1    0    0    0    0 -0.00000000000E+00 -0.00000000000E+00 -0.35740347158E-01  0.35744000000E-01  0.51099999109E-03 0. -1.
       22    1    1    2    0    0 -0.38064126110E-02 -0.55283955610E-03  0.26902556497E-01  0.27176128396E-01  0.00000000000E+00 0.  1.
  9000001    1    1    2    0    0  0.38064126110E-02  0.55283955610E-03 -0.26902556497E-01  0.44311871604E-01  0.35000000149E-01 0. -1.
</event>
<event>
 4   0  0.4334200E-01  0.9118800E+02  0.7818609E-02  0.1379984E+01
      -11   -1    0    0    0    0  0.00000000000E+00  0.00000000000E+00  0.35740347158E-01  0.35744000000E-01  0.51099999109E-03 0. -1.
       11   -1    0    0    0    0 -0.00000000000E+00 -0.00000000000E+00 -0.35740347158E-01  0.35744000000E-01  0.51099999109E-03 0.  1.
       22    1    1    2    0    0 -0.39149828693E-02 -0.14955751286E-02  0.26851035711E-01  0.27176128396E-01  0.00000000000E+00 0. -1.
  9000001    1    1    2    0    0  0.39149828693E-02  0.14955751286E-02 -0.26851035711E-01  0.44311871604E-01  0.35000000149E-01 0.  1.
</event>
<event>
 4   0  0.4334200E-01  0.9118800E+02  0.7818609E-02  0.1379984E+01
      -11   -1    0    0    0    0  0.00000000000E+00  0.00000000000E+00  0.35740347158E-01  0.35744000000E-01  0.51099999109E-03 0. -1.
       11   -1    0    0    0    0 -0.00000000000E+00 -0.00000000000E+00 -0.35740347158E-01  0.35744000000E-01  0.51099999109E-03 0.  1.
       22    1    1    2    0    0  0.10051580692E-01  0.70025273706E-02 -0.24258447820E-01  0.27176128396E-01  0.00000000000E+00 0.  1.
  9000001    1    1    2    0    0 -0.10051580692E-01 -0.70025273706E-02  0.24258447820E-01  0.44311871604E-01  0.35000000149E-01 0. -1.
</event>
<event>
 4   0  0.4334200E-01  0.9118800E+02  0.7818609E-02  0.1379984E+01
      -11   -1    0    0    0    0  0.00000000000E+00  0.00000000000E+00  0.35740347158E-01  0.35744000000E-01  0.51099999109E-03 0. -1.
       11   -1    0    0    0    0 -0.00000000000E+00 -0.00000000000E+00 -0.35740347158E-01  0.35744000000E-01  0.51099999109E-03 0.  1.
       22    1    1    2    0    0 -0.99105814571E-02 -0.35193901248E-02  0.25058655649E-01  0.27176128396E-01  0.00000000000E+00 0. -1.
  9000001    1    1    2    0    0  0.99105814571E-02  0.35193901248E-02 -0.25058655649E-01  0.44311871604E-01  0.35000000149E-01 0.  1.
</event>
<event>
 4   0  0.4334200E-01  0.9118800E+02  0.7818609E-02  0.1379984E+01
      -11   -1    0    0    0    0  0.00000000000E+00  0.00000000000E+00  0.35740347158E-01  0.35744000000E-01  0.51099999109E-03 0. -1.
       11   -1    0    0    0    0 -0.00000000000E+00 -0.00000000000E+00 -0.35740347158E-01  0.35744000000E-01  0.51099999109E-03 0.  1.
       22    1    1    2    0    0 -0.97796870031E-03  0.57054853142E-02  0.26552456933E-01  0.27176128396E-01  0.00000000000E+00 0. -1.
  9000001    1    1    2    0    0  0.97796870031E-03 -0.57054853142E-02 -0.26552456933E-01  0.44311871604E-01  0.35000000149E-01 0.  1.
</event>
<event>
 4   0  0.4334200E-01  0.9118800E+02  0.7818609E-02  0.1379984E+01
      -11   -1    0    0    0    0  0.00000000000E+00  0.00000000000E+00  0.35740347158E-01  0.35744000000E-01  0.51099999109E-03 0.  1.
       11   -1    0    0    0    0 -0.00000000000E+00 -0.00000000000E+00 -0.35740347158E-01  0.35744000000E-01  0.51099999109E-03 0. -1.
       22    1    1    2    0    0 -0.21572235723E-01 -0.14971219031E-02 -0.16460231666E-01  0.27176128396E-01  0.00000000000E+00 0.  1.
  9000001    1    1    2    0    0  0.21572235723E-01  0.14971219031E-02  0.16460231666E-01  0.44311871604E-01  0.35000000149E-01 0.  0.
</event>
<event>
 4   0  0.4334200E-01  0.9118800E+02  0.7818609E-02  0.1379984E+01
      -11   -1    0    0    0    0  0.00000000000E+00  0.00000000000E+00  0.35740347158E-01  0.35744000000E-01  0.51099999109E-03 0.  1.
       11   -1    0    0    0    0 -0.00000000000E+00 -0.00000000000E+00 -0.35740347158E-01  0.35744000000E-01  0.51099999109E-03 0. -1.
       22    1    1    2    0    0 -0.88644582183E-02 -0.16580993942E-02 -0.25636186173E-01  0.27176128396E-01  0.00000000000E+00 0. -1.
  9000001    1    1    2    0    0  0.88644582183E-02  0.16580993942E-02  0.25636186173E-01  0.44311871604E-01  0.35000000149E-01 0.  1.
</event>
<event>
 4   0  0.4334200E-01  0.9118800E+02  0.7818609E-02  0.1379984E+01
      -11   -1    0    0    0    0  0.00000000000E+00  0.00000000000E+00  0.35740347158E-01  0.35744000000E-01  0.51099999109E-03 0.  1.
       11   -1    0    0    0    0 -0.00000000000E+00 -0.00000000000E+00 -0.35740347158E-01  0.35744000000E-01  0.51099999109E-03 0. -1.
       22    1    1    2    0    0 -0.10774708007E-01 -0.37519622802E-02  0.24665165741E-01  0.27176128396E-01  0.00000000000E+00 0.  1.
  9000001    1    1    2    0    0  0.10774708007E-01  0.37519622802E-02 -0.24665165741E-01  0.44311871604E-01  0.35000000149E-01 0. -1.
</event>
<event>
 4   0  0.4334200E-01  0.9118800E+02  0.7818609E-02  0.1379984E+01
      -11   -1    0    0    0    0  0.00000000000E+00  0.00000000000E+00  0.35740347158E-01  0.35744000000E-01  0.51099999109E-03 0.  1.
       11   -1    0    0    0    0 -0.00000000000E+00 -0.00000000000E+00 -0.35740347158E-01  0.35744000000E-01  0.51099999109E-03 0. -1.
       22    1    1    2    0    0 -0.29164623438E-02 -0.75665353219E-02  0.25938075203E-01  0.27176128396E-01  0.00000000000E+00 0.  1.
  9000001    1    1    2    0    0  0.29164623438E-02  0.75665353219E-02 -0.25938075203E-01  0.44311871604E-01  0.35000000149E-01 0. -1.
</event>
<event>
 4   0  0.4334200E-01  0.9118800E+02  0.7818609E-02  0.1379984E+01
      -11   -1    0    0    0    0  0.00000000000E+00  0.00000000000E+00  0.35740347158E-01  0.35744000000E-01  0.51099999109E-03 0. -1.
       11   -1    0    0    0    0 -0.00000000000E+00 -0.00000000000E+00 -0.35740347158E-01  0.35744000000E-01  0.51099999109E-03 0.  1.
       22    1    1    2    0    0 -0.30363569173E-02 -0.13766409085E-02 -0.26970861148E-01  0.27176128396E-01  0.00000000000E+00 0.  1.
  9000001    1    1    2    0    0  0.30363569173E-02  0.13766409085E-02  0.26970861148E-01  0.44311871604E-01  0.35000000149E-01 0. -1.
</event>
<event>
 4   0  0.4334200E-01  0.9118800E+02  0.7818609E-02  0.1379984E+01
      -11   -1    0    0    0    0  0.00000000000E+00  0.00000000000E+00  0.35740347158E-01  0.35744000000E-01  0.51099999109E-03 0. -1.
       11   -1    0    0    0    0 -0.00000000000E+00 -0.00000000000E+00 -0.35740347158E-01  0.35744000000E-01  0.51099999109E-03 0.  1.
       22    1    1    2    0    0 -0.86415191859E-02  0.24344583191E-03  0.25764449051E-01  0.27176128396E-01  0.00000000000E+00 0. -1.
  9000001    1    1    2    0    0  0.86415191859E-02 -0.24344583191E-03 -0.25764449051E-01  0.44311871604E-01  0.35000000149E-01 0.  1.
</event>
<event>
 4   0  0.4334200E-01  0.9118800E+02  0.7818609E-02  0.1379984E+01
      -11   -1    0    0    0    0  0.00000000000E+00  0.00000000000E+00  0.35740347158E-01  0.35744000000E-01  0.51099999109E-03 0.  1.
       11   -1    0    0    0    0 -0.00000000000E+00 -0.00000000000E+00 -0.35740347158E-01  0.35744000000E-01  0.51099999109E-03 0. -1.
       22    1    1    2    0    0 -0.13249619153E-02  0.27071072331E-02  0.27008480167E-01  0.27176128396E-01  0.00000000000E+00 0.  1.
  9000001    1    1    2    0    0  0.13249619153E-02 -0.27071072331E-02 -0.27008480167E-01  0.44311871604E-01  0.35000000149E-01 0. -1.
</event>
<event>
 4   0  0.4334200E-01  0.9118800E+02  0.7818609E-02  0.1379984E+01
      -11   -1    0    0    0    0  0.00000000000E+00  0.00000000000E+00  0.35740347158E-01  0.35744000000E-01  0.51099999109E-03 0. -1.
       11   -1    0    0    0    0 -0.00000000000E+00 -0.00000000000E+00 -0.35740347158E-01  0.35744000000E-01  0.51099999109E-03 0.  1.
       22    1    1    2    0    0 -0.55129055332E-02 -0.11437784188E-01  0.24027628265E-01  0.27176128396E-01  0.00000000000E+00 0. -1.
  9000001    1    1    2    0    0  0.55129055332E-02  0.11437784188E-01 -0.24027628265E-01  0.44311871604E-01  0.35000000149E-01 0.  1.
</event>
<event>
 4   0  0.4334200E-01  0.9118800E+02  0.7818609E-02  0.1379984E+01
      -11   -1    0    0    0    0  0.00000000000E+00  0.00000000000E+00  0.35740347158E-01  0.35744000000E-01  0.51099999109E-03 0. -1.
       11   -1    0    0    0    0 -0.00000000000E+00 -0.00000000000E+00 -0.35740347158E-01  0.35744000000E-01  0.51099999109E-03 0.  1.
       22    1    1    2    0    0 -0.13813474483E-03 -0.56756220903E-02 -0.26576496896E-01  0.27176128396E-01  0.00000000000E+00 0.  1.
  9000001    1    1    2    0    0  0.13813474483E-03  0.56756220903E-02  0.26576496896E-01  0.44311871604E-01  0.35000000149E-01 0. -1.
</event>
<event>
 4   0  0.4334200E-01  0.9118800E+02  0.7818609E-02  0.1379984E+01
      -11   -1    0    0    0    0  0.00000000000E+00  0.00000000000E+00  0.35740347158E-01  0.35744000000E-01  0.51099999109E-03 0. -1.
       11   -1    0    0    0    0 -0.00000000000E+00 -0.00000000000E+00 -0.35740347158E-01  0.35744000000E-01  0.51099999109E-03 0.  1.
       22    1    1    2    0    0  0.88770337656E-02  0.17044826248E-02 -0.25628791722E-01  0.27176128396E-01  0.00000000000E+00 0.  1.
  9000001    1    1    2    0    0 -0.88770337656E-02 -0.17044826248E-02  0.25628791722E-01  0.44311871604E-01  0.35000000149E-01 0. -1.
</event>
<event>
 4   0  0.4334200E-01  0.9118800E+02  0.7818609E-02  0.1379984E+01
      -11   -1    0    0    0    0  0.00000000000E+00  0.00000000000E+00  0.35740347158E-01  0.35744000000E-01  0.51099999109E-03 0.  1.
       11   -1    0    0    0    0 -0.00000000000E+00 -0.00000000000E+00 -0.35740347158E-01  0.35744000000E-01  0.51099999109E-03 0. -1.
       22    1    1    2    0    0  0.43830956148E-02 -0.31465374912E-02  0.26635122099E-01  0.27176128396E-01  0.00000000000E+00 0.  1.
  9000001    1    1    2    0    0 -0.43830956148E-02  0.31465374912E-02 -0.26635122099E-01  0.44311871604E-01  0.35000000149E-01 0. -1.
</event>
<event>
 4   0  0.4334200E-01  0.9118800E+02  0.7818609E-02  0.1379984E+01
      -11   -1    0    0    0    0  0.00000000000E+00  0.00000000000E+00  0.35740347158E-01  0.35744000000E-01  0.51099999109E-03 0.  1.
       11   -1    0    0    0    0 -0.00000000000E+00 -0.00000000000E+00 -0.35740347158E-01  0.35744000000E-01  0.51099999109E-03 0. -1.
       22    1    1    2    0    0 -0.15742377910E-02  0.17439623787E-01  0.20782763342E-01  0.27176128396E-01  0.00000000000E+00 0.  1.
  9000001    1    1    2    0    0  0.15742377910E-02 -0.17439623787E-01 -0.20782763342E-01  0.44311871604E-01  0.35000000149E-01 0. -1.
</event>
<event>
 4   0  0.4334200E-01  0.9118800E+02  0.7818609E-02  0.1379984E+01
      -11   -1    0    0    0    0  0.00000000000E+00  0.00000000000E+00  0.35740347158E-01  0.35744000000E-01  0.51099999109E-03 0.  1.
       11   -1    0    0    0    0 -0.00000000000E+00 -0.00000000000E+00 -0.35740347158E-01  0.35744000000E-01  0.51099999109E-03 0. -1.
       22    1    1    2    0    0  0.71748059486E-03 -0.61684973324E-02  0.26457074987E-01  0.27176128396E-01  0.00000000000E+00 0.  1.
  9000001    1    1    2    0    0 -0.71748059486E-03  0.61684973324E-02 -0.26457074987E-01  0.44311871604E-01  0.35000000149E-01 0. -1.
</event>
<event>
 4   0  0.4334200E-01  0.9118800E+02  0.7818609E-02  0.1379984E+01
      -11   -1    0    0    0    0  0.00000000000E+00  0.00000000000E+00  0.35740347158E-01  0.35744000000E-01  0.51099999109E-03 0. -1.
       11   -1    0    0    0    0 -0.00000000000E+00 -0.00000000000E+00 -0.35740347158E-01  0.35744000000E-01  0.51099999109E-03 0.  1.
       22    1    1    2    0    0 -0.20853021439E-02 -0.64286244653E-02 -0.26322352802E-01  0.27176128396E-01  0.00000000000E+00 0.  1.
  9000001    1    1    2    0    0  0.20853021439E-02  0.64286244653E-02  0.26322352802E-01  0.44311871604E-01  0.35000000149E-01 0. -1.
</event>
<event>
 4   0  0.4334200E-01  0.9118800E+02  0.7818609E-02  0.1379984E+01
      -11   -1    0    0    0    0  0.00000000000E+00  0.00000000000E+00  0.35740347158E-01  0.35744000000E-01  0.51099999109E-03 0.  1.
       11   -1    0    0    0    0 -0.00000000000E+00 -0.00000000000E+00 -0.35740347158E-01  0.35744000000E-01  0.51099999109E-03 0. -1.
       22    1    1    2    0    0 -0.24985177390E-02  0.17498228540E-02  0.27004397488E-01  0.27176128396E-01  0.00000000000E+00 0.  1.
  9000001    1    1    2    0    0  0.24985177390E-02 -0.17498228540E-02 -0.27004397488E-01  0.44311871604E-01  0.35000000149E-01 0. -1.
</event>
<event>
 4   0  0.4334200E-01  0.9118800E+02  0.7818609E-02  0.1379984E+01
      -11   -1    0    0    0    0  0.00000000000E+00  0.00000000000E+00  0.35740347158E-01  0.35744000000E-01  0.51099999109E-03 0. -1.
       11   -1    0    0    0    0 -0.00000000000E+00 -0.00000000000E+00 -0.35740347158E-01  0.35744000000E-01  0.51099999109E-03 0.  1.
       22    1    1    2    0    0  0.60622805990E-02 -0.25388800520E-02 -0.26369391283E-01  0.27176128396E-01  0.00000000000E+00 0.  1.
  9000001    1    1    2    0    0 -0.60622805990E-02  0.25388800520E-02  0.26369391283E-01  0.44311871604E-01  0.35000000149E-01 0. -1.
</event>
<event>
 4   0  0.4334200E-01  0.9118800E+02  0.7818609E-02  0.1379984E+01
      -11   -1    0    0    0    0  0.00000000000E+00  0.00000000000E+00  0.35740347158E-01  0.35744000000E-01  0.51099999109E-03 0. -1.
       11   -1    0    0    0    0 -0.00000000000E+00 -0.00000000000E+00 -0.35740347158E-01  0.35744000000E-01  0.51099999109E-03 0.  1.
       22    1    1    2    0    0  0.14777185067E-01  0.10808864103E-01  0.20083456199E-01  0.27176128396E-01  0.00000000000E+00 0. -1.
  9000001    1    1    2    0    0 -0.14777185067E-01 -0.10808864103E-01 -0.20083456199E-01  0.44311871604E-01  0.35000000149E-01 0.  1.
</event>
<event>
 4   0  0.4334200E-01  0.9118800E+02  0.7818609E-02  0.1379984E+01
      -11   -1    0    0    0    0  0.00000000000E+00  0.00000000000E+00  0.35740347158E-01  0.35744000000E-01  0.51099999109E-03 0. -1.
       11   -1    0    0    0    0 -0.00000000000E+00 -0.00000000000E+00 -0.35740347158E-01  0.35744000000E-01  0.51099999109E-03 0.  1.
       22    1    1    2    0    0  0.11050757717E-02  0.46598253880E-02  0.26750827828E-01  0.27176128396E-01  0.00000000000E+00 0. -1.
  9000001    1    1    2    0    0 -0.11050757717E-02 -0.46598253880E-02 -0.26750827828E-01  0.44311871604E-01  0.35000000149E-01 0.  1.
</event>
<event>
 4   0  0.4334200E-01  0.9118800E+02  0.7818609E-02  0.1379984E+01
      -11   -1    0    0    0    0  0.00000000000E+00  0.00000000000E+00  0.35740347158E-01  0.35744000000E-01  0.51099999109E-03 0.  1.
       11   -1    0    0    0    0 -0.00000000000E+00 -0.00000000000E+00 -0.35740347158E-01  0.35744000000E-01  0.51099999109E-03 0. -1.
       22    1    1    2    0    0 -0.23345114010E-02  0.60910458941E-02  0.26381644586E-01  0.27176128396E-01  0.00000000000E+00 0.  1.
  9000001    1    1    2    0    0  0.23345114010E-02 -0.60910458941E-02 -0.26381644586E-01  0.44311871604E-01  0.35000000149E-01 0. -1.
</event>
<event>
 4   0  0.4334200E-01  0.9118800E+02  0.7818609E-02  0.1379984E+01
      -11   -1    0    0    0    0  0.00000000000E+00  0.00000000000E+00  0.35740347158E-01  0.35744000000E-01  0.51099999109E-03 0.  1.
       11   -1    0    0    0    0 -0.00000000000E+00 -0.00000000000E+00 -0.35740347158E-01  0.35744000000E-01  0.51099999109E-03 0. -1.
       22    1    1    2    0    0  0.90640841031E-02  0.13401783743E-02 -0.25584922433E-01  0.27176128396E-01  0.00000000000E+00 0. -1.
  9000001    1    1    2    0    0 -0.90640841031E-02 -0.13401783743E-02  0.25584922433E-01  0.44311871604E-01  0.35000000149E-01 0.  1.
</event>
<event>
 4   0  0.4334200E-01  0.9118800E+02  0.7818609E-02  0.1379984E+01
      -11   -1    0    0    0    0  0.00000000000E+00  0.00000000000E+00  0.35740347158E-01  0.35744000000E-01  0.51099999109E-03 0.  1.
       11   -1    0    0    0    0 -0.00000000000E+00 -0.00000000000E+00 -0.35740347158E-01  0.35744000000E-01  0.51099999109E-03 0. -1.
       22    1    1    2    0    0 -0.91532221569E-02  0.16782014766E-01  0.19316429772E-01  0.27176128396E-01  0.00000000000E+00 0.  1.
  9000001    1    1    2    0    0  0.91532221569E-02 -0.16782014766E-01 -0.19316429772E-01  0.44311871604E-01  0.35000000149E-01 0. -1.
</event>
<event>
 4   0  0.4334200E-01  0.9118800E+02  0.7818609E-02  0.1379984E+01
      -11   -1    0    0    0    0  0.00000000000E+00  0.00000000000E+00  0.35740347158E-01  0.35744000000E-01  0.51099999109E-03 0. -1.
       11   -1    0    0    0    0 -0.00000000000E+00 -0.00000000000E+00 -0.35740347158E-01  0.35744000000E-01  0.51099999109E-03 0.  1.
       22    1    1    2    0    0  0.37644706492E-02 -0.33412740063E-02  0.26705928244E-01  0.27176128396E-01  0.00000000000E+00 0. -1.
  9000001    1    1    2    0    0 -0.37644706492E-02  0.33412740063E-02 -0.26705928244E-01  0.44311871604E-01  0.35000000149E-01 0.  1.
</event>
<event>
 4   0  0.4334200E-01  0.9118800E+02  0.7818609E-02  0.1379984E+01
      -11   -1    0    0    0    0  0.00000000000E+00  0.00000000000E+00  0.35740347158E-01  0.35744000000E-01  0.51099999109E-03 0. -1.
       11   -1    0    0    0    0 -0.00000000000E+00 -0.00000000000E+00 -0.35740347158E-01  0.35744000000E-01  0.51099999109E-03 0.  1.
       22    1    1    2    0    0  0.27541696258E-02  0.13291471244E-02 -0.27003515923E-01  0.27176128396E-01  0.00000000000E+00 0.  1.
  9000001    1    1    2    0    0 -0.27541696258E-02 -0.13291471244E-02  0.27003515923E-01  0.44311871604E-01  0.35000000149E-01 0. -1.
</event>
<event>
 4   0  0.4334200E-01  0.9118800E+02  0.7818609E-02  0.1379984E+01
      -11   -1    0    0    0    0  0.00000000000E+00  0.00000000000E+00  0.35740347158E-01  0.35744000000E-01  0.51099999109E-03 0.  1.
       11   -1    0    0    0    0 -0.00000000000E+00 -0.00000000000E+00 -0.35740347158E-01  0.35744000000E-01  0.51099999109E-03 0. -1.
       22    1    1    2    0    0 -0.25780788711E-01  0.84228683470E-02  0.17170255804E-02  0.27176128396E-01  0.00000000000E+00 0. -1.
  9000001    1    1    2    0    0  0.25780788711E-01 -0.84228683470E-02 -0.17170255804E-02  0.44311871604E-01  0.35000000149E-01 0.  1.
</event>
<event>
 4   0  0.4334200E-01  0.9118800E+02  0.7818609E-02  0.1379984E+01
      -11   -1    0    0    0    0  0.00000000000E+00  0.00000000000E+00  0.35740347158E-01  0.35744000000E-01  0.51099999109E-03 0.  1.
       11   -1    0    0    0    0 -0.00000000000E+00 -0.00000000000E+00 -0.35740347158E-01  0.35744000000E-01  0.51099999109E-03 0. -1.
       22    1    1    2    0    0 -0.30729139888E-02  0.10325675300E-02  0.26982085882E-01  0.27176128396E-01  0.00000000000E+00 0.  1.
  9000001    1    1    2    0    0  0.30729139888E-02 -0.10325675300E-02 -0.26982085882E-01  0.44311871604E-01  0.35000000149E-01 0. -1.
</event>
<event>
 4   0  0.4334200E-01  0.9118800E+02  0.7818609E-02  0.1379984E+01
      -11   -1    0    0    0    0  0.00000000000E+00  0.00000000000E+00  0.35740347158E-01  0.35744000000E-01  0.51099999109E-03 0.  1.
       11   -1    0    0    0    0 -0.00000000000E+00 -0.00000000000E+00 -0.35740347158E-01  0.35744000000E-01  0.51099999109E-03 0. -1.
       22    1    1    2    0    0 -0.89918894395E-02  0.16520918214E-01 -0.19614972350E-01  0.27176128396E-01  0.00000000000E+00 0. -1.
  9000001    1    1    2    0    0  0.89918894395E-02 -0.16520918214E-01  0.19614972350E-01  0.44311871604E-01  0.35000000149E-01 0.  1.
</event>
<event>
 4   0  0.4334200E-01  0.9118800E+02  0.7818609E-02  0.1379984E+01
      -11   -1    0    0    0    0  0.00000000000E+00  0.00000000000E+00  0.35740347158E-01  0.35744000000E-01  0.51099999109E-03 0.  1.
       11   -1    0    0    0    0 -0.00000000000E+00 -0.00000000000E+00 -0.35740347158E-01  0.35744000000E-01  0.51099999109E-03 0. -1.
       22    1    1    2    0    0 -0.22587286519E-02  0.37774289418E-02 -0.26817366203E-01  0.27176128396E-01  0.00000000000E+00 0. -1.
  9000001    1    1    2    0    0  0.22587286519E-02 -0.37774289418E-02  0.26817366203E-01  0.44311871604E-01  0.35000000149E-01 0.  1.
</event>
<event>
 4   0  0.4334200E-01  0.9118800E+02  0.7818609E-02  0.1379984E+01
      -11   -1    0    0    0    0  0.00000000000E+00  0.00000000000E+00  0.35740347158E-01  0.35744000000E-01  0.51099999109E-03 0.  1.
       11   -1    0    0    0    0 -0.00000000000E+00 -0.00000000000E+00 -0.35740347158E-01  0.35744000000E-01  0.51099999109E-03 0. -1.
       22    1    1    2    0    0 -0.44257347152E-02 -0.55843351808E-03  0.26807517208E-01  0.27176128396E-01  0.00000000000E+00 0.  1.
  9000001    1    1    2    0    0  0.44257347152E-02  0.55843351808E-03 -0.26807517208E-01  0.44311871604E-01  0.35000000149E-01 0. -1.
</event>
<event>
 4   0  0.4334200E-01  0.9118800E+02  0.7818609E-02  0.1379984E+01
      -11   -1    0    0    0    0  0.00000000000E+00  0.00000000000E+00  0.35740347158E-01  0.35744000000E-01  0.51099999109E-03 0.  1.
       11   -1    0    0    0    0 -0.00000000000E+00 -0.00000000000E+00 -0.35740347158E-01  0.35744000000E-01  0.51099999109E-03 0. -1.
       22    1    1    2    0    0  0.12111963030E-01  0.21942435230E-02 -0.24228652491E-01  0.27176128396E-01  0.00000000000E+00 0. -1.
  9000001    1    1    2    0    0 -0.12111963030E-01 -0.21942435230E-02  0.24228652491E-01  0.44311871604E-01  0.35000000149E-01 0.  1.
</event>
<event>
 4   0  0.4334200E-01  0.9118800E+02  0.7818609E-02  0.1379984E+01
      -11   -1    0    0    0    0  0.00000000000E+00  0.00000000000E+00  0.35740347158E-01  0.35744000000E-01  0.51099999109E-03 0.  1.
       11   -1    0    0    0    0 -0.00000000000E+00 -0.00000000000E+00 -0.35740347158E-01  0.35744000000E-01  0.51099999109E-03 0. -1.
       22    1    1    2    0    0 -0.62014693372E-03 -0.41975200673E-02 -0.26842842578E-01  0.27176128396E-01  0.00000000000E+00 0. -1.
  9000001    1    1    2    0    0  0.62014693372E-03  0.41975200673E-02  0.26842842578E-01  0.44311871604E-01  0.35000000149E-01 0.  1.
</event>
<event>
 4   0  0.4334200E-01  0.9118800E+02  0.7818609E-02  0.1379984E+01
      -11   -1    0    0    0    0  0.00000000000E+00  0.00000000000E+00  0.35740347158E-01  0.35744000000E-01  0.51099999109E-03 0.  1.
       11   -1    0    0    0    0 -0.00000000000E+00 -0.00000000000E+00 -0.35740347158E-01  0.35744000000E-01  0.51099999109E-03 0. -1.
       22    1    1    2    0    0  0.15902863413E-01  0.49482582947E-02 -0.21474534447E-01  0.27176128396E-01  0.00000000000E+00 0. -1.
  9000001    1    1    2    0    0 -0.15902863413E-01 -0.49482582947E-02  0.21474534447E-01  0.44311871604E-01  0.35000000149E-01 0.  1.
</event>
<event>
 4   0  0.4334200E-01  0.9118800E+02  0.7818609E-02  0.1379984E+01
      -11   -1    0    0    0    0  0.00000000000E+00  0.00000000000E+00  0.35740347158E-01  0.35744000000E-01  0.51099999109E-03 0.  1.
       11   -1    0    0    0    0 -0.00000000000E+00 -0.00000000000E+00 -0.35740347158E-01  0.35744000000E-01  0.51099999109E-03 0. -1.
       22    1    1    2    0    0  0.83115515006E-02  0.17152811863E-02  0.25817007509E-01  0.27176128396E-01  0.00000000000E+00 0.  1.
  9000001    1    1    2    0    0 -0.83115515006E-02 -0.17152811863E-02 -0.25817007509E-01  0.44311871604E-01  0.35000000149E-01 0. -1.
</event>
<event>
 4   0  0.4334200E-01  0.9118800E+02  0.7818609E-02  0.1379984E+01
      -11   -1    0    0    0    0  0.00000000000E+00  0.00000000000E+00  0.35740347158E-01  0.35744000000E-01  0.51099999109E-03 0. -1.
       11   -1    0    0    0    0 -0.00000000000E+00 -0.00000000000E+00 -0.35740347158E-01  0.35744000000E-01  0.51099999109E-03 0.  1.
       22    1    1    2    0    0  0.18493428031E-01  0.12963939177E-01  0.15115268945E-01  0.27176128396E-01  0.00000000000E+00 0. -1.
  9000001    1    1    2    0    0 -0.18493428031E-01 -0.12963939177E-01 -0.15115268945E-01  0.44311871604E-01  0.35000000149E-01 0.  0.
</event>
<event>
 4   0  0.4334200E-01  0.9118800E+02  0.7818609E-02  0.1379984E+01
      -11   -1    0    0    0    0  0.00000000000E+00  0.00000000000E+00  0.35740347158E-01  0.35744000000E-01  0.51099999109E-03 0. -1.
       11   -1    0    0    0    0 -0.00000000000E+00 -0.00000000000E+00 -0.35740347158E-01  0.35744000000E-01  0.51099999109E-03 0.  1.
       22    1    1    2    0    0 -0.21537489885E-02  0.91103163617E-02 -0.25512848835E-01  0.27176128396E-01  0.00000000000E+00 0.  1.
  9000001    1    1    2    0    0  0.21537489885E-02 -0.91103163617E-02  0.25512848835E-01  0.44311871604E-01  0.35000000149E-01 0. -1.
</event>
<event>
 4   0  0.4334200E-01  0.9118800E+02  0.7818609E-02  0.1379984E+01
      -11   -1    0    0    0    0  0.00000000000E+00  0.00000000000E+00  0.35740347158E-01  0.35744000000E-01  0.51099999109E-03 0. -1.
       11   -1    0    0    0    0 -0.00000000000E+00 -0.00000000000E+00 -0.35740347158E-01  0.35744000000E-01  0.51099999109E-03 0.  1.
       22    1    1    2    0    0  0.41798973398E-02  0.11605740077E-01 -0.24215226823E-01  0.27176128396E-01  0.00000000000E+00 0.  1.
  9000001    1    1    2    0    0 -0.41798973398E-02 -0.11605740077E-01  0.24215226823E-01  0.44311871604E-01  0.35000000149E-01 0. -1.
</event>
<event>
 4   0  0.4334200E-01  0.9118800E+02  0.7818609E-02  0.1379984E+01
      -11   -1    0    0    0    0  0.00000000000E+00  0.00000000000E+00  0.35740347158E-01  0.35744000000E-01  0.51099999109E-03 0.  1.
       11   -1    0    0    0    0 -0.00000000000E+00 -0.00000000000E+00 -0.35740347158E-01  0.35744000000E-01  0.51099999109E-03 0. -1.
       22    1    1    2    0    0 -0.79415133552E-02 -0.94530727080E-03  0.25972691705E-01  0.27176128396E-01  0.00000000000E+00 0.  1.
  9000001    1    1    2    0    0  0.79415133552E-02  0.94530727080E-03 -0.25972691705E-01  0.44311871604E-01  0.35000000149E-01 0. -1.
</event>
<event>
 4   0  0.4334200E-01  0.9118800E+02  0.7818609E-02  0.1379984E+01
      -11   -1    0    0    0    0  0.00000000000E+00  0.00000000000E+00  0.35740347158E-01  0.35744000000E-01  0.51099999109E-03 0.  1.
       11   -1    0    0    0    0 -0.00000000000E+00 -0.00000000000E+00 -0.35740347158E-01  0.35744000000E-01  0.51099999109E-03 0. -1.
       22    1    1    2    0    0  0.69502002373E-02 -0.49625885028E-02  0.25799406711E-01  0.27176128396E-01  0.00000000000E+00 0.  1.
  9000001    1    1    2    0    0 -0.69502002373E-02  0.49625885028E-02 -0.25799406711E-01  0.44311871604E-01  0.35000000149E-01 0. -1.
</event>
<event>
 4   0  0.4334200E-01  0.9118800E+02  0.7818609E-02  0.1379984E+01
      -11   -1    0    0    0    0  0.00000000000E+00  0.00000000000E+00  0.35740347158E-01  0.35744000000E-01  0.51099999109E-03 0.  1.
       11   -1    0    0    0    0 -0.00000000000E+00 -0.00000000000E+00 -0.35740347158E-01  0.35744000000E-01  0.51099999109E-03 0.  1.
       22    1    1    2    0    0  0.25290302160E-01  0.61427813051E-02  0.78236058872E-02  0.27176128396E-01  0.00000000000E+00 0.  1.
  9000001    1    1    2    0    0 -0.25290302160E-01 -0.61427813051E-02 -0.78236058872E-02  0.44311871604E-01  0.35000000149E-01 0.  1.
</event>
<event>
 4   0  0.4334200E-01  0.9118800E+02  0.7818609E-02  0.1379984E+01
      -11   -1    0    0    0    0  0.00000000000E+00  0.00000000000E+00  0.35740347158E-01  0.35744000000E-01  0.51099999109E-03 0. -1.
       11   -1    0    0    0    0 -0.00000000000E+00 -0.00000000000E+00 -0.35740347158E-01  0.35744000000E-01  0.51099999109E-03 0.  1.
       22    1    1    2    0    0 -0.19405549282E-02  0.25638482078E-02 -0.26985234547E-01  0.27176128396E-01  0.00000000000E+00 0.  1.
  9000001    1    1    2    0    0  0.19405549282E-02 -0.25638482078E-02  0.26985234547E-01  0.44311871604E-01  0.35000000149E-01 0. -1.
</event>
<event>
 4   0  0.4334200E-01  0.9118800E+02  0.7818609E-02  0.1379984E+01
      -11   -1    0    0    0    0  0.00000000000E+00  0.00000000000E+00  0.35740347158E-01  0.35744000000E-01  0.51099999109E-03 0. -1.
       11   -1    0    0    0    0 -0.00000000000E+00 -0.00000000000E+00 -0.35740347158E-01  0.35744000000E-01  0.51099999109E-03 0.  1.
       22    1    1    2    0    0  0.83393088050E-02 -0.21459532381E-01  0.14439056521E-01  0.27176128396E-01  0.00000000000E+00 0.  1.
  9000001    1    1    2    0    0 -0.83393088050E-02  0.21459532381E-01 -0.14439056521E-01  0.44311871604E-01  0.35000000149E-01 0. -1.
</event>
<event>
 4   0  0.4334200E-01  0.9118800E+02  0.7818609E-02  0.1379984E+01
      -11   -1    0    0    0    0  0.00000000000E+00  0.00000000000E+00  0.35740347158E-01  0.35744000000E-01  0.51099999109E-03 0.  1.
       11   -1    0    0    0    0 -0.00000000000E+00 -0.00000000000E+00 -0.35740347158E-01  0.35744000000E-01  0.51099999109E-03 0. -1.
       22    1    1    2    0    0  0.38051346681E-02  0.10743173927E-01  0.24670774587E-01  0.27176128396E-01  0.00000000000E+00 0.  1.
  9000001    1    1    2    0    0 -0.38051346681E-02 -0.10743173927E-01 -0.24670774587E-01  0.44311871604E-01  0.35000000149E-01 0. -1.
</event>
<event>
 4   0  0.4334200E-01  0.9118800E+02  0.7818609E-02  0.1379984E+01
      -11   -1    0    0    0    0  0.00000000000E+00  0.00000000000E+00  0.35740347158E-01  0.35744000000E-01  0.51099999109E-03 0. -1.
       11   -1    0    0    0    0 -0.00000000000E+00 -0.00000000000E+00 -0.35740347158E-01  0.35744000000E-01  0.51099999109E-03 0.  1.
       22    1    1    2    0    0 -0.36065345706E-02 -0.25596501805E-02  0.26813859363E-01  0.27176128396E-01  0.00000000000E+00 0. -1.
  9000001    1    1    2    0    0  0.36065345706E-02  0.25596501805E-02 -0.26813859363E-01  0.44311871604E-01  0.35000000149E-01 0.  1.
</event>
<event>
 4   0  0.4334200E-01  0.9118800E+02  0.7818609E-02  0.1379984E+01
      -11   -1    0    0    0    0  0.00000000000E+00  0.00000000000E+00  0.35740347158E-01  0.35744000000E-01  0.51099999109E-03 0. -1.
       11   -1    0    0    0    0 -0.00000000000E+00 -0.00000000000E+00 -0.35740347158E-01  0.35744000000E-01  0.51099999109E-03 0.  1.
       22    1    1    2    0    0  0.68666115170E-02 -0.43607063867E-02 -0.25930210965E-01  0.27176128396E-01  0.00000000000E+00 0.  1.
  9000001    1    1    2    0    0 -0.68666115170E-02  0.43607063867E-02  0.25930210965E-01  0.44311871604E-01  0.35000000149E-01 0. -1.
</event>
<event>
 4   0  0.4334200E-01  0.9118800E+02  0.7818609E-02  0.1379984E+01
      -11   -1    0    0    0    0  0.00000000000E+00  0.00000000000E+00  0.35740347158E-01  0.35744000000E-01  0.51099999109E-03 0.  1.
       11   -1    0    0    0    0 -0.00000000000E+00 -0.00000000000E+00 -0.35740347158E-01  0.35744000000E-01  0.51099999109E-03 0. -1.
       22    1    1    2    0    0 -0.13153075409E-01  0.95945251313E-02 -0.21759679442E-01  0.27176128396E-01  0.00000000000E+00 0. -1.
  9000001    1    1    2    0    0  0.13153075409E-01 -0.95945251313E-02  0.21759679442E-01  0.44311871604E-01  0.35000000149E-01 0.  1.
</event>
<event>
 4   0  0.4334200E-01  0.9118800E+02  0.7818609E-02  0.1379984E+01
      -11   -1    0    0    0    0  0.00000000000E+00  0.00000000000E+00  0.35740347158E-01  0.35744000000E-01  0.51099999109E-03 0.  1.
       11   -1    0    0    0    0 -0.00000000000E+00 -0.00000000000E+00 -0.35740347158E-01  0.35744000000E-01  0.51099999109E-03 0. -1.
       22    1    1    2    0    0  0.11207408918E-02  0.10668062501E-01  0.24969548192E-01  0.27176128396E-01  0.00000000000E+00 0.  1.
  9000001    1    1    2    0    0 -0.11207408918E-02 -0.10668062501E-01 -0.24969548192E-01  0.44311871604E-01  0.35000000149E-01 0. -1.
</event>
<event>
 4   0  0.4334200E-01  0.9118800E+02  0.7818609E-02  0.1379984E+01
      -11   -1    0    0    0    0  0.00000000000E+00  0.00000000000E+00  0.35740347158E-01  0.35744000000E-01  0.51099999109E-03 0. -1.
       11   -1    0    0    0    0 -0.00000000000E+00 -0.00000000000E+00 -0.35740347158E-01  0.35744000000E-01  0.51099999109E-03 0.  1.
       22    1    1    2    0    0 -0.11234155545E-01 -0.19356515246E-01 -0.15416258344E-01  0.27176128396E-01  0.00000000000E+00 0.  1.
  9000001    1    1    2    0    0  0.11234155545E-01  0.19356515246E-01  0.15416258344E-01  0.44311871604E-01  0.35000000149E-01 0.  0.
</event>
<event>
 4   0  0.4334200E-01  0.9118800E+02  0.7818609E-02  0.1379984E+01
      -11   -1    0    0    0    0  0.00000000000E+00  0.00000000000E+00  0.35740347158E-01  0.35744000000E-01  0.51099999109E-03 0. -1.
       11   -1    0    0    0    0 -0.00000000000E+00 -0.00000000000E+00 -0.35740347158E-01  0.35744000000E-01  0.51099999109E-03 0.  1.
       22    1    1    2    0    0 -0.53149987221E-02 -0.44064320439E-02 -0.26284522058E-01  0.27176128396E-01  0.00000000000E+00 0.  1.
  9000001    1    1    2    0    0  0.53149987221E-02  0.44064320439E-02  0.26284522058E-01  0.44311871604E-01  0.35000000149E-01 0. -1.
</event>
<event>
 4   0  0.4334200E-01  0.9118800E+02  0.7818609E-02  0.1379984E+01
      -11   -1    0    0    0    0  0.00000000000E+00  0.00000000000E+00  0.35740347158E-01  0.35744000000E-01  0.51099999109E-03 0.  1.
       11   -1    0    0    0    0 -0.00000000000E+00 -0.00000000000E+00 -0.35740347158E-01  0.35744000000E-01  0.51099999109E-03 0. -1.
       22    1    1    2    0    0  0.44460363105E-02 -0.39659172131E-02 -0.26515018695E-01  0.27176128396E-01  0.00000000000E+00 0. -1.
  9000001    1    1    2    0    0 -0.44460363105E-02  0.39659172131E-02  0.26515018695E-01  0.44311871604E-01  0.35000000149E-01 0.  1.
</event>
<event>
 4   0  0.4334200E-01  0.9118800E+02  0.7818609E-02  0.1379984E+01
      -11   -1    0    0    0    0  0.00000000000E+00  0.00000000000E+00  0.35740347158E-01  0.35744000000E-01  0.51099999109E-03 0. -1.
       11   -1    0    0    0    0 -0.00000000000E+00 -0.00000000000E+00 -0.35740347158E-01  0.35744000000E-01  0.51099999109E-03 0.  1.
       22    1    1    2    0    0  0.22361558457E-02  0.26896809310E-01  0.31785547969E-02  0.27176128396E-01  0.00000000000E+00 0. -1.
  9000001    1    1    2    0    0 -0.22361558457E-02 -0.26896809310E-01 -0.31785547969E-02  0.44311871604E-01  0.35000000149E-01 0.  1.
</event>
<event>
 4   0  0.4334200E-01  0.9118800E+02  0.7818609E-02  0.1379984E+01
      -11   -1    0    0    0    0  0.00000000000E+00  0.00000000000E+00  0.35740347158E-01  0.35744000000E-01  0.51099999109E-03 0.  1.
       11   -1    0    0    0    0 -0.00000000000E+00 -0.00000000000E+00 -0.35740347158E-01  0.35744000000E-01  0.51099999109E-03 0. -1.
       22    1    1    2    0    0 -0.19143767711E-01  0.74422184572E-02 -0.17795266136E-01  0.27176128396E-01  0.00000000000E+00 0. -1.
  9000001    1    1    2    0    0  0.19143767711E-01 -0.74422184572E-02  0.17795266136E-01  0.44311871604E-01  0.35000000149E-01 0.  1.
</event>
<event>
 4   0  0.4334200E-01  0.9118800E+02  0.7818609E-02  0.1379984E+01
      -11   -1    0    0    0    0  0.00000000000E+00  0.00000000000E+00  0.35740347158E-01  0.35744000000E-01  0.51099999109E-03 0. -1.
       11   -1    0    0    0    0 -0.00000000000E+00 -0.00000000000E+00 -0.35740347158E-01  0.35744000000E-01  0.51099999109E-03 0.  1.
       22    1    1    2    0    0  0.87951709683E-02  0.25469903538E-01  0.35314212453E-02  0.27176128396E-01  0.00000000000E+00 0. -1.
  9000001    1    1    2    0    0 -0.87951709683E-02 -0.25469903538E-01 -0.35314212453E-02  0.44311871604E-01  0.35000000149E-01 0.  0.
</event>
<event>
 4   0  0.4334200E-01  0.9118800E+02  0.7818609E-02  0.1379984E+01
      -11   -1    0    0    0    0  0.00000000000E+00  0.00000000000E+00  0.35740347158E-01  0.35744000000E-01  0.51099999109E-03 0.  1.
       11   -1    0    0    0    0 -0.00000000000E+00 -0.00000000000E+00 -0.35740347158E-01  0.35744000000E-01  0.51099999109E-03 0. -1.
       22    1    1    2    0    0  0.12337035058E-01 -0.86251644337E-02 -0.22626225029E-01  0.27176128396E-01  0.00000000000E+00 0. -1.
  9000001    1    1    2    0    0 -0.12337035058E-01  0.86251644337E-02  0.22626225029E-01  0.44311871604E-01  0.35000000149E-01 0.  1.
</event>
<event>
 4   0  0.4334200E-01  0.9118800E+02  0.7818609E-02  0.1379984E+01
      -11   -1    0    0    0    0  0.00000000000E+00  0.00000000000E+00  0.35740347158E-01  0.35744000000E-01  0.51099999109E-03 0. -1.
       11   -1    0    0    0    0 -0.00000000000E+00 -0.00000000000E+00 -0.35740347158E-01  0.35744000000E-01  0.51099999109E-03 0.  1.
       22    1    1    2    0    0 -0.10086667960E-02  0.13234954843E-01 -0.23714141693E-01  0.27176128396E-01  0.00000000000E+00 0.  1.
  9000001    1    1    2    0    0  0.10086667960E-02 -0.13234954843E-01  0.23714141693E-01  0.44311871604E-01  0.35000000149E-01 0. -1.
</event>
<event>
 4   0  0.4334200E-01  0.9118800E+02  0.7818609E-02  0.1379984E+01
      -11   -1    0    0    0    0  0.00000000000E+00  0.00000000000E+00  0.35740347158E-01  0.35744000000E-01  0.51099999109E-03 0. -1.
       11   -1    0    0    0    0 -0.00000000000E+00 -0.00000000000E+00 -0.35740347158E-01  0.35744000000E-01  0.51099999109E-03 0.  1.
       22    1    1    2    0    0 -0.22102403719E-02 -0.11516694102E-01 -0.24515761238E-01  0.27176128396E-01  0.00000000000E+00 0.  1.
  9000001    1    1    2    0    0  0.22102403719E-02  0.11516694102E-01  0.24515761238E-01  0.44311871604E-01  0.35000000149E-01 0. -1.
</event>
<event>
 4   0  0.4334200E-01  0.9118800E+02  0.7818609E-02  0.1379984E+01
      -11   -1    0    0    0    0  0.00000000000E+00  0.00000000000E+00  0.35740347158E-01  0.35744000000E-01  0.51099999109E-03 0.  1.
       11   -1    0    0    0    0 -0.00000000000E+00 -0.00000000000E+00 -0.35740347158E-01  0.35744000000E-01  0.51099999109E-03 0. -1.
       22    1    1    2    0    0  0.95972774388E-02 -0.10543452199E-01 -0.23135899293E-01  0.27176128396E-01  0.00000000000E+00 0. -1.
  9000001    1    1    2    0    0 -0.95972774388E-02  0.10543452199E-01  0.23135899293E-01  0.44311871604E-01  0.35000000149E-01 0.  1.
</event>
<event>
 4   0  0.4334200E-01  0.9118800E+02  0.7818609E-02  0.1379984E+01
      -11   -1    0    0    0    0  0.00000000000E+00  0.00000000000E+00  0.35740347158E-01  0.35744000000E-01  0.51099999109E-03 0. -1.
       11   -1    0    0    0    0 -0.00000000000E+00 -0.00000000000E+00 -0.35740347158E-01  0.35744000000E-01  0.51099999109E-03 0.  1.
       22    1    1    2    0    0  0.27918270935E-02  0.19101378467E-01  0.19128120575E-01  0.27176128396E-01  0.00000000000E+00 0.  1.
  9000001    1    1    2    0    0 -0.27918270935E-02 -0.19101378467E-01 -0.19128120575E-01  0.44311871604E-01  0.35000000149E-01 0.  0.
</event>
<event>
 4   0  0.4334200E-01  0.9118800E+02  0.7818609E-02  0.1379984E+01
      -11   -1    0    0    0    0  0.00000000000E+00  0.00000000000E+00  0.35740347158E-01  0.35744000000E-01  0.51099999109E-03 0.  1.
       11   -1    0    0    0    0 -0.00000000000E+00 -0.00000000000E+00 -0.35740347158E-01  0.35744000000E-01  0.51099999109E-03 0. -1.
       22    1    1    2    0    0  0.18208295717E-01 -0.25604751911E-02 -0.20011094135E-01  0.27176128396E-01  0.00000000000E+00 0. -1.
  9000001    1    1    2    0    0 -0.18208295717E-01  0.25604751911E-02  0.20011094135E-01  0.44311871604E-01  0.35000000149E-01 0.  0.
</event>
<event>
 4   0  0.4334200E-01  0.9118800E+02  0.7818609E-02  0.1379984E+01
      -11   -1    0    0    0    0  0.00000000000E+00  0.00000000000E+00  0.35740347158E-01  0.35744000000E-01  0.51099999109E-03 0. -1.
       11   -1    0    0    0    0 -0.00000000000E+00 -0.00000000000E+00 -0.35740347158E-01  0.35744000000E-01  0.51099999109E-03 0.  1.
       22    1    1    2    0    0  0.49731786509E-03 -0.35015300038E-02  0.26945016556E-01  0.27176128396E-01  0.00000000000E+00 0. -1.
  9000001    1    1    2    0    0 -0.49731786509E-03  0.35015300038E-02 -0.26945016556E-01  0.44311871604E-01  0.35000000149E-01 0.  0.
</event>
<event>
 4   0  0.4334200E-01  0.9118800E+02  0.7818609E-02  0.1379984E+01
      -11   -1    0    0    0    0  0.00000000000E+00  0.00000000000E+00  0.35740347158E-01  0.35744000000E-01  0.51099999109E-03 0. -1.
       11   -1    0    0    0    0 -0.00000000000E+00 -0.00000000000E+00 -0.35740347158E-01  0.35744000000E-01  0.51099999109E-03 0.  1.
       22    1    1    2    0    0  0.12309170244E-02 -0.36818808821E-02 -0.26897407887E-01  0.27176128396E-01  0.00000000000E+00 0.  1.
  9000001    1    1    2    0    0 -0.12309170244E-02  0.36818808821E-02  0.26897407887E-01  0.44311871604E-01  0.35000000149E-01 0. -1.
</event>
<event>
 4   0  0.4334200E-01  0.9118800E+02  0.7818609E-02  0.1379984E+01
      -11   -1    0    0    0    0  0.00000000000E+00  0.00000000000E+00  0.35740347158E-01  0.35744000000E-01  0.51099999109E-03 0.  1.
       11   -1    0    0    0    0 -0.00000000000E+00 -0.00000000000E+00 -0.35740347158E-01  0.35744000000E-01  0.51099999109E-03 0. -1.
       22    1    1    2    0    0 -0.26006156175E-01 -0.39936947497E-02 -0.68023670778E-02  0.27176128396E-01  0.00000000000E+00 0. -1.
  9000001    1    1    2    0    0  0.26006156175E-01  0.39936947497E-02  0.68023670778E-02  0.44311871604E-01  0.35000000149E-01 0.  1.
</event>
<event>
 4   0  0.4334200E-01  0.9118800E+02  0.7818609E-02  0.1379984E+01
      -11   -1    0    0    0    0  0.00000000000E+00  0.00000000000E+00  0.35740347158E-01  0.35744000000E-01  0.51099999109E-03 0. -1.
       11   -1    0    0    0    0 -0.00000000000E+00 -0.00000000000E+00 -0.35740347158E-01  0.35744000000E-01  0.51099999109E-03 0.  1.
       22    1    1    2    0    0  0.43925840398E-02 -0.21817525617E-01  0.15596241086E-01  0.27176128396E-01  0.00000000000E+00 0. -1.
  9000001    1    1    2    0    0 -0.43925840398E-02  0.21817525617E-01 -0.15596241086E-01  0.44311871604E-01  0.35000000149E-01 0.  1.
</event>
<event>
 4   0  0.4334200E-01  0.9118800E+02  0.7818609E-02  0.1379984E+01
      -11   -1    0    0    0    0  0.00000000000E+00  0.00000000000E+00  0.35740347158E-01  0.35744000000E-01  0.51099999109E-03 0.  1.
       11   -1    0    0    0    0 -0.00000000000E+00 -0.00000000000E+00 -0.35740347158E-01  0.35744000000E-01  0.51099999109E-03 0. -1.
       22    1    1    2    0    0 -0.25985742184E-02  0.58577252576E-02 -0.26409778898E-01  0.27176128396E-01  0.00000000000E+00 0. -1.
  9000001    1    1    2    0    0  0.25985742184E-02 -0.58577252576E-02  0.26409778898E-01  0.44311871604E-01  0.35000000149E-01 0.  1.
</event>
<event>
 4   0  0.4334200E-01  0.9118800E+02  0.7818609E-02  0.1379984E+01
      -11   -1    0    0    0    0  0.00000000000E+00  0.00000000000E+00  0.35740347158E-01  0.35744000000E-01  0.51099999109E-03 0.  1.
       11   -1    0    0    0    0 -0.00000000000E+00 -0.00000000000E+00 -0.35740347158E-01  0.35744000000E-01  0.51099999109E-03 0. -1.
       22    1    1    2    0    0  0.66509913247E-02 -0.26103270188E-01  0.35952127217E-02  0.27176128396E-01  0.00000000000E+00 0.  1.
  9000001    1    1    2    0    0 -0.66509913247E-02  0.26103270188E-01 -0.35952127217E-02  0.44311871604E-01  0.35000000149E-01 0. -1.
</event>
<event>
 4   0  0.4334200E-01  0.9118800E+02  0.7818609E-02  0.1379984E+01
      -11   -1    0    0    0    0  0.00000000000E+00  0.00000000000E+00  0.35740347158E-01  0.35744000000E-01  0.51099999109E-03 0.  1.
       11   -1    0    0    0    0 -0.00000000000E+00 -0.00000000000E+00 -0.35740347158E-01  0.35744000000E-01  0.51099999109E-03 0. -1.
       22    1    1    2    0    0  0.26201638705E-01 -0.21345276144E-02 -0.68891128348E-02  0.27176128396E-01  0.00000000000E+00 0. -1.
  9000001    1    1    2    0    0 -0.26201638705E-01  0.21345276144E-02  0.68891128348E-02  0.44311871604E-01  0.35000000149E-01 0.  1.
</event>
<event>
 4   0  0.4334200E-01  0.9118800E+02  0.7818609E-02  0.1379984E+01
      -11   -1    0    0    0    0  0.00000000000E+00  0.00000000000E+00  0.35740347158E-01  0.35744000000E-01  0.51099999109E-03 0.  1.
       11   -1    0    0    0    0 -0.00000000000E+00 -0.00000000000E+00 -0.35740347158E-01  0.35744000000E-01  0.51099999109E-03 0. -1.
       22    1    1    2    0    0  0.12135785527E-01 -0.32615791013E-02  0.24096198165E-01  0.27176128396E-01  0.00000000000E+00 0.  1.
  9000001    1    1    2    0    0 -0.12135785527E-01  0.32615791013E-02 -0.24096198165E-01  0.44311871604E-01  0.35000000149E-01 0. -1.
</event>
<event>
 4   0  0.4334200E-01  0.9118800E+02  0.7818609E-02  0.1379984E+01
      -11   -1    0    0    0    0  0.00000000000E+00  0.00000000000E+00  0.35740347158E-01  0.35744000000E-01  0.51099999109E-03 0.  1.
       11   -1    0    0    0    0 -0.00000000000E+00 -0.00000000000E+00 -0.35740347158E-01  0.35744000000E-01  0.51099999109E-03 0. -1.
       22    1    1    2    0    0  0.14374053810E-01 -0.13245347289E-01  0.18880924418E-01  0.27176128396E-01  0.00000000000E+00 0. -1.
  9000001    1    1    2    0    0 -0.14374053810E-01  0.13245347289E-01 -0.18880924418E-01  0.44311871604E-01  0.35000000149E-01 0.  1.
</event>
<event>
 4   0  0.4334200E-01  0.9118800E+02  0.7818609E-02  0.1379984E+01
      -11   -1    0    0    0    0  0.00000000000E+00  0.00000000000E+00  0.35740347158E-01  0.35744000000E-01  0.51099999109E-03 0. -1.
       11   -1    0    0    0    0 -0.00000000000E+00 -0.00000000000E+00 -0.35740347158E-01  0.35744000000E-01  0.51099999109E-03 0.  1.
       22    1    1    2    0    0  0.44848654474E-02 -0.45935569730E-02  0.26406953078E-01  0.27176128396E-01  0.00000000000E+00 0. -1.
  9000001    1    1    2    0    0 -0.44848654474E-02  0.45935569730E-02 -0.26406953078E-01  0.44311871604E-01  0.35000000149E-01 0.  1.
</event>
<event>
 4   0  0.4334200E-01  0.9118800E+02  0.7818609E-02  0.1379984E+01
      -11   -1    0    0    0    0  0.00000000000E+00  0.00000000000E+00  0.35740347158E-01  0.35744000000E-01  0.51099999109E-03 0.  1.
       11   -1    0    0    0    0 -0.00000000000E+00 -0.00000000000E+00 -0.35740347158E-01  0.35744000000E-01  0.51099999109E-03 0. -1.
       22    1    1    2    0    0 -0.23956990154E-02  0.39050728016E-02 -0.26787179531E-01  0.27176128396E-01  0.00000000000E+00 0. -1.
  9000001    1    1    2    0    0  0.23956990154E-02 -0.39050728016E-02  0.26787179531E-01  0.44311871604E-01  0.35000000149E-01 0.  1.
</event>
<event>
 4   0  0.4334200E-01  0.9118800E+02  0.7818609E-02  0.1379984E+01
      -11   -1    0    0    0    0  0.00000000000E+00  0.00000000000E+00  0.35740347158E-01  0.35744000000E-01  0.51099999109E-03 0.  1.
       11   -1    0    0    0    0 -0.00000000000E+00 -0.00000000000E+00 -0.35740347158E-01  0.35744000000E-01  0.51099999109E-03 0. -1.
       22    1    1    2    0    0  0.51213757315E-02  0.12439584079E-01  0.23612924706E-01  0.27176128396E-01  0.00000000000E+00 0. -1.
  9000001    1    1    2    0    0 -0.51213757315E-02 -0.12439584079E-01 -0.23612924706E-01  0.44311871604E-01  0.35000000149E-01 0.  0.
</event>
<event>
 4   0  0.4334200E-01  0.9118800E+02  0.7818609E-02  0.1379984E+01
      -11   -1    0    0    0    0  0.00000000000E+00  0.00000000000E+00  0.35740347158E-01  0.35744000000E-01  0.51099999109E-03 0. -1.
       11   -1    0    0    0    0 -0.00000000000E+00 -0.00000000000E+00 -0.35740347158E-01  0.35744000000E-01  0.51099999109E-03 0.  1.
       22    1    1    2    0    0  0.14001075665E-01 -0.22605225581E-01 -0.56138766694E-02  0.27176128396E-01  0.00000000000E+00 0. -1.
  9000001    1    1    2    0    0 -0.14001075665E-01  0.22605225581E-01  0.56138766694E-02  0.44311871604E-01  0.35000000149E-01 0.  1.
</event>
<event>
 4   0  0.4334200E-01  0.9118800E+02  0.7818609E-02  0.1379984E+01
      -11   -1    0    0    0    0  0.00000000000E+00  0.00000000000E+00  0.35740347158E-01  0.35744000000E-01  0.51099999109E-03 0.  1.
       11   -1    0    0    0    0 -0.00000000000E+00 -0.00000000000E+00 -0.35740347158E-01  0.35744000000E-01  0.51099999109E-03 0. -1.
       22    1    1    2    0    0 -0.10160718772E-01  0.22702424909E-01  0.10949961274E-01  0.27176128396E-01  0.00000000000E+00 0.  1.
  9000001    1    1    2    0    0  0.10160718772E-01 -0.22702424909E-01 -0.10949961274E-01  0.44311871604E-01  0.35000000149E-01 0. -1.
</event>
<event>
 4   0  0.4334200E-01  0.9118800E+02  0.7818609E-02  0.1379984E+01
      -11   -1    0    0    0    0  0.00000000000E+00  0.00000000000E+00  0.35740347158E-01  0.35744000000E-01  0.51099999109E-03 0.  1.
       11   -1    0    0    0    0 -0.00000000000E+00 -0.00000000000E+00 -0.35740347158E-01  0.35744000000E-01  0.51099999109E-03 0. -1.
       22    1    1    2    0    0 -0.21976988715E-01 -0.11579302571E-01 -0.11021509588E-01  0.27176128396E-01  0.00000000000E+00 0. -1.
  9000001    1    1    2    0    0  0.21976988715E-01  0.11579302571E-01  0.11021509588E-01  0.44311871604E-01  0.35000000149E-01 0.  1.
</event>
<event>
 4   0  0.4334200E-01  0.9118800E+02  0.7818609E-02  0.1379984E+01
      -11   -1    0    0    0    0  0.00000000000E+00  0.00000000000E+00  0.35740347158E-01  0.35744000000E-01  0.51099999109E-03 0. -1.
       11   -1    0    0    0    0 -0.00000000000E+00 -0.00000000000E+00 -0.35740347158E-01  0.35744000000E-01  0.51099999109E-03 0.  1.
       22    1    1    2    0    0  0.78172663797E-02  0.18724532901E-01  0.18078278916E-01  0.27176128396E-01  0.00000000000E+00 0. -1.
  9000001    1    1    2    0    0 -0.78172663797E-02 -0.18724532901E-01 -0.18078278916E-01  0.44311871604E-01  0.35000000149E-01 0.  1.
</event>
<event>
 4   0  0.4334200E-01  0.9118800E+02  0.7818609E-02  0.1379984E+01
      -11   -1    0    0    0    0  0.00000000000E+00  0.00000000000E+00  0.35740347158E-01  0.35744000000E-01  0.51099999109E-03 0.  1.
       11   -1    0    0    0    0 -0.00000000000E+00 -0.00000000000E+00 -0.35740347158E-01  0.35744000000E-01  0.51099999109E-03 0. -1.
       22    1    1    2    0    0 -0.15392535179E-01 -0.86927697555E-02  0.20640919780E-01  0.27176128396E-01  0.00000000000E+00 0.  1.
  9000001    1    1    2    0    0  0.15392535179E-01  0.86927697555E-02 -0.20640919780E-01  0.44311871604E-01  0.35000000149E-01 0. -1.
</event>
<event>
 4   0  0.4334200E-01  0.9118800E+02  0.7818609E-02  0.1379984E+01
      -11   -1    0    0    0    0  0.00000000000E+00  0.00000000000E+00  0.35740347158E-01  0.35744000000E-01  0.51099999109E-03 0.  1.
       11   -1    0    0    0    0 -0.00000000000E+00 -0.00000000000E+00 -0.35740347158E-01  0.35744000000E-01  0.51099999109E-03 0. -1.
       22    1    1    2    0    0 -0.25075472970E-01  0.68207843030E-02  0.79523274228E-02  0.27176128396E-01  0.00000000000E+00 0.  1.
  9000001    1    1    2    0    0  0.25075472970E-01 -0.68207843030E-02 -0.79523274228E-02  0.44311871604E-01  0.35000000149E-01 0. -1.
</event>
<event>
 4   0  0.4334200E-01  0.9118800E+02  0.7818609E-02  0.1379984E+01
      -11   -1    0    0    0    0  0.00000000000E+00  0.00000000000E+00  0.35740347158E-01  0.35744000000E-01  0.51099999109E-03 0.  1.
       11   -1    0    0    0    0 -0.00000000000E+00 -0.00000000000E+00 -0.35740347158E-01  0.35744000000E-01  0.51099999109E-03 0. -1.
       22    1    1    2    0    0 -0.31952577827E-02 -0.45926689103E-03 -0.26983723913E-01  0.27176128396E-01  0.00000000000E+00 0. -1.
  9000001    1    1    2    0    0  0.31952577827E-02  0.45926689103E-03  0.26983723913E-01  0.44311871604E-01  0.35000000149E-01 0.  1.
</event>
<event>
 4   0  0.4334200E-01  0.9118800E+02  0.7818609E-02  0.1379984E+01
      -11   -1    0    0    0    0  0.00000000000E+00  0.00000000000E+00  0.35740347158E-01  0.35744000000E-01  0.51099999109E-03 0.  1.
       11   -1    0    0    0    0 -0.00000000000E+00 -0.00000000000E+00 -0.35740347158E-01  0.35744000000E-01  0.51099999109E-03 0. -1.
       22    1    1    2    0    0  0.15704429769E-01 -0.13651632459E-01  0.17479867604E-01  0.27176128396E-01  0.00000000000E+00 0.  1.
  9000001    1    1    2    0    0 -0.15704429769E-01  0.13651632459E-01 -0.17479867604E-01  0.44311871604E-01  0.35000000149E-01 0. -1.
</event>
<event>
 4   0  0.4334200E-01  0.9118800E+02  0.7818609E-02  0.1379984E+01
      -11   -1    0    0    0    0  0.00000000000E+00  0.00000000000E+00  0.35740347158E-01  0.35744000000E-01  0.51099999109E-03 0. -1.
       11   -1    0    0    0    0 -0.00000000000E+00 -0.00000000000E+00 -0.35740347158E-01  0.35744000000E-01  0.51099999109E-03 0.  1.
       22    1    1    2    0    0  0.19085396225E-01  0.68390890916E-05  0.19346564521E-01  0.27176128396E-01  0.00000000000E+00 0. -1.
  9000001    1    1    2    0    0 -0.19085396225E-01 -0.68390890916E-05 -0.19346564521E-01  0.44311871604E-01  0.35000000149E-01 0.  1.
</event>
<event>
 4   0  0.4334200E-01  0.9118800E+02  0.7818609E-02  0.1379984E+01
      -11   -1    0    0    0    0  0.00000000000E+00  0.00000000000E+00  0.35740347158E-01  0.35744000000E-01  0.51099999109E-03 0.  1.
       11   -1    0    0    0    0 -0.00000000000E+00 -0.00000000000E+00 -0.35740347158E-01  0.35744000000E-01  0.51099999109E-03 0. -1.
       22    1    1    2    0    0 -0.28980132801E-02  0.37473914824E-02  0.26760054759E-01  0.27176128396E-01  0.00000000000E+00 0.  1.
  9000001    1    1    2    0    0  0.28980132801E-02 -0.37473914824E-02 -0.26760054759E-01  0.44311871604E-01  0.35000000149E-01 0. -1.
</event>
<event>
 4   0  0.4334200E-01  0.9118800E+02  0.7818609E-02  0.1379984E+01
      -11   -1    0    0    0    0  0.00000000000E+00  0.00000000000E+00  0.35740347158E-01  0.35744000000E-01  0.51099999109E-03 0. -1.
       11   -1    0    0    0    0 -0.00000000000E+00 -0.00000000000E+00 -0.35740347158E-01  0.35744000000E-01  0.51099999109E-03 0.  1.
       22    1    1    2    0    0  0.99094764076E-02  0.20412620553E-01  0.14955572677E-01  0.27176128396E-01  0.00000000000E+00 0. -1.
  9000001    1    1    2    0    0 -0.99094764076E-02 -0.20412620553E-01 -0.14955572677E-01  0.44311871604E-01  0.35000000149E-01 0.  1.
</event>
<event>
 4   0  0.4334200E-01  0.9118800E+02  0.7818609E-02  0.1379984E+01
      -11   -1    0    0    0    0  0.00000000000E+00  0.00000000000E+00  0.35740347158E-01  0.35744000000E-01  0.51099999109E-03 0. -1.
       11   -1    0    0    0    0 -0.00000000000E+00 -0.00000000000E+00 -0.35740347158E-01  0.35744000000E-01  0.51099999109E-03 0.  1.
       22    1    1    2    0    0  0.88068188470E-02  0.13433829673E-01 -0.21920632215E-01  0.27176128396E-01  0.00000000000E+00 0.  1.
  9000001    1    1    2    0    0 -0.88068188470E-02 -0.13433829673E-01  0.21920632215E-01  0.44311871604E-01  0.35000000149E-01 0. -1.
</event>
<event>
 4   0  0.4334200E-01  0.9118800E+02  0.7818609E-02  0.1379984E+01
      -11   -1    0    0    0    0  0.00000000000E+00  0.00000000000E+00  0.35740347158E-01  0.35744000000E-01  0.51099999109E-03 0. -1.
       11   -1    0    0    0    0 -0.00000000000E+00 -0.00000000000E+00 -0.35740347158E-01  0.35744000000E-01  0.51099999109E-03 0.  1.
       22    1    1    2    0    0  0.11678452927E-01 -0.11282368303E-01 -0.21791371167E-01  0.27176128396E-01  0.00000000000E+00 0.  1.
  9000001    1    1    2    0    0 -0.11678452927E-01  0.11282368303E-01  0.21791371167E-01  0.44311871604E-01  0.35000000149E-01 0.  0.
</event>
<event>
 4   0  0.4334200E-01  0.9118800E+02  0.7818609E-02  0.1379984E+01
      -11   -1    0    0    0    0  0.00000000000E+00  0.00000000000E+00  0.35740347158E-01  0.35744000000E-01  0.51099999109E-03 0.  1.
       11   -1    0    0    0    0 -0.00000000000E+00 -0.00000000000E+00 -0.35740347158E-01  0.35744000000E-01  0.51099999109E-03 0. -1.
       22    1    1    2    0    0  0.31969576102E-02  0.13617964269E-02 -0.26953050424E-01  0.27176128396E-01  0.00000000000E+00 0. -1.
  9000001    1    1    2    0    0 -0.31969576102E-02 -0.13617964269E-02  0.26953050424E-01  0.44311871604E-01  0.35000000149E-01 0.  1.
</event>
<event>
 4   0  0.4334200E-01  0.9118800E+02  0.7818609E-02  0.1379984E+01
      -11   -1    0    0    0    0  0.00000000000E+00  0.00000000000E+00  0.35740347158E-01  0.35744000000E-01  0.51099999109E-03 0. -1.
       11   -1    0    0    0    0 -0.00000000000E+00 -0.00000000000E+00 -0.35740347158E-01  0.35744000000E-01  0.51099999109E-03 0.  1.
       22    1    1    2    0    0  0.15961142516E-02  0.33649772396E-02 -0.26919719576E-01  0.27176128396E-01  0.00000000000E+00 0.  1.
  9000001    1    1    2    0    0 -0.15961142516E-02 -0.33649772396E-02  0.26919719576E-01  0.44311871604E-01  0.35000000149E-01 0. -1.
</event>
<event>
 4   0  0.4334200E-01  0.9118800E+02  0.7818609E-02  0.1379984E+01
      -11   -1    0    0    0    0  0.00000000000E+00  0.00000000000E+00  0.35740347158E-01  0.35744000000E-01  0.51099999109E-03 0. -1.
       11   -1    0    0    0    0 -0.00000000000E+00 -0.00000000000E+00 -0.35740347158E-01  0.35744000000E-01  0.51099999109E-03 0.  1.
       22    1    1    2    0    0  0.31930967547E-02  0.56597683364E-04  0.26987828450E-01  0.27176128396E-01  0.00000000000E+00 0. -1.
  9000001    1    1    2    0    0 -0.31930967547E-02 -0.56597683364E-04 -0.26987828450E-01  0.44311871604E-01  0.35000000149E-01 0.  1.
</event>
<event>
 4   0  0.4334200E-01  0.9118800E+02  0.7818609E-02  0.1379984E+01
      -11   -1    0    0    0    0  0.00000000000E+00  0.00000000000E+00  0.35740347158E-01  0.35744000000E-01  0.51099999109E-03 0. -1.
       11   -1    0    0    0    0 -0.00000000000E+00 -0.00000000000E+00 -0.35740347158E-01  0.35744000000E-01  0.51099999109E-03 0.  1.
       22    1    1    2    0    0  0.16177748772E-02  0.45337198735E-02 -0.26746404303E-01  0.27176128396E-01  0.00000000000E+00 0.  1.
  9000001    1    1    2    0    0 -0.16177748772E-02 -0.45337198735E-02  0.26746404303E-01  0.44311871604E-01  0.35000000149E-01 0. -1.
</event>
<event>
 4   0  0.4334200E-01  0.9118800E+02  0.7818609E-02  0.1379984E+01
      -11   -1    0    0    0    0  0.00000000000E+00  0.00000000000E+00  0.35740347158E-01  0.35744000000E-01  0.51099999109E-03 0.  1.
       11   -1    0    0    0    0 -0.00000000000E+00 -0.00000000000E+00 -0.35740347158E-01  0.35744000000E-01  0.51099999109E-03 0. -1.
       22    1    1    2    0    0  0.86685306321E-02 -0.84086532498E-03 -0.25742794658E-01  0.27176128396E-01  0.00000000000E+00 0. -1.
  9000001    1    1    2    0    0 -0.86685306321E-02  0.84086532498E-03  0.25742794658E-01  0.44311871604E-01  0.35000000149E-01 0.  1.
</event>
<event>
 4   0  0.4334200E-01  0.9118800E+02  0.7818609E-02  0.1379984E+01
      -11   -1    0    0    0    0  0.00000000000E+00  0.00000000000E+00  0.35740347158E-01  0.35744000000E-01  0.51099999109E-03 0. -1.
       11   -1    0    0    0    0 -0.00000000000E+00 -0.00000000000E+00 -0.35740347158E-01  0.35744000000E-01  0.51099999109E-03 0.  1.
       22    1    1    2    0    0  0.22587115878E-02  0.25829245317E-01  0.81418832525E-02  0.27176128396E-01  0.00000000000E+00 0. -1.
  9000001    1    1    2    0    0 -0.22587115878E-02 -0.25829245317E-01 -0.81418832525E-02  0.44311871604E-01  0.35000000149E-01 0.  1.
</event>
<event>
 4   0  0.4334200E-01  0.9118800E+02  0.7818609E-02  0.1379984E+01
      -11   -1    0    0    0    0  0.00000000000E+00  0.00000000000E+00  0.35740347158E-01  0.35744000000E-01  0.51099999109E-03 0.  1.
       11   -1    0    0    0    0 -0.00000000000E+00 -0.00000000000E+00 -0.35740347158E-01  0.35744000000E-01  0.51099999109E-03 0. -1.
       22    1    1    2    0    0  0.22817822844E-02  0.71916568675E-02 -0.26107766961E-01  0.27176128396E-01  0.00000000000E+00 0. -1.
  9000001    1    1    2    0    0 -0.22817822844E-02 -0.71916568675E-02  0.26107766961E-01  0.44311871604E-01  0.35000000149E-01 0.  1.
</event>
<event>
 4   0  0.4334200E-01  0.9118800E+02  0.7818609E-02  0.1379984E+01
      -11   -1    0    0    0    0  0.00000000000E+00  0.00000000000E+00  0.35740347158E-01  0.35744000000E-01  0.51099999109E-03 0.  1.
       11   -1    0    0    0    0 -0.00000000000E+00 -0.00000000000E+00 -0.35740347158E-01  0.35744000000E-01  0.51099999109E-03 0. -1.
       22    1    1    2    0    0 -0.75038446003E-02 -0.23795521732E-01  0.10770673904E-01  0.27176128396E-01  0.00000000000E+00 0. -1.
  9000001    1    1    2    0    0  0.75038446003E-02  0.23795521732E-01 -0.10770673904E-01  0.44311871604E-01  0.35000000149E-01 0. -1.
</event>
<event>
 4   0  0.4334200E-01  0.9118800E+02  0.7818609E-02  0.1379984E+01
      -11   -1    0    0    0    0  0.00000000000E+00  0.00000000000E+00  0.35740347158E-01  0.35744000000E-01  0.51099999109E-03 0. -1.
       11   -1    0    0    0    0 -0.00000000000E+00 -0.00000000000E+00 -0.35740347158E-01  0.35744000000E-01  0.51099999109E-03 0.  1.
       22    1    1    2    0    0 -0.20840663283E-01 -0.17438177302E-01 -0.34450092638E-03  0.27176128396E-01  0.00000000000E+00 0. -1.
  9000001    1    1    2    0    0  0.20840663283E-01  0.17438177302E-01  0.34450092638E-03  0.44311871604E-01  0.35000000149E-01 0.  1.
</event>
<event>
 4   0  0.4334200E-01  0.9118800E+02  0.7818609E-02  0.1379984E+01
      -11   -1    0    0    0    0  0.00000000000E+00  0.00000000000E+00  0.35740347158E-01  0.35744000000E-01  0.51099999109E-03 0. -1.
       11   -1    0    0    0    0 -0.00000000000E+00 -0.00000000000E+00 -0.35740347158E-01  0.35744000000E-01  0.51099999109E-03 0.  1.
       22    1    1    2    0    0  0.86483570143E-02  0.38446790569E-02 -0.25474817340E-01  0.27176128396E-01  0.00000000000E+00 0.  1.
  9000001    1    1    2    0    0 -0.86483570143E-02 -0.38446790569E-02  0.25474817340E-01  0.44311871604E-01  0.35000000149E-01 0. -1.
</event>
<event>
 4   0  0.4334200E-01  0.9118800E+02  0.7818609E-02  0.1379984E+01
      -11   -1    0    0    0    0  0.00000000000E+00  0.00000000000E+00  0.35740347158E-01  0.35744000000E-01  0.51099999109E-03 0. -1.
       11   -1    0    0    0    0 -0.00000000000E+00 -0.00000000000E+00 -0.35740347158E-01  0.35744000000E-01  0.51099999109E-03 0.  1.
       22    1    1    2    0    0  0.95143438248E-02  0.15412161077E-03 -0.25455755002E-01  0.27176128396E-01  0.00000000000E+00 0.  1.
  9000001    1    1    2    0    0 -0.95143438248E-02 -0.15412161077E-03  0.25455755002E-01  0.44311871604E-01  0.35000000149E-01 0. -1.
</event>
<event>
 4   0  0.4334200E-01  0.9118800E+02  0.7818609E-02  0.1379984E+01
      -11   -1    0    0    0    0  0.00000000000E+00  0.00000000000E+00  0.35740347158E-01  0.35744000000E-01  0.51099999109E-03 0. -1.
       11   -1    0    0    0    0 -0.00000000000E+00 -0.00000000000E+00 -0.35740347158E-01  0.35744000000E-01  0.51099999109E-03 0.  1.
       22    1    1    2    0    0  0.57064542039E-02  0.17439030623E-01 -0.20046409802E-01  0.27176128396E-01  0.00000000000E+00 0.  1.
  9000001    1    1    2    0    0 -0.57064542039E-02 -0.17439030623E-01  0.20046409802E-01  0.44311871604E-01  0.35000000149E-01 0. -1.
</event>
<event>
 4   0  0.4334200E-01  0.9118800E+02  0.7818609E-02  0.1379984E+01
      -11   -1    0    0    0    0  0.00000000000E+00  0.00000000000E+00  0.35740347158E-01  0.35744000000E-01  0.51099999109E-03 0. -1.
       11   -1    0    0    0    0 -0.00000000000E+00 -0.00000000000E+00 -0.35740347158E-01  0.35744000000E-01  0.51099999109E-03 0.  1.
       22    1    1    2    0    0 -0.16543941476E-02 -0.74357763993E-02 -0.26086666402E-01  0.27176128396E-01  0.00000000000E+00 0.  1.
  9000001    1    1    2    0    0  0.16543941476E-02  0.74357763993E-02  0.26086666402E-01  0.44311871604E-01  0.35000000149E-01 0. -1.
</event>
<event>
 4   0  0.4334200E-01  0.9118800E+02  0.7818609E-02  0.1379984E+01
      -11   -1    0    0    0    0  0.00000000000E+00  0.00000000000E+00  0.35740347158E-01  0.35744000000E-01  0.51099999109E-03 0. -1.
       11   -1    0    0    0    0 -0.00000000000E+00 -0.00000000000E+00 -0.35740347158E-01  0.35744000000E-01  0.51099999109E-03 0.  1.
       22    1    1    2    0    0 -0.92216970300E-02  0.17731994128E-01 -0.18414088159E-01  0.27176128396E-01  0.00000000000E+00 0. -1.
  9000001    1    1    2    0    0  0.92216970300E-02 -0.17731994128E-01  0.18414088159E-01  0.44311871604E-01  0.35000000149E-01 0.  1.
</event>
<event>
 4   0  0.4334200E-01  0.9118800E+02  0.7818609E-02  0.1379984E+01
      -11   -1    0    0    0    0  0.00000000000E+00  0.00000000000E+00  0.35740347158E-01  0.35744000000E-01  0.51099999109E-03 0. -1.
       11   -1    0    0    0    0 -0.00000000000E+00 -0.00000000000E+00 -0.35740347158E-01  0.35744000000E-01  0.51099999109E-03 0.  1.
       22    1    1    2    0    0  0.27114443343E-01  0.12360898771E-02  0.13494438239E-02  0.27176128396E-01  0.00000000000E+00 0. -1.
  9000001    1    1    2    0    0 -0.27114443343E-01 -0.12360898771E-02 -0.13494438239E-02  0.44311871604E-01  0.35000000149E-01 0.  0.
</event>
<event>
 4   0  0.4334200E-01  0.9118800E+02  0.7818609E-02  0.1379984E+01
      -11   -1    0    0    0    0  0.00000000000E+00  0.00000000000E+00  0.35740347158E-01  0.35744000000E-01  0.51099999109E-03 0. -1.
       11   -1    0    0    0    0 -0.00000000000E+00 -0.00000000000E+00 -0.35740347158E-01  0.35744000000E-01  0.51099999109E-03 0.  1.
       22    1    1    2    0    0 -0.12964481148E-01 -0.21335676504E-01  0.10735599250E-01  0.27176128396E-01  0.00000000000E+00 0. -1.
  9000001    1    1    2    0    0  0.12964481148E-01  0.21335676504E-01 -0.10735599250E-01  0.44311871604E-01  0.35000000149E-01 0.  1.
</event>
<event>
 4   0  0.4334200E-01  0.9118800E+02  0.7818609E-02  0.1379984E+01
      -11   -1    0    0    0    0  0.00000000000E+00  0.00000000000E+00  0.35740347158E-01  0.35744000000E-01  0.51099999109E-03 0. -1.
       11   -1    0    0    0    0 -0.00000000000E+00 -0.00000000000E+00 -0.35740347158E-01  0.35744000000E-01  0.51099999109E-03 0.  1.
       22    1    1    2    0    0  0.12904713122E-01  0.17064455879E-01 -0.16757526052E-01  0.27176128396E-01  0.00000000000E+00 0.  1.
  9000001    1    1    2    0    0 -0.12904713122E-01 -0.17064455879E-01  0.16757526052E-01  0.44311871604E-01  0.35000000149E-01 0. -1.
</event>
<event>
 4   0  0.4334200E-01  0.9118800E+02  0.7818609E-02  0.1379984E+01
      -11   -1    0    0    0    0  0.00000000000E+00  0.00000000000E+00  0.35740347158E-01  0.35744000000E-01  0.51099999109E-03 0. -1.
       11   -1    0    0    0    0 -0.00000000000E+00 -0.00000000000E+00 -0.35740347158E-01  0.35744000000E-01  0.51099999109E-03 0.  1.
       22    1    1    2    0    0 -0.53783597964E-02  0.11753208196E-02 -0.26612662803E-01  0.27176128396E-01  0.00000000000E+00 0.  1.
  9000001    1    1    2    0    0  0.53783597964E-02 -0.11753208196E-02  0.26612662803E-01  0.44311871604E-01  0.35000000149E-01 0. -1.
</event>
<event>
 4   0  0.4334200E-01  0.9118800E+02  0.7818609E-02  0.1379984E+01
      -11   -1    0    0    0    0  0.00000000000E+00  0.00000000000E+00  0.35740347158E-01  0.35744000000E-01  0.51099999109E-03 0. -1.
       11   -1    0    0    0    0 -0.00000000000E+00 -0.00000000000E+00 -0.35740347158E-01  0.35744000000E-01  0.51099999109E-03 0.  1.
       22    1    1    2    0    0 -0.14453277201E-01 -0.59762445551E-03  0.23006250841E-01  0.27176128396E-01  0.00000000000E+00 0. -1.
  9000001    1    1    2    0    0  0.14453277201E-01  0.59762445551E-03 -0.23006250841E-01  0.44311871604E-01  0.35000000149E-01 0.  1.
</event>
<event>
 4   0  0.4334200E-01  0.9118800E+02  0.7818609E-02  0.1379984E+01
      -11   -1    0    0    0    0  0.00000000000E+00  0.00000000000E+00  0.35740347158E-01  0.35744000000E-01  0.51099999109E-03 0.  1.
       11   -1    0    0    0    0 -0.00000000000E+00 -0.00000000000E+00 -0.35740347158E-01  0.35744000000E-01  0.51099999109E-03 0. -1.
       22    1    1    2    0    0  0.64126055768E-02 -0.29010127307E-02 -0.26248896538E-01  0.27176128396E-01  0.00000000000E+00 0. -1.
  9000001    1    1    2    0    0 -0.64126055768E-02  0.29010127307E-02  0.26248896538E-01  0.44311871604E-01  0.35000000149E-01 0.  1.
</event>
<event>
 4   0  0.4334200E-01  0.9118800E+02  0.7818609E-02  0.1379984E+01
      -11   -1    0    0    0    0  0.00000000000E+00  0.00000000000E+00  0.35740347158E-01  0.35744000000E-01  0.51099999109E-03 0.  1.
       11   -1    0    0    0    0 -0.00000000000E+00 -0.00000000000E+00 -0.35740347158E-01  0.35744000000E-01  0.51099999109E-03 0. -1.
       22    1    1    2    0    0 -0.44883228491E-02 -0.17878999914E-01  0.19968431953E-01  0.27176128396E-01  0.00000000000E+00 0.  1.
  9000001    1    1    2    0    0  0.44883228491E-02  0.17878999914E-01 -0.19968431953E-01  0.44311871604E-01  0.35000000149E-01 0. -1.
</event>
<event>
 4   0  0.4334200E-01  0.9118800E+02  0.7818609E-02  0.1379984E+01
      -11   -1    0    0    0    0  0.00000000000E+00  0.00000000000E+00  0.35740347158E-01  0.35744000000E-01  0.51099999109E-03 0. -1.
       11   -1    0    0    0    0 -0.00000000000E+00 -0.00000000000E+00 -0.35740347158E-01  0.35744000000E-01  0.51099999109E-03 0.  1.
       22    1    1    2    0    0  0.16805182911E-02  0.44119482555E-02 -0.26762894564E-01  0.27176128396E-01  0.00000000000E+00 0.  1.
  9000001    1    1    2    0    0 -0.16805182911E-02 -0.44119482555E-02  0.26762894564E-01  0.44311871604E-01  0.35000000149E-01 0. -1.
</event>
<event>
 4   0  0.4334200E-01  0.9118800E+02  0.7818609E-02  0.1379984E+01
      -11   -1    0    0    0    0  0.00000000000E+00  0.00000000000E+00  0.35740347158E-01  0.35744000000E-01  0.51099999109E-03 0.  1.
       11   -1    0    0    0    0 -0.00000000000E+00 -0.00000000000E+00 -0.35740347158E-01  0.35744000000E-01  0.51099999109E-03 0. -1.
       22    1    1    2    0    0  0.28333371819E-02 -0.77460907733E-02  0.25894250959E-01  0.27176128396E-01  0.00000000000E+00 0. -1.
  9000001    1    1    2    0    0 -0.28333371819E-02  0.77460907733E-02 -0.25894250959E-01  0.44311871604E-01  0.35000000149E-01 0.  0.
</event>
<event>
 4   0  0.4334200E-01  0.9118800E+02  0.7818609E-02  0.1379984E+01
      -11   -1    0    0    0    0  0.00000000000E+00  0.00000000000E+00  0.35740347158E-01  0.35744000000E-01  0.51099999109E-03 0.  1.
       11   -1    0    0    0    0 -0.00000000000E+00 -0.00000000000E+00 -0.35740347158E-01  0.35744000000E-01  0.51099999109E-03 0. -1.
       22    1    1    2    0    0 -0.24261660400E-02 -0.32407171279E-02  0.26872912485E-01  0.27176128396E-01  0.00000000000E+00 0.  1.
  9000001    1    1    2    0    0  0.24261660400E-02  0.32407171279E-02 -0.26872912485E-01  0.44311871604E-01  0.35000000149E-01 0. -1.
</event>
<event>
 4   0  0.4334200E-01  0.9118800E+02  0.7818609E-02  0.1379984E+01
      -11   -1    0    0    0    0  0.00000000000E+00  0.00000000000E+00  0.35740347158E-01  0.35744000000E-01  0.51099999109E-03 0. -1.
       11   -1    0    0    0    0 -0.00000000000E+00 -0.00000000000E+00 -0.35740347158E-01  0.35744000000E-01  0.51099999109E-03 0.  1.
       22    1    1    2    0    0 -0.14199472270E-01  0.18535760518E-01  0.13904766229E-01  0.27176128396E-01  0.00000000000E+00 0. -1.
  9000001    1    1    2    0    0  0.14199472270E-01 -0.18535760518E-01 -0.13904766229E-01  0.44311871604E-01  0.35000000149E-01 0.  1.
</event>
<event>
 4   0  0.4334200E-01  0.9118800E+02  0.7818609E-02  0.1379984E+01
      -11   -1    0    0    0    0  0.00000000000E+00  0.00000000000E+00  0.35740347158E-01  0.35744000000E-01  0.51099999109E-03 0.  1.
       11   -1    0    0    0    0 -0.00000000000E+00 -0.00000000000E+00 -0.35740347158E-01  0.35744000000E-01  0.51099999109E-03 0. -1.
       22    1    1    2    0    0 -0.16347256699E-01  0.17913551608E-01  0.12264331283E-01  0.27176128396E-01  0.00000000000E+00 0. -1.
  9000001    1    1    2    0    0  0.16347256699E-01 -0.17913551608E-01 -0.12264331283E-01  0.44311871604E-01  0.35000000149E-01 0.  1.
</event>
<event>
 4   0  0.4334200E-01  0.9118800E+02  0.7818609E-02  0.1379984E+01
      -11   -1    0    0    0    0  0.00000000000E+00  0.00000000000E+00  0.35740347158E-01  0.35744000000E-01  0.51099999109E-03 0. -1.
       11   -1    0    0    0    0 -0.00000000000E+00 -0.00000000000E+00 -0.35740347158E-01  0.35744000000E-01  0.51099999109E-03 0.  1.
       22    1    1    2    0    0 -0.39668452740E-02  0.33042839052E-03  0.26883022714E-01  0.27176128396E-01  0.00000000000E+00 0.  1.
  9000001    1    1    2    0    0  0.39668452740E-02 -0.33042839052E-03 -0.26883022714E-01  0.44311871604E-01  0.35000000149E-01 0.  1.
</event>
<event>
 4   0  0.4334200E-01  0.9118800E+02  0.7818609E-02  0.1379984E+01
      -11   -1    0    0    0    0  0.00000000000E+00  0.00000000000E+00  0.35740347158E-01  0.35744000000E-01  0.51099999109E-03 0. -1.
       11   -1    0    0    0    0 -0.00000000000E+00 -0.00000000000E+00 -0.35740347158E-01  0.35744000000E-01  0.51099999109E-03 0.  1.
       22    1    1    2    0    0 -0.11004027049E-01 -0.26046077468E-02  0.24711725188E-01  0.27176128396E-01  0.00000000000E+00 0.  1.
  9000001    1    1    2    0    0  0.11004027049E-01  0.26046077468E-02 -0.24711725188E-01  0.44311871604E-01  0.35000000149E-01 0.  1.
</event>
<event>
 4   0  0.4334200E-01  0.9118800E+02  0.7818609E-02  0.1379984E+01
      -11   -1    0    0    0    0  0.00000000000E+00  0.00000000000E+00  0.35740347158E-01  0.35744000000E-01  0.51099999109E-03 0.  1.
       11   -1    0    0    0    0 -0.00000000000E+00 -0.00000000000E+00 -0.35740347158E-01  0.35744000000E-01  0.51099999109E-03 0. -1.
       22    1    1    2    0    0 -0.23576745649E-01 -0.13514048688E-01  0.22250225283E-03  0.27176128396E-01  0.00000000000E+00 0.  1.
  9000001    1    1    2    0    0  0.23576745649E-01  0.13514048688E-01 -0.22250225283E-03  0.44311871604E-01  0.35000000149E-01 0. -1.
</event>
<event>
 4   0  0.4334200E-01  0.9118800E+02  0.7818609E-02  0.1379984E+01
      -11   -1    0    0    0    0  0.00000000000E+00  0.00000000000E+00  0.35740347158E-01  0.35744000000E-01  0.51099999109E-03 0.  1.
       11   -1    0    0    0    0 -0.00000000000E+00 -0.00000000000E+00 -0.35740347158E-01  0.35744000000E-01  0.51099999109E-03 0. -1.
       22    1    1    2    0    0 -0.45272189932E-02 -0.97697844674E-03  0.26778568967E-01  0.27176128396E-01  0.00000000000E+00 0.  1.
  9000001    1    1    2    0    0  0.45272189932E-02  0.97697844674E-03 -0.26778568967E-01  0.44311871604E-01  0.35000000149E-01 0. -1.
</event>
<event>
 4   0  0.4334200E-01  0.9118800E+02  0.7818609E-02  0.1379984E+01
      -11   -1    0    0    0    0  0.00000000000E+00  0.00000000000E+00  0.35740347158E-01  0.35744000000E-01  0.51099999109E-03 0.  1.
       11   -1    0    0    0    0 -0.00000000000E+00 -0.00000000000E+00 -0.35740347158E-01  0.35744000000E-01  0.51099999109E-03 0. -1.
       22    1    1    2    0    0  0.68478741274E-03  0.44507440035E-02 -0.26800445866E-01  0.27176128396E-01  0.00000000000E+00 0. -1.
  9000001    1    1    2    0    0 -0.68478741274E-03 -0.44507440035E-02  0.26800445866E-01  0.44311871604E-01  0.35000000149E-01 0.  1.
</event>
<event>
 4   0  0.4334200E-01  0.9118800E+02  0.7818609E-02  0.1379984E+01
      -11   -1    0    0    0    0  0.00000000000E+00  0.00000000000E+00  0.35740347158E-01  0.35744000000E-01  0.51099999109E-03 0.  1.
       11   -1    0    0    0    0 -0.00000000000E+00 -0.00000000000E+00 -0.35740347158E-01  0.35744000000E-01  0.51099999109E-03 0. -1.
       22    1    1    2    0    0 -0.11521870163E-01  0.14847559139E-01  0.19630039485E-01  0.27176128396E-01  0.00000000000E+00 0.  1.
  9000001    1    1    2    0    0  0.11521870163E-01 -0.14847559139E-01 -0.19630039485E-01  0.44311871604E-01  0.35000000149E-01 0. -1.
</event>
<event>
 4   0  0.4334200E-01  0.9118800E+02  0.7818609E-02  0.1379984E+01
      -11   -1    0    0    0    0  0.00000000000E+00  0.00000000000E+00  0.35740347158E-01  0.35744000000E-01  0.51099999109E-03 0.  1.
       11   -1    0    0    0    0 -0.00000000000E+00 -0.00000000000E+00 -0.35740347158E-01  0.35744000000E-01  0.51099999109E-03 0. -1.
       22    1    1    2    0    0 -0.25284345195E-02  0.60743121946E-02 -0.26367626075E-01  0.27176128396E-01  0.00000000000E+00 0. -1.
  9000001    1    1    2    0    0  0.25284345195E-02 -0.60743121946E-02  0.26367626075E-01  0.44311871604E-01  0.35000000149E-01 0.  1.
</event>
<event>
 4   0  0.4334200E-01  0.9118800E+02  0.7818609E-02  0.1379984E+01
      -11   -1    0    0    0    0  0.00000000000E+00  0.00000000000E+00  0.35740347158E-01  0.35744000000E-01  0.51099999109E-03 0.  1.
       11   -1    0    0    0    0 -0.00000000000E+00 -0.00000000000E+00 -0.35740347158E-01  0.35744000000E-01  0.51099999109E-03 0. -1.
       22    1    1    2    0    0 -0.29737954291E-02 -0.10562119277E-01 -0.24862424092E-01  0.27176128396E-01  0.00000000000E+00 0. -1.
  9000001    1    1    2    0    0  0.29737954291E-02  0.10562119277E-01  0.24862424092E-01  0.44311871604E-01  0.35000000149E-01 0.  1.
</event>
<event>
 4   0  0.4334200E-01  0.9118800E+02  0.7818609E-02  0.1379984E+01
      -11   -1    0    0    0    0  0.00000000000E+00  0.00000000000E+00  0.35740347158E-01  0.35744000000E-01  0.51099999109E-03 0. -1.
       11   -1    0    0    0    0 -0.00000000000E+00 -0.00000000000E+00 -0.35740347158E-01  0.35744000000E-01  0.51099999109E-03 0.  1.
       22    1    1    2    0    0 -0.77381975161E-02  0.22890813692E-02  0.25950382662E-01  0.27176128396E-01  0.00000000000E+00 0. -1.
  9000001    1    1    2    0    0  0.77381975161E-02 -0.22890813692E-02 -0.25950382662E-01  0.44311871604E-01  0.35000000149E-01 0.  1.
</event>
<event>
 4   0  0.4334200E-01  0.9118800E+02  0.7818609E-02  0.1379984E+01
      -11   -1    0    0    0    0  0.00000000000E+00  0.00000000000E+00  0.35740347158E-01  0.35744000000E-01  0.51099999109E-03 0.  1.
       11   -1    0    0    0    0 -0.00000000000E+00 -0.00000000000E+00 -0.35740347158E-01  0.35744000000E-01  0.51099999109E-03 0. -1.
       22    1    1    2    0    0  0.23713913946E-01 -0.12932111192E-01 -0.29921129767E-02  0.27176128396E-01  0.00000000000E+00 0.  1.
  9000001    1    1    2    0    0 -0.23713913946E-01  0.12932111192E-01  0.29921129767E-02  0.44311871604E-01  0.35000000149E-01 0. -1.
</event>
<event>
 4   0  0.4334200E-01  0.9118800E+02  0.7818609E-02  0.1379984E+01
      -11   -1    0    0    0    0  0.00000000000E+00  0.00000000000E+00  0.35740347158E-01  0.35744000000E-01  0.51099999109E-03 0.  1.
       11   -1    0    0    0    0 -0.00000000000E+00 -0.00000000000E+00 -0.35740347158E-01  0.35744000000E-01  0.51099999109E-03 0. -1.
       22    1    1    2    0    0 -0.10636947005E-02 -0.39512522283E-02 -0.26866300713E-01  0.27176128396E-01  0.00000000000E+00 0. -1.
  9000001    1    1    2    0    0  0.10636947005E-02  0.39512522283E-02  0.26866300713E-01  0.44311871604E-01  0.35000000149E-01 0.  1.
</event>
<event>
 4   0  0.4334200E-01  0.9118800E+02  0.7818609E-02  0.1379984E+01
      -11   -1    0    0    0    0  0.00000000000E+00  0.00000000000E+00  0.35740347158E-01  0.35744000000E-01  0.51099999109E-03 0.  1.
       11   -1    0    0    0    0 -0.00000000000E+00 -0.00000000000E+00 -0.35740347158E-01  0.35744000000E-01  0.51099999109E-03 0. -1.
       22    1    1    2    0    0  0.36308605382E-02 -0.34940312486E-03  0.26930219528E-01  0.27176128396E-01  0.00000000000E+00 0.  1.
  9000001    1    1    2    0    0 -0.36308605382E-02  0.34940312486E-03 -0.26930219528E-01  0.44311871604E-01  0.35000000149E-01 0. -1.
</event>
<event>
 4   0  0.4334200E-01  0.9118800E+02  0.7818609E-02  0.1379984E+01
      -11   -1    0    0    0    0  0.00000000000E+00  0.00000000000E+00  0.35740347158E-01  0.35744000000E-01  0.51099999109E-03 0. -1.
       11   -1    0    0    0    0 -0.00000000000E+00 -0.00000000000E+00 -0.35740347158E-01  0.35744000000E-01  0.51099999109E-03 0.  1.
       22    1    1    2    0    0  0.30974234826E-02 -0.32174719197E-02  0.26806637179E-01  0.27176128396E-01  0.00000000000E+00 0. -1.
  9000001    1    1    2    0    0 -0.30974234826E-02  0.32174719197E-02 -0.26806637179E-01  0.44311871604E-01  0.35000000149E-01 0.  1.
</event>
<event>
 4   0  0.4334200E-01  0.9118800E+02  0.7818609E-02  0.1379984E+01
      -11   -1    0    0    0    0  0.00000000000E+00  0.00000000000E+00  0.35740347158E-01  0.35744000000E-01  0.51099999109E-03 0. -1.
       11   -1    0    0    0    0 -0.00000000000E+00 -0.00000000000E+00 -0.35740347158E-01  0.35744000000E-01  0.51099999109E-03 0.  1.
       22    1    1    2    0    0  0.24127160770E-02  0.12637931367E-01 -0.23937490397E-01  0.27176128396E-01  0.00000000000E+00 0.  1.
  9000001    1    1    2    0    0 -0.24127160770E-02 -0.12637931367E-01  0.23937490397E-01  0.44311871604E-01  0.35000000149E-01 0. -1.
</event>
<event>
 4   0  0.4334200E-01  0.9118800E+02  0.7818609E-02  0.1379984E+01
      -11   -1    0    0    0    0  0.00000000000E+00  0.00000000000E+00  0.35740347158E-01  0.35744000000E-01  0.51099999109E-03 0. -1.
       11   -1    0    0    0    0 -0.00000000000E+00 -0.00000000000E+00 -0.35740347158E-01  0.35744000000E-01  0.51099999109E-03 0.  1.
       22    1    1    2    0    0 -0.22260342359E-02  0.20611543449E-02  0.27006265365E-01  0.27176128396E-01  0.00000000000E+00 0. -1.
  9000001    1    1    2    0    0  0.22260342359E-02 -0.20611543449E-02 -0.27006265365E-01  0.44311871604E-01  0.35000000149E-01 0.  1.
</event>
<event>
 4   0  0.4334200E-01  0.9118800E+02  0.7818609E-02  0.1379984E+01
      -11   -1    0    0    0    0  0.00000000000E+00  0.00000000000E+00  0.35740347158E-01  0.35744000000E-01  0.51099999109E-03 0.  1.
       11   -1    0    0    0    0 -0.00000000000E+00 -0.00000000000E+00 -0.35740347158E-01  0.35744000000E-01  0.51099999109E-03 0. -1.
       22    1    1    2    0    0  0.18014636514E-01  0.19049512396E-01  0.71505876233E-02  0.27176128396E-01  0.00000000000E+00 0. -1.
  9000001    1    1    2    0    0 -0.18014636514E-01 -0.19049512396E-01 -0.71505876233E-02  0.44311871604E-01  0.35000000149E-01 0.  0.
</event>
<event>
 4   0  0.4334200E-01  0.9118800E+02  0.7818609E-02  0.1379984E+01
      -11   -1    0    0    0    0  0.00000000000E+00  0.00000000000E+00  0.35740347158E-01  0.35744000000E-01  0.51099999109E-03 0.  1.
       11   -1    0    0    0    0 -0.00000000000E+00 -0.00000000000E+00 -0.35740347158E-01  0.35744000000E-01  0.51099999109E-03 0. -1.
       22    1    1    2    0    0  0.98165014432E-02  0.44320967510E-03 -0.25337360147E-01  0.27176128396E-01  0.00000000000E+00 0.  1.
  9000001    1    1    2    0    0 -0.98165014432E-02 -0.44320967510E-03  0.25337360147E-01  0.44311871604E-01  0.35000000149E-01 0.  0.
</event>
<event>
 4   0  0.4334200E-01  0.9118800E+02  0.7818609E-02  0.1379984E+01
      -11   -1    0    0    0    0  0.00000000000E+00  0.00000000000E+00  0.35740347158E-01  0.35744000000E-01  0.51099999109E-03 0.  1.
       11   -1    0    0    0    0 -0.00000000000E+00 -0.00000000000E+00 -0.35740347158E-01  0.35744000000E-01  0.51099999109E-03 0. -1.
       22    1    1    2    0    0 -0.13990250674E-01 -0.14099708414E-01  0.18547589151E-01  0.27176128396E-01  0.00000000000E+00 0.  1.
  9000001    1    1    2    0    0  0.13990250674E-01  0.14099708414E-01 -0.18547589151E-01  0.44311871604E-01  0.35000000149E-01 0. -1.
</event>
<event>
 4   0  0.4334200E-01  0.9118800E+02  0.7818609E-02  0.1379984E+01
      -11   -1    0    0    0    0  0.00000000000E+00  0.00000000000E+00  0.35740347158E-01  0.35744000000E-01  0.51099999109E-03 0.  1.
       11   -1    0    0    0    0 -0.00000000000E+00 -0.00000000000E+00 -0.35740347158E-01  0.35744000000E-01  0.51099999109E-03 0. -1.
       22    1    1    2    0    0 -0.56969456440E-02  0.34792361447E-02  0.26343532048E-01  0.27176128396E-01  0.00000000000E+00 0.  1.
  9000001    1    1    2    0    0  0.56969456440E-02 -0.34792361447E-02 -0.26343532048E-01  0.44311871604E-01  0.35000000149E-01 0. -1.
</event>
<event>
 4   0  0.4334200E-01  0.9118800E+02  0.7818609E-02  0.1379984E+01
      -11   -1    0    0    0    0  0.00000000000E+00  0.00000000000E+00  0.35740347158E-01  0.35744000000E-01  0.51099999109E-03 0. -1.
       11   -1    0    0    0    0 -0.00000000000E+00 -0.00000000000E+00 -0.35740347158E-01  0.35744000000E-01  0.51099999109E-03 0.  1.
       22    1    1    2    0    0 -0.28097439179E-02  0.68088261071E-02  0.26158883401E-01  0.27176128396E-01  0.00000000000E+00 0. -1.
  9000001    1    1    2    0    0  0.28097439179E-02 -0.68088261071E-02 -0.26158883401E-01  0.44311871604E-01  0.35000000149E-01 0.  1.
</event>
<event>
 4   0  0.4334200E-01  0.9118800E+02  0.7818609E-02  0.1379984E+01
      -11   -1    0    0    0    0  0.00000000000E+00  0.00000000000E+00  0.35740347158E-01  0.35744000000E-01  0.51099999109E-03 0.  1.
       11   -1    0    0    0    0 -0.00000000000E+00 -0.00000000000E+00 -0.35740347158E-01  0.35744000000E-01  0.51099999109E-03 0. -1.
       22    1    1    2    0    0  0.44222401502E-02  0.39546847503E-03  0.26810993106E-01  0.27176128396E-01  0.00000000000E+00 0.  1.
  9000001    1    1    2    0    0 -0.44222401502E-02 -0.39546847503E-03 -0.26810993106E-01  0.44311871604E-01  0.35000000149E-01 0. -1.
</event>
<event>
 4   0  0.4334200E-01  0.9118800E+02  0.7818609E-02  0.1379984E+01
      -11   -1    0    0    0    0  0.00000000000E+00  0.00000000000E+00  0.35740347158E-01  0.35744000000E-01  0.51099999109E-03 0. -1.
       11   -1    0    0    0    0 -0.00000000000E+00 -0.00000000000E+00 -0.35740347158E-01  0.35744000000E-01  0.51099999109E-03 0.  1.
       22    1    1    2    0    0 -0.82430695198E-02  0.64242650843E-02  0.25086302590E-01  0.27176128396E-01  0.00000000000E+00 0. -1.
  9000001    1    1    2    0    0  0.82430695198E-02 -0.64242650843E-02 -0.25086302590E-01  0.44311871604E-01  0.35000000149E-01 0.  1.
</event>
<event>
 4   0  0.4334200E-01  0.9118800E+02  0.7818609E-02  0.1379984E+01
      -11   -1    0    0    0    0  0.00000000000E+00  0.00000000000E+00  0.35740347158E-01  0.35744000000E-01  0.51099999109E-03 0. -1.
       11   -1    0    0    0    0 -0.00000000000E+00 -0.00000000000E+00 -0.35740347158E-01  0.35744000000E-01  0.51099999109E-03 0.  1.
       22    1    1    2    0    0 -0.12329532569E-01 -0.66674985278E-02  0.23282376267E-01  0.27176128396E-01  0.00000000000E+00 0. -1.
  9000001    1    1    2    0    0  0.12329532569E-01  0.66674985278E-02 -0.23282376267E-01  0.44311871604E-01  0.35000000149E-01 0.  1.
</event>
<event>
 4   0  0.4334200E-01  0.9118800E+02  0.7818609E-02  0.1379984E+01
      -11   -1    0    0    0    0  0.00000000000E+00  0.00000000000E+00  0.35740347158E-01  0.35744000000E-01  0.51099999109E-03 0.  1.
       11   -1    0    0    0    0 -0.00000000000E+00 -0.00000000000E+00 -0.35740347158E-01  0.35744000000E-01  0.51099999109E-03 0. -1.
       22    1    1    2    0    0  0.45775112609E-03  0.49889485752E-02  0.26710350253E-01  0.27176128396E-01  0.00000000000E+00 0.  1.
  9000001    1    1    2    0    0 -0.45775112609E-03 -0.49889485752E-02 -0.26710350253E-01  0.44311871604E-01  0.35000000149E-01 0. -1.
</event>
<event>
 4   0  0.4334200E-01  0.9118800E+02  0.7818609E-02  0.1379984E+01
      -11   -1    0    0    0    0  0.00000000000E+00  0.00000000000E+00  0.35740347158E-01  0.35744000000E-01  0.51099999109E-03 0. -1.
       11   -1    0    0    0    0 -0.00000000000E+00 -0.00000000000E+00 -0.35740347158E-01  0.35744000000E-01  0.51099999109E-03 0.  1.
       22    1    1    2    0    0 -0.54813033931E-02  0.74224038525E-02 -0.25561791580E-01  0.27176128396E-01  0.00000000000E+00 0.  1.
  9000001    1    1    2    0    0  0.54813033931E-02 -0.74224038525E-02  0.25561791580E-01  0.44311871604E-01  0.35000000149E-01 0. -1.
</event>
<event>
 4   0  0.4334200E-01  0.9118800E+02  0.7818609E-02  0.1379984E+01
      -11   -1    0    0    0    0  0.00000000000E+00  0.00000000000E+00  0.35740347158E-01  0.35744000000E-01  0.51099999109E-03 0.  1.
       11   -1    0    0    0    0 -0.00000000000E+00 -0.00000000000E+00 -0.35740347158E-01  0.35744000000E-01  0.51099999109E-03 0. -1.
       22    1    1    2    0    0  0.17071517457E-01 -0.12442860211E-02  0.21108221114E-01  0.27176128396E-01  0.00000000000E+00 0.  1.
  9000001    1    1    2    0    0 -0.17071517457E-01  0.12442860211E-02 -0.21108221114E-01  0.44311871604E-01  0.35000000149E-01 0. -1.
</event>
<event>
 4   0  0.4334200E-01  0.9118800E+02  0.7818609E-02  0.1379984E+01
      -11   -1    0    0    0    0  0.00000000000E+00  0.00000000000E+00  0.35740347158E-01  0.35744000000E-01  0.51099999109E-03 0.  1.
       11   -1    0    0    0    0 -0.00000000000E+00 -0.00000000000E+00 -0.35740347158E-01  0.35744000000E-01  0.51099999109E-03 0. -1.
       22    1    1    2    0    0 -0.44289384216E-02 -0.29658713940E-02  0.26648265721E-01  0.27176128396E-01  0.00000000000E+00 0.  1.
  9000001    1    1    2    0    0  0.44289384216E-02  0.29658713940E-02 -0.26648265721E-01  0.44311871604E-01  0.35000000149E-01 0. -1.
</event>
<event>
 4   0  0.4334200E-01  0.9118800E+02  0.7818609E-02  0.1379984E+01
      -11   -1    0    0    0    0  0.00000000000E+00  0.00000000000E+00  0.35740347158E-01  0.35744000000E-01  0.51099999109E-03 0. -1.
       11   -1    0    0    0    0 -0.00000000000E+00 -0.00000000000E+00 -0.35740347158E-01  0.35744000000E-01  0.51099999109E-03 0.  1.
       22    1    1    2    0    0 -0.30846747881E-02  0.25473538114E-03  0.26999293434E-01  0.27176128396E-01  0.00000000000E+00 0. -1.
  9000001    1    1    2    0    0  0.30846747881E-02 -0.25473538114E-03 -0.26999293434E-01  0.44311871604E-01  0.35000000149E-01 0.  1.
</event>
<event>
 4   0  0.4334200E-01  0.9118800E+02  0.7818609E-02  0.1379984E+01
      -11   -1    0    0    0    0  0.00000000000E+00  0.00000000000E+00  0.35740347158E-01  0.35744000000E-01  0.51099999109E-03 0.  1.
       11   -1    0    0    0    0 -0.00000000000E+00 -0.00000000000E+00 -0.35740347158E-01  0.35744000000E-01  0.51099999109E-03 0. -1.
       22    1    1    2    0    0 -0.43253202807E-02  0.33194918983E-02  0.26623570997E-01  0.27176128396E-01  0.00000000000E+00 0.  1.
  9000001    1    1    2    0    0  0.43253202807E-02 -0.33194918983E-02 -0.26623570997E-01  0.44311871604E-01  0.35000000149E-01 0. -1.
</event>
<event>
 4   0  0.4334200E-01  0.9118800E+02  0.7818609E-02  0.1379984E+01
      -11   -1    0    0    0    0  0.00000000000E+00  0.00000000000E+00  0.35740347158E-01  0.35744000000E-01  0.51099999109E-03 0.  1.
       11   -1    0    0    0    0 -0.00000000000E+00 -0.00000000000E+00 -0.35740347158E-01  0.35744000000E-01  0.51099999109E-03 0. -1.
       22    1    1    2    0    0 -0.11413459682E-01 -0.18946906199E-02  0.24590344449E-01  0.27176128396E-01  0.00000000000E+00 0.  1.
  9000001    1    1    2    0    0  0.11413459682E-01  0.18946906199E-02 -0.24590344449E-01  0.44311871604E-01  0.35000000149E-01 0. -1.
</event>
<event>
 4   0  0.4334200E-01  0.9118800E+02  0.7818609E-02  0.1379984E+01
      -11   -1    0    0    0    0  0.00000000000E+00  0.00000000000E+00  0.35740347158E-01  0.35744000000E-01  0.51099999109E-03 0. -1.
       11   -1    0    0    0    0 -0.00000000000E+00 -0.00000000000E+00 -0.35740347158E-01  0.35744000000E-01  0.51099999109E-03 0.  1.
       22    1    1    2    0    0 -0.14751657309E-01 -0.13110563140E-01 -0.18682711136E-01  0.27176128396E-01  0.00000000000E+00 0.  1.
  9000001    1    1    2    0    0  0.14751657309E-01  0.13110563140E-01  0.18682711136E-01  0.44311871604E-01  0.35000000149E-01 0. -1.
</event>
<event>
 4   0  0.4334200E-01  0.9118800E+02  0.7818609E-02  0.1379984E+01
      -11   -1    0    0    0    0  0.00000000000E+00  0.00000000000E+00  0.35740347158E-01  0.35744000000E-01  0.51099999109E-03 0. -1.
       11   -1    0    0    0    0 -0.00000000000E+00 -0.00000000000E+00 -0.35740347158E-01  0.35744000000E-01  0.51099999109E-03 0.  1.
       22    1    1    2    0    0 -0.20606409236E-01 -0.10230995119E-01  0.14465289207E-01  0.27176128396E-01  0.00000000000E+00 0. -1.
  9000001    1    1    2    0    0  0.20606409236E-01  0.10230995119E-01 -0.14465289207E-01  0.44311871604E-01  0.35000000149E-01 0.  1.
</event>
<event>
 4   0  0.4334200E-01  0.9118800E+02  0.7818609E-02  0.1379984E+01
      -11   -1    0    0    0    0  0.00000000000E+00  0.00000000000E+00  0.35740347158E-01  0.35744000000E-01  0.51099999109E-03 0.  1.
       11   -1    0    0    0    0 -0.00000000000E+00 -0.00000000000E+00 -0.35740347158E-01  0.35744000000E-01  0.51099999109E-03 0. -1.
       22    1    1    2    0    0  0.46945598667E-02  0.55213762457E-02  0.26191935145E-01  0.27176128396E-01  0.00000000000E+00 0.  1.
  9000001    1    1    2    0    0 -0.46945598667E-02 -0.55213762457E-02 -0.26191935145E-01  0.44311871604E-01  0.35000000149E-01 0. -1.
</event>
<event>
 4   0  0.4334200E-01  0.9118800E+02  0.7818609E-02  0.1379984E+01
      -11   -1    0    0    0    0  0.00000000000E+00  0.00000000000E+00  0.35740347158E-01  0.35744000000E-01  0.51099999109E-03 0.  1.
       11   -1    0    0    0    0 -0.00000000000E+00 -0.00000000000E+00 -0.35740347158E-01  0.35744000000E-01  0.51099999109E-03 0. -1.
       22    1    1    2    0    0  0.17975103706E-01 -0.12994454549E-01  0.15702921777E-01  0.27176128396E-01  0.00000000000E+00 0.  1.
  9000001    1    1    2    0    0 -0.17975103706E-01  0.12994454549E-01 -0.15702921777E-01  0.44311871604E-01  0.35000000149E-01 0. -1.
</event>
<event>
 4   0  0.4334200E-01  0.9118800E+02  0.7818609E-02  0.1379984E+01
      -11   -1    0    0    0    0  0.00000000000E+00  0.00000000000E+00  0.35740347158E-01  0.35744000000E-01  0.51099999109E-03 0.  1.
       11   -1    0    0    0    0 -0.00000000000E+00 -0.00000000000E+00 -0.35740347158E-01  0.35744000000E-01  0.51099999109E-03 0. -1.
       22    1    1    2    0    0 -0.83153225885E-02  0.24257127406E-01  0.89993963603E-02  0.27176128396E-01  0.00000000000E+00 0. -1.
  9000001    1    1    2    0    0  0.83153225885E-02 -0.24257127406E-01 -0.89993963603E-02  0.44311871604E-01  0.35000000149E-01 0.  0.
</event>
<event>
 4   0  0.4334200E-01  0.9118800E+02  0.7818609E-02  0.1379984E+01
      -11   -1    0    0    0    0  0.00000000000E+00  0.00000000000E+00  0.35740347158E-01  0.35744000000E-01  0.51099999109E-03 0. -1.
       11   -1    0    0    0    0 -0.00000000000E+00 -0.00000000000E+00 -0.35740347158E-01  0.35744000000E-01  0.51099999109E-03 0.  1.
       22    1    1    2    0    0 -0.41983556649E-02 -0.59310124353E-03 -0.26843323103E-01  0.27176128396E-01  0.00000000000E+00 0.  1.
  9000001    1    1    2    0    0  0.41983556649E-02  0.59310124353E-03  0.26843323103E-01  0.44311871604E-01  0.35000000149E-01 0.  0.
</event>
<event>
 4   0  0.4334200E-01  0.9118800E+02  0.7818609E-02  0.1379984E+01
      -11   -1    0    0    0    0  0.00000000000E+00  0.00000000000E+00  0.35740347158E-01  0.35744000000E-01  0.51099999109E-03 0.  1.
       11   -1    0    0    0    0 -0.00000000000E+00 -0.00000000000E+00 -0.35740347158E-01  0.35744000000E-01  0.51099999109E-03 0. -1.
       22    1    1    2    0    0 -0.82783361611E-02  0.56817461125E-02 -0.25253294164E-01  0.27176128396E-01  0.00000000000E+00 0. -1.
  9000001    1    1    2    0    0  0.82783361611E-02 -0.56817461125E-02  0.25253294164E-01  0.44311871604E-01  0.35000000149E-01 0.  1.
</event>
<event>
 4   0  0.4334200E-01  0.9118800E+02  0.7818609E-02  0.1379984E+01
      -11   -1    0    0    0    0  0.00000000000E+00  0.00000000000E+00  0.35740347158E-01  0.35744000000E-01  0.51099999109E-03 0. -1.
       11   -1    0    0    0    0 -0.00000000000E+00 -0.00000000000E+00 -0.35740347158E-01  0.35744000000E-01  0.51099999109E-03 0.  1.
       22    1    1    2    0    0 -0.24950748964E-01  0.82144626199E-02  0.69659661637E-02  0.27176128396E-01  0.00000000000E+00 0.  1.
  9000001    1    1    2    0    0  0.24950748964E-01 -0.82144626199E-02 -0.69659661637E-02  0.44311871604E-01  0.35000000149E-01 0.  0.
</event>
<event>
 4   0  0.4334200E-01  0.9118800E+02  0.7818609E-02  0.1379984E+01
      -11   -1    0    0    0    0  0.00000000000E+00  0.00000000000E+00  0.35740347158E-01  0.35744000000E-01  0.51099999109E-03 0.  1.
       11   -1    0    0    0    0 -0.00000000000E+00 -0.00000000000E+00 -0.35740347158E-01  0.35744000000E-01  0.51099999109E-03 0. -1.
       22    1    1    2    0    0  0.51015569246E-02  0.44974464845E-03  0.26689207581E-01  0.27176128396E-01  0.00000000000E+00 0.  1.
  9000001    1    1    2    0    0 -0.51015569246E-02 -0.44974464845E-03 -0.26689207581E-01  0.44311871604E-01  0.35000000149E-01 0. -1.
</event>
<event>
 4   0  0.4334200E-01  0.9118800E+02  0.7818609E-02  0.1379984E+01
      -11   -1    0    0    0    0  0.00000000000E+00  0.00000000000E+00  0.35740347158E-01  0.35744000000E-01  0.51099999109E-03 0.  1.
       11   -1    0    0    0    0 -0.00000000000E+00 -0.00000000000E+00 -0.35740347158E-01  0.35744000000E-01  0.51099999109E-03 0. -1.
       22    1    1    2    0    0 -0.12876602037E-01  0.37673502777E-02  0.23633496281E-01  0.27176128396E-01  0.00000000000E+00 0.  1.
  9000001    1    1    2    0    0  0.12876602037E-01 -0.37673502777E-02 -0.23633496281E-01  0.44311871604E-01  0.35000000149E-01 0. -1.
</event>
<event>
 4   0  0.4334200E-01  0.9118800E+02  0.7818609E-02  0.1379984E+01
      -11   -1    0    0    0    0  0.00000000000E+00  0.00000000000E+00  0.35740347158E-01  0.35744000000E-01  0.51099999109E-03 0. -1.
       11   -1    0    0    0    0 -0.00000000000E+00 -0.00000000000E+00 -0.35740347158E-01  0.35744000000E-01  0.51099999109E-03 0.  1.
       22    1    1    2    0    0  0.31239574015E-02  0.79441282537E-02  0.25800652531E-01  0.27176128396E-01  0.00000000000E+00 0. -1.
  9000001    1    1    2    0    0 -0.31239574015E-02 -0.79441282537E-02 -0.25800652531E-01  0.44311871604E-01  0.35000000149E-01 0.  1.
</event>
<event>
 4   0  0.4334200E-01  0.9118800E+02  0.7818609E-02  0.1379984E+01
      -11   -1    0    0    0    0  0.00000000000E+00  0.00000000000E+00  0.35740347158E-01  0.35744000000E-01  0.51099999109E-03 0.  1.
       11   -1    0    0    0    0 -0.00000000000E+00 -0.00000000000E+00 -0.35740347158E-01  0.35744000000E-01  0.51099999109E-03 0. -1.
       22    1    1    2    0    0 -0.70009913732E-03 -0.32459445299E-02 -0.26972498214E-01  0.27176128396E-01  0.00000000000E+00 0. -1.
  9000001    1    1    2    0    0  0.70009913732E-03  0.32459445299E-02  0.26972498214E-01  0.44311871604E-01  0.35000000149E-01 0.  1.
</event>
<event>
 4   0  0.4334200E-01  0.9118800E+02  0.7818609E-02  0.1379984E+01
      -11   -1    0    0    0    0  0.00000000000E+00  0.00000000000E+00  0.35740347158E-01  0.35744000000E-01  0.51099999109E-03 0. -1.
       11   -1    0    0    0    0 -0.00000000000E+00 -0.00000000000E+00 -0.35740347158E-01  0.35744000000E-01  0.51099999109E-03 0.  1.
       22    1    1    2    0    0 -0.87852736999E-02 -0.21349372978E-01 -0.14337544910E-01  0.27176128396E-01  0.00000000000E+00 0. -1.
  9000001    1    1    2    0    0  0.87852736999E-02  0.21349372978E-01  0.14337544910E-01  0.44311871604E-01  0.35000000149E-01 0. -1.
</event>
<event>
 4   0  0.4334200E-01  0.9118800E+02  0.7818609E-02  0.1379984E+01
      -11   -1    0    0    0    0  0.00000000000E+00  0.00000000000E+00  0.35740347158E-01  0.35744000000E-01  0.51099999109E-03 0. -1.
       11   -1    0    0    0    0 -0.00000000000E+00 -0.00000000000E+00 -0.35740347158E-01  0.35744000000E-01  0.51099999109E-03 0.  1.
       22    1    1    2    0    0 -0.17740642381E-02 -0.49859551015E-02  0.26655860564E-01  0.27176128396E-01  0.00000000000E+00 0. -1.
  9000001    1    1    2    0    0  0.17740642381E-02  0.49859551015E-02 -0.26655860564E-01  0.44311871604E-01  0.35000000149E-01 0.  1.
</event>
<event>
 4   0  0.4334200E-01  0.9118800E+02  0.7818609E-02  0.1379984E+01
      -11   -1    0    0    0    0  0.00000000000E+00  0.00000000000E+00  0.35740347158E-01  0.35744000000E-01  0.51099999109E-03 0.  1.
       11   -1    0    0    0    0 -0.00000000000E+00 -0.00000000000E+00 -0.35740347158E-01  0.35744000000E-01  0.51099999109E-03 0. -1.
       22    1    1    2    0    0  0.16618422314E-01 -0.93318586112E-02 -0.19372310375E-01  0.27176128396E-01  0.00000000000E+00 0. -1.
  9000001    1    1    2    0    0 -0.16618422314E-01  0.93318586112E-02  0.19372310375E-01  0.44311871604E-01  0.35000000149E-01 0.  1.
</event>
<event>
 4   0  0.4334200E-01  0.9118800E+02  0.7818609E-02  0.1379984E+01
      -11   -1    0    0    0    0  0.00000000000E+00  0.00000000000E+00  0.35740347158E-01  0.35744000000E-01  0.51099999109E-03 0.  1.
       11   -1    0    0    0    0 -0.00000000000E+00 -0.00000000000E+00 -0.35740347158E-01  0.35744000000E-01  0.51099999109E-03 0. -1.
       22    1    1    2    0    0  0.23161516955E-01 -0.13745846347E-01  0.36246096564E-02  0.27176128396E-01  0.00000000000E+00 0.  1.
  9000001    1    1    2    0    0 -0.23161516955E-01  0.13745846347E-01 -0.36246096564E-02  0.44311871604E-01  0.35000000149E-01 0. -1.
</event>
<event>
 4   0  0.4334200E-01  0.9118800E+02  0.7818609E-02  0.1379984E+01
      -11   -1    0    0    0    0  0.00000000000E+00  0.00000000000E+00  0.35740347158E-01  0.35744000000E-01  0.51099999109E-03 0.  1.
       11   -1    0    0    0    0 -0.00000000000E+00 -0.00000000000E+00 -0.35740347158E-01  0.35744000000E-01  0.51099999109E-03 0. -1.
       22    1    1    2    0    0  0.12035788934E-01  0.19556398938E-01 -0.14533719412E-01  0.27176128396E-01  0.00000000000E+00 0. -1.
  9000001    1    1    2    0    0 -0.12035788934E-01 -0.19556398938E-01  0.14533719412E-01  0.44311871604E-01  0.35000000149E-01 0.  1.
</event>
<event>
 4   0  0.4334200E-01  0.9118800E+02  0.7818609E-02  0.1379984E+01
      -11   -1    0    0    0    0  0.00000000000E+00  0.00000000000E+00  0.35740347158E-01  0.35744000000E-01  0.51099999109E-03 0. -1.
       11   -1    0    0    0    0 -0.00000000000E+00 -0.00000000000E+00 -0.35740347158E-01  0.35744000000E-01  0.51099999109E-03 0.  1.
       22    1    1    2    0    0 -0.15724812595E-01 -0.14081555085E-01  0.17116717847E-01  0.27176128396E-01  0.00000000000E+00 0. -1.
  9000001    1    1    2    0    0  0.15724812595E-01  0.14081555085E-01 -0.17116717847E-01  0.44311871604E-01  0.35000000149E-01 0.  1.
</event>
<event>
 4   0  0.4334200E-01  0.9118800E+02  0.7818609E-02  0.1379984E+01
      -11   -1    0    0    0    0  0.00000000000E+00  0.00000000000E+00  0.35740347158E-01  0.35744000000E-01  0.51099999109E-03 0.  1.
       11   -1    0    0    0    0 -0.00000000000E+00 -0.00000000000E+00 -0.35740347158E-01  0.35744000000E-01  0.51099999109E-03 0. -1.
       22    1    1    2    0    0 -0.90236064810E-02  0.90225145162E-02 -0.23993972420E-01  0.27176128396E-01  0.00000000000E+00 0. -1.
  9000001    1    1    2    0    0  0.90236064810E-02 -0.90225145162E-02  0.23993972420E-01  0.44311871604E-01  0.35000000149E-01 0.  1.
</event>
<event>
 4   0  0.4334200E-01  0.9118800E+02  0.7818609E-02  0.1379984E+01
      -11   -1    0    0    0    0  0.00000000000E+00  0.00000000000E+00  0.35740347158E-01  0.35744000000E-01  0.51099999109E-03 0.  1.
       11   -1    0    0    0    0 -0.00000000000E+00 -0.00000000000E+00 -0.35740347158E-01  0.35744000000E-01  0.51099999109E-03 0. -1.
       22    1    1    2    0    0  0.20393725120E-01 -0.71137020317E-02 -0.16493428198E-01  0.27176128396E-01  0.00000000000E+00 0. -1.
  9000001    1    1    2    0    0 -0.20393725120E-01  0.71137020317E-02  0.16493428198E-01  0.44311871604E-01  0.35000000149E-01 0.  1.
</event>
<event>
 4   0  0.4334200E-01  0.9118800E+02  0.7818609E-02  0.1379984E+01
      -11   -1    0    0    0    0  0.00000000000E+00  0.00000000000E+00  0.35740347158E-01  0.35744000000E-01  0.51099999109E-03 0. -1.
       11   -1    0    0    0    0 -0.00000000000E+00 -0.00000000000E+00 -0.35740347158E-01  0.35744000000E-01  0.51099999109E-03 0.  1.
       22    1    1    2    0    0  0.10296999840E-01  0.24080675870E-01  0.72549843943E-02  0.27176128396E-01  0.00000000000E+00 0. -1.
  9000001    1    1    2    0    0 -0.10296999840E-01 -0.24080675870E-01 -0.72549843943E-02  0.44311871604E-01  0.35000000149E-01 0.  1.
</event>
<event>
 4   0  0.4334200E-01  0.9118800E+02  0.7818609E-02  0.1379984E+01
      -11   -1    0    0    0    0  0.00000000000E+00  0.00000000000E+00  0.35740347158E-01  0.35744000000E-01  0.51099999109E-03 0. -1.
       11   -1    0    0    0    0 -0.00000000000E+00 -0.00000000000E+00 -0.35740347158E-01  0.35744000000E-01  0.51099999109E-03 0.  1.
       22    1    1    2    0    0 -0.20896214993E-01  0.70953472807E-02 -0.15860208086E-01  0.27176128396E-01  0.00000000000E+00 0. -1.
  9000001    1    1    2    0    0  0.20896214993E-01 -0.70953472807E-02  0.15860208086E-01  0.44311871604E-01  0.35000000149E-01 0.  0.
</event>
<event>
 4   0  0.4334200E-01  0.9118800E+02  0.7818609E-02  0.1379984E+01
      -11   -1    0    0    0    0  0.00000000000E+00  0.00000000000E+00  0.35740347158E-01  0.35744000000E-01  0.51099999109E-03 0. -1.
       11   -1    0    0    0    0 -0.00000000000E+00 -0.00000000000E+00 -0.35740347158E-01  0.35744000000E-01  0.51099999109E-03 0.  1.
       22    1    1    2    0    0  0.74695468622E-02 -0.10806271278E-01  0.23790172873E-01  0.27176128396E-01  0.00000000000E+00 0. -1.
  9000001    1    1    2    0    0 -0.74695468622E-02  0.10806271278E-01 -0.23790172873E-01  0.44311871604E-01  0.35000000149E-01 0.  1.
</event>
<event>
 4   0  0.4334200E-01  0.9118800E+02  0.7818609E-02  0.1379984E+01
      -11   -1    0    0    0    0  0.00000000000E+00  0.00000000000E+00  0.35740347158E-01  0.35744000000E-01  0.51099999109E-03 0.  1.
       11   -1    0    0    0    0 -0.00000000000E+00 -0.00000000000E+00 -0.35740347158E-01  0.35744000000E-01  0.51099999109E-03 0. -1.
       22    1    1    2    0    0  0.10090683595E-01 -0.25013290950E-01 -0.33249563974E-02  0.27176128396E-01  0.00000000000E+00 0. -1.
  9000001    1    1    2    0    0 -0.10090683595E-01  0.25013290950E-01  0.33249563974E-02  0.44311871604E-01  0.35000000149E-01 0.  0.
</event>
<event>
 4   0  0.4334200E-01  0.9118800E+02  0.7818609E-02  0.1379984E+01
      -11   -1    0    0    0    0  0.00000000000E+00  0.00000000000E+00  0.35740347158E-01  0.35744000000E-01  0.51099999109E-03 0.  1.
       11   -1    0    0    0    0 -0.00000000000E+00 -0.00000000000E+00 -0.35740347158E-01  0.35744000000E-01  0.51099999109E-03 0. -1.
       22    1    1    2    0    0  0.35898947399E-02  0.18448070606E-01  0.19629653621E-01  0.27176128396E-01  0.00000000000E+00 0. -1.
  9000001    1    1    2    0    0 -0.35898947399E-02 -0.18448070606E-01 -0.19629653621E-01  0.44311871604E-01  0.35000000149E-01 0.  0.
</event>
<event>
 4   0  0.4334200E-01  0.9118800E+02  0.7818609E-02  0.1379984E+01
      -11   -1    0    0    0    0  0.00000000000E+00  0.00000000000E+00  0.35740347158E-01  0.35744000000E-01  0.51099999109E-03 0. -1.
       11   -1    0    0    0    0 -0.00000000000E+00 -0.00000000000E+00 -0.35740347158E-01  0.35744000000E-01  0.51099999109E-03 0.  1.
       22    1    1    2    0    0  0.41843246567E-02  0.21142626895E-02 -0.26768699540E-01  0.27176128396E-01  0.00000000000E+00 0.  1.
  9000001    1    1    2    0    0 -0.41843246567E-02 -0.21142626895E-02  0.26768699540E-01  0.44311871604E-01  0.35000000149E-01 0. -1.
</event>
<event>
 4   0  0.4334200E-01  0.9118800E+02  0.7818609E-02  0.1379984E+01
      -11   -1    0    0    0    0  0.00000000000E+00  0.00000000000E+00  0.35740347158E-01  0.35744000000E-01  0.51099999109E-03 0.  1.
       11   -1    0    0    0    0 -0.00000000000E+00 -0.00000000000E+00 -0.35740347158E-01  0.35744000000E-01  0.51099999109E-03 0. -1.
       22    1    1    2    0    0 -0.46864447889E-03  0.34093956448E-02  0.26957343124E-01  0.27176128396E-01  0.00000000000E+00 0.  1.
  9000001    1    1    2    0    0  0.46864447889E-03 -0.34093956448E-02 -0.26957343124E-01  0.44311871604E-01  0.35000000149E-01 0. -1.
</event>
<event>
 4   0  0.4334200E-01  0.9118800E+02  0.7818609E-02  0.1379984E+01
      -11   -1    0    0    0    0  0.00000000000E+00  0.00000000000E+00  0.35740347158E-01  0.35744000000E-01  0.51099999109E-03 0. -1.
       11   -1    0    0    0    0 -0.00000000000E+00 -0.00000000000E+00 -0.35740347158E-01  0.35744000000E-01  0.51099999109E-03 0.  1.
       22    1    1    2    0    0  0.43270518975E-02 -0.13435176265E-02  0.26795774608E-01  0.27176128396E-01  0.00000000000E+00 0. -1.
  9000001    1    1    2    0    0 -0.43270518975E-02  0.13435176265E-02 -0.26795774608E-01  0.44311871604E-01  0.35000000149E-01 0.  1.
</event>
<event>
 4   0  0.4334200E-01  0.9118800E+02  0.7818609E-02  0.1379984E+01
      -11   -1    0    0    0    0  0.00000000000E+00  0.00000000000E+00  0.35740347158E-01  0.35744000000E-01  0.51099999109E-03 0.  1.
       11   -1    0    0    0    0 -0.00000000000E+00 -0.00000000000E+00 -0.35740347158E-01  0.35744000000E-01  0.51099999109E-03 0. -1.
       22    1    1    2    0    0 -0.20176578326E-01 -0.27941990791E-02 -0.17989999810E-01  0.27176128396E-01  0.00000000000E+00 0.  1.
  9000001    1    1    2    0    0  0.20176578326E-01  0.27941990791E-02  0.17989999810E-01  0.44311871604E-01  0.35000000149E-01 0.  0.
</event>
<event>
 4   0  0.4334200E-01  0.9118800E+02  0.7818609E-02  0.1379984E+01
      -11   -1    0    0    0    0  0.00000000000E+00  0.00000000000E+00  0.35740347158E-01  0.35744000000E-01  0.51099999109E-03 0. -1.
       11   -1    0    0    0    0 -0.00000000000E+00 -0.00000000000E+00 -0.35740347158E-01  0.35744000000E-01  0.51099999109E-03 0.  1.
       22    1    1    2    0    0  0.43091511594E-02 -0.18036185036E-01 -0.19866283000E-01  0.27176128396E-01  0.00000000000E+00 0.  1.
  9000001    1    1    2    0    0 -0.43091511594E-02  0.18036185036E-01  0.19866283000E-01  0.44311871604E-01  0.35000000149E-01 0. -1.
</event>
<event>
 4   0  0.4334200E-01  0.9118800E+02  0.7818609E-02  0.1379984E+01
      -11   -1    0    0    0    0  0.00000000000E+00  0.00000000000E+00  0.35740347158E-01  0.35744000000E-01  0.51099999109E-03 0. -1.
       11   -1    0    0    0    0 -0.00000000000E+00 -0.00000000000E+00 -0.35740347158E-01  0.35744000000E-01  0.51099999109E-03 0.  1.
       22    1    1    2    0    0  0.21915303939E-01 -0.15742373257E-01 -0.32309583845E-02  0.27176128396E-01  0.00000000000E+00 0.  1.
  9000001    1    1    2    0    0 -0.21915303939E-01  0.15742373257E-01  0.32309583845E-02  0.44311871604E-01  0.35000000149E-01 0.  0.
</event>
<event>
 4   0  0.4334200E-01  0.9118800E+02  0.7818609E-02  0.1379984E+01
      -11   -1    0    0    0    0  0.00000000000E+00  0.00000000000E+00  0.35740347158E-01  0.35744000000E-01  0.51099999109E-03 0. -1.
       11   -1    0    0    0    0 -0.00000000000E+00 -0.00000000000E+00 -0.35740347158E-01  0.35744000000E-01  0.51099999109E-03 0.  1.
       22    1    1    2    0    0 -0.68914628560E-02 -0.93536070076E-03  0.26271178022E-01  0.27176128396E-01  0.00000000000E+00 0.  1.
  9000001    1    1    2    0    0  0.68914628560E-02  0.93536070076E-03 -0.26271178022E-01  0.44311871604E-01  0.35000000149E-01 0.  1.
</event>
<event>
 4   0  0.4334200E-01  0.9118800E+02  0.7818609E-02  0.1379984E+01
      -11   -1    0    0    0    0  0.00000000000E+00  0.00000000000E+00  0.35740347158E-01  0.35744000000E-01  0.51099999109E-03 0.  1.
       11   -1    0    0    0    0 -0.00000000000E+00 -0.00000000000E+00 -0.35740347158E-01  0.35744000000E-01  0.51099999109E-03 0. -1.
       22    1    1    2    0    0 -0.61762731395E-02 -0.63355589100E-02 -0.25695452866E-01  0.27176128396E-01  0.00000000000E+00 0. -1.
  9000001    1    1    2    0    0  0.61762731395E-02  0.63355589100E-02  0.25695452866E-01  0.44311871604E-01  0.35000000149E-01 0.  1.
</event>
<event>
 4   0  0.4334200E-01  0.9118800E+02  0.7818609E-02  0.1379984E+01
      -11   -1    0    0    0    0  0.00000000000E+00  0.00000000000E+00  0.35740347158E-01  0.35744000000E-01  0.51099999109E-03 0. -1.
       11   -1    0    0    0    0 -0.00000000000E+00 -0.00000000000E+00 -0.35740347158E-01  0.35744000000E-01  0.51099999109E-03 0.  1.
       22    1    1    2    0    0  0.18721139624E-02 -0.33856651823E-02  0.26899338564E-01  0.27176128396E-01  0.00000000000E+00 0. -1.
  9000001    1    1    2    0    0 -0.18721139624E-02  0.33856651823E-02 -0.26899338564E-01  0.44311871604E-01  0.35000000149E-01 0.  1.
</event>
<event>
 4   0  0.4334200E-01  0.9118800E+02  0.7818609E-02  0.1379984E+01
      -11   -1    0    0    0    0  0.00000000000E+00  0.00000000000E+00  0.35740347158E-01  0.35744000000E-01  0.51099999109E-03 0.  1.
       11   -1    0    0    0    0 -0.00000000000E+00 -0.00000000000E+00 -0.35740347158E-01  0.35744000000E-01  0.51099999109E-03 0. -1.
       22    1    1    2    0    0 -0.71117978796E-02  0.70550342582E-02 -0.25262438068E-01  0.27176128396E-01  0.00000000000E+00 0. -1.
  9000001    1    1    2    0    0  0.71117978796E-02 -0.70550342582E-02  0.25262438068E-01  0.44311871604E-01  0.35000000149E-01 0.  1.
</event>
<event>
 4   0  0.4334200E-01  0.9118800E+02  0.7818609E-02  0.1379984E+01
      -11   -1    0    0    0    0  0.00000000000E+00  0.00000000000E+00  0.35740347158E-01  0.35744000000E-01  0.51099999109E-03 0. -1.
       11   -1    0    0    0    0 -0.00000000000E+00 -0.00000000000E+00 -0.35740347158E-01  0.35744000000E-01  0.51099999109E-03 0.  1.
       22    1    1    2    0    0  0.10269301576E-01 -0.86535910645E-02 -0.23626230369E-01  0.27176128396E-01  0.00000000000E+00 0.  1.
  9000001    1    1    2    0    0 -0.10269301576E-01  0.86535910645E-02  0.23626230369E-01  0.44311871604E-01  0.35000000149E-01 0. -1.
</event>
<event>
 4   0  0.4334200E-01  0.9118800E+02  0.7818609E-02  0.1379984E+01
      -11   -1    0    0    0    0  0.00000000000E+00  0.00000000000E+00  0.35740347158E-01  0.35744000000E-01  0.51099999109E-03 0. -1.
       11   -1    0    0    0    0 -0.00000000000E+00 -0.00000000000E+00 -0.35740347158E-01  0.35744000000E-01  0.51099999109E-03 0.  1.
       22    1    1    2    0    0 -0.10161222100E-01 -0.27528571155E-02  0.25054207186E-01  0.27176128396E-01  0.00000000000E+00 0. -1.
  9000001    1    1    2    0    0  0.10161222100E-01  0.27528571155E-02 -0.25054207186E-01  0.44311871604E-01  0.35000000149E-01 0.  1.
</event>
<event>
 4   0  0.4334200E-01  0.9118800E+02  0.7818609E-02  0.1379984E+01
      -11   -1    0    0    0    0  0.00000000000E+00  0.00000000000E+00  0.35740347158E-01  0.35744000000E-01  0.51099999109E-03 0.  1.
       11   -1    0    0    0    0 -0.00000000000E+00 -0.00000000000E+00 -0.35740347158E-01  0.35744000000E-01  0.51099999109E-03 0. -1.
       22    1    1    2    0    0  0.17286644623E-01  0.12855447983E-01 -0.16566572652E-01  0.27176128396E-01  0.00000000000E+00 0. -1.
  9000001    1    1    2    0    0 -0.17286644623E-01 -0.12855447983E-01  0.16566572652E-01  0.44311871604E-01  0.35000000149E-01 0.  1.
</event>
<event>
 4   0  0.4334200E-01  0.9118800E+02  0.7818609E-02  0.1379984E+01
      -11   -1    0    0    0    0  0.00000000000E+00  0.00000000000E+00  0.35740347158E-01  0.35744000000E-01  0.51099999109E-03 0. -1.
       11   -1    0    0    0    0 -0.00000000000E+00 -0.00000000000E+00 -0.35740347158E-01  0.35744000000E-01  0.51099999109E-03 0.  1.
       22    1    1    2    0    0  0.81627630437E-02 -0.22268041123E-03  0.25920294511E-01  0.27176128396E-01  0.00000000000E+00 0. -1.
  9000001    1    1    2    0    0 -0.81627630437E-02  0.22268041123E-03 -0.25920294511E-01  0.44311871604E-01  0.35000000149E-01 0.  1.
</event>
<event>
 4   0  0.4334200E-01  0.9118800E+02  0.7818609E-02  0.1379984E+01
      -11   -1    0    0    0    0  0.00000000000E+00  0.00000000000E+00  0.35740347158E-01  0.35744000000E-01  0.51099999109E-03 0.  1.
       11   -1    0    0    0    0 -0.00000000000E+00 -0.00000000000E+00 -0.35740347158E-01  0.35744000000E-01  0.51099999109E-03 0. -1.
       22    1    1    2    0    0  0.46917306114E-03  0.30058889648E-02 -0.27005304345E-01  0.27176128396E-01  0.00000000000E+00 0. -1.
  9000001    1    1    2    0    0 -0.46917306114E-03 -0.30058889648E-02  0.27005304345E-01  0.44311871604E-01  0.35000000149E-01 0.  1.
</event>
<event>
 4   0  0.4334200E-01  0.9118800E+02  0.7818609E-02  0.1379984E+01
      -11   -1    0    0    0    0  0.00000000000E+00  0.00000000000E+00  0.35740347158E-01  0.35744000000E-01  0.51099999109E-03 0. -1.
       11   -1    0    0    0    0 -0.00000000000E+00 -0.00000000000E+00 -0.35740347158E-01  0.35744000000E-01  0.51099999109E-03 0.  1.
       22    1    1    2    0    0 -0.29691433130E-02  0.91411397876E-02 -0.25419789652E-01  0.27176128396E-01  0.00000000000E+00 0.  1.
  9000001    1    1    2    0    0  0.29691433130E-02 -0.91411397876E-02  0.25419789652E-01  0.44311871604E-01  0.35000000149E-01 0. -1.
</event>
<event>
 4   0  0.4334200E-01  0.9118800E+02  0.7818609E-02  0.1379984E+01
      -11   -1    0    0    0    0  0.00000000000E+00  0.00000000000E+00  0.35740347158E-01  0.35744000000E-01  0.51099999109E-03 0. -1.
       11   -1    0    0    0    0 -0.00000000000E+00 -0.00000000000E+00 -0.35740347158E-01  0.35744000000E-01  0.51099999109E-03 0.  1.
       22    1    1    2    0    0  0.52181415661E-02  0.66423810209E-03  0.26662178098E-01  0.27176128396E-01  0.00000000000E+00 0. -1.
  9000001    1    1    2    0    0 -0.52181415661E-02 -0.66423810209E-03 -0.26662178098E-01  0.44311871604E-01  0.35000000149E-01 0.  1.
</event>
<event>
 4   0  0.4334200E-01  0.9118800E+02  0.7818609E-02  0.1379984E+01
      -11   -1    0    0    0    0  0.00000000000E+00  0.00000000000E+00  0.35740347158E-01  0.35744000000E-01  0.51099999109E-03 0.  1.
       11   -1    0    0    0    0 -0.00000000000E+00 -0.00000000000E+00 -0.35740347158E-01  0.35744000000E-01  0.51099999109E-03 0. -1.
       22    1    1    2    0    0  0.63938590580E-02  0.30950178560E-02 -0.26231305446E-01  0.27176128396E-01  0.00000000000E+00 0. -1.
  9000001    1    1    2    0    0 -0.63938590580E-02 -0.30950178560E-02  0.26231305446E-01  0.44311871604E-01  0.35000000149E-01 0.  1.
</event>
<event>
 4   0  0.4334200E-01  0.9118800E+02  0.7818609E-02  0.1379984E+01
      -11   -1    0    0    0    0  0.00000000000E+00  0.00000000000E+00  0.35740347158E-01  0.35744000000E-01  0.51099999109E-03 0.  1.
       11   -1    0    0    0    0 -0.00000000000E+00 -0.00000000000E+00 -0.35740347158E-01  0.35744000000E-01  0.51099999109E-03 0. -1.
       22    1    1    2    0    0 -0.99313799339E-02 -0.13285134614E-01 -0.21527072386E-01  0.27176128396E-01  0.00000000000E+00 0. -1.
  9000001    1    1    2    0    0  0.99313799339E-02  0.13285134614E-01  0.21527072386E-01  0.44311871604E-01  0.35000000149E-01 0.  1.
</event>
<event>
 4   0  0.4334200E-01  0.9118800E+02  0.7818609E-02  0.1379984E+01
      -11   -1    0    0    0    0  0.00000000000E+00  0.00000000000E+00  0.35740347158E-01  0.35744000000E-01  0.51099999109E-03 0.  1.
       11   -1    0    0    0    0 -0.00000000000E+00 -0.00000000000E+00 -0.35740347158E-01  0.35744000000E-01  0.51099999109E-03 0. -1.
       22    1    1    2    0    0 -0.14596718960E-01 -0.14782973370E-01 -0.17519744534E-01  0.27176128396E-01  0.00000000000E+00 0. -1.
  9000001    1    1    2    0    0  0.14596718960E-01  0.14782973370E-01  0.17519744534E-01  0.44311871604E-01  0.35000000149E-01 0.  1.
</event>
<event>
 4   0  0.4334200E-01  0.9118800E+02  0.7818609E-02  0.1379984E+01
      -11   -1    0    0    0    0  0.00000000000E+00  0.00000000000E+00  0.35740347158E-01  0.35744000000E-01  0.51099999109E-03 0.  1.
       11   -1    0    0    0    0 -0.00000000000E+00 -0.00000000000E+00 -0.35740347158E-01  0.35744000000E-01  0.51099999109E-03 0. -1.
       22    1    1    2    0    0  0.15630499919E-01 -0.27585182728E-02 -0.22059465175E-01  0.27176128396E-01  0.00000000000E+00 0. -1.
  9000001    1    1    2    0    0 -0.15630499919E-01  0.27585182728E-02  0.22059465175E-01  0.44311871604E-01  0.35000000149E-01 0.  1.
</event>
<event>
 4   0  0.4334200E-01  0.9118800E+02  0.7818609E-02  0.1379984E+01
      -11   -1    0    0    0    0  0.00000000000E+00  0.00000000000E+00  0.35740347158E-01  0.35744000000E-01  0.51099999109E-03 0.  1.
       11   -1    0    0    0    0 -0.00000000000E+00 -0.00000000000E+00 -0.35740347158E-01  0.35744000000E-01  0.51099999109E-03 0. -1.
       22    1    1    2    0    0 -0.13226137011E-01  0.50499055973E-02 -0.23197191809E-01  0.27176128396E-01  0.00000000000E+00 0. -1.
  9000001    1    1    2    0    0  0.13226137011E-01 -0.50499055973E-02  0.23197191809E-01  0.44311871604E-01  0.35000000149E-01 0.  1.
</event>
<event>
 4   0  0.4334200E-01  0.9118800E+02  0.7818609E-02  0.1379984E+01
      -11   -1    0    0    0    0  0.00000000000E+00  0.00000000000E+00  0.35740347158E-01  0.35744000000E-01  0.51099999109E-03 0. -1.
       11   -1    0    0    0    0 -0.00000000000E+00 -0.00000000000E+00 -0.35740347158E-01  0.35744000000E-01  0.51099999109E-03 0.  1.
       22    1    1    2    0    0  0.26900138311E-02  0.14216128474E-01  0.23004509806E-01  0.27176128396E-01  0.00000000000E+00 0. -1.
  9000001    1    1    2    0    0 -0.26900138311E-02 -0.14216128474E-01 -0.23004509806E-01  0.44311871604E-01  0.35000000149E-01 0.  1.
</event>
<event>
 4   0  0.4334200E-01  0.9118800E+02  0.7818609E-02  0.1379984E+01
      -11   -1    0    0    0    0  0.00000000000E+00  0.00000000000E+00  0.35740347158E-01  0.35744000000E-01  0.51099999109E-03 0.  1.
       11   -1    0    0    0    0 -0.00000000000E+00 -0.00000000000E+00 -0.35740347158E-01  0.35744000000E-01  0.51099999109E-03 0. -1.
       22    1    1    2    0    0  0.10646945186E-01 -0.51440162004E-02 -0.24468829358E-01  0.27176128396E-01  0.00000000000E+00 0. -1.
  9000001    1    1    2    0    0 -0.10646945186E-01  0.51440162004E-02  0.24468829358E-01  0.44311871604E-01  0.35000000149E-01 0.  1.
</event>
<event>
 4   0  0.4334200E-01  0.9118800E+02  0.7818609E-02  0.1379984E+01
      -11   -1    0    0    0    0  0.00000000000E+00  0.00000000000E+00  0.35740347158E-01  0.35744000000E-01  0.51099999109E-03 0.  1.
       11   -1    0    0    0    0 -0.00000000000E+00 -0.00000000000E+00 -0.35740347158E-01  0.35744000000E-01  0.51099999109E-03 0. -1.
       22    1    1    2    0    0 -0.24915085387E-02 -0.49186716743E-02  0.26610918976E-01  0.27176128396E-01  0.00000000000E+00 0.  1.
  9000001    1    1    2    0    0  0.24915085387E-02  0.49186716743E-02 -0.26610918976E-01  0.44311871604E-01  0.35000000149E-01 0. -1.
</event>
<event>
 4   0  0.4334200E-01  0.9118800E+02  0.7818609E-02  0.1379984E+01
      -11   -1    0    0    0    0  0.00000000000E+00  0.00000000000E+00  0.35740347158E-01  0.35744000000E-01  0.51099999109E-03 0. -1.
       11   -1    0    0    0    0 -0.00000000000E+00 -0.00000000000E+00 -0.35740347158E-01  0.35744000000E-01  0.51099999109E-03 0.  1.
       22    1    1    2    0    0  0.27662522758E-02 -0.98642197605E-02  0.25171153559E-01  0.27176128396E-01  0.00000000000E+00 0. -1.
  9000001    1    1    2    0    0 -0.27662522758E-02  0.98642197605E-02 -0.25171153559E-01  0.44311871604E-01  0.35000000149E-01 0.  1.
</event>
<event>
 4   0  0.4334200E-01  0.9118800E+02  0.7818609E-02  0.1379984E+01
      -11   -1    0    0    0    0  0.00000000000E+00  0.00000000000E+00  0.35740347158E-01  0.35744000000E-01  0.51099999109E-03 0. -1.
       11   -1    0    0    0    0 -0.00000000000E+00 -0.00000000000E+00 -0.35740347158E-01  0.35744000000E-01  0.51099999109E-03 0.  1.
       22    1    1    2    0    0  0.40129137430E-02 -0.22235740904E-01  0.15100010078E-01  0.27176128396E-01  0.00000000000E+00 0.  1.
  9000001    1    1    2    0    0 -0.40129137430E-02  0.22235740904E-01 -0.15100010078E-01  0.44311871604E-01  0.35000000149E-01 0.  0.
</event>
<event>
 4   0  0.4334200E-01  0.9118800E+02  0.7818609E-02  0.1379984E+01
      -11   -1    0    0    0    0  0.00000000000E+00  0.00000000000E+00  0.35740347158E-01  0.35744000000E-01  0.51099999109E-03 0. -1.
       11   -1    0    0    0    0 -0.00000000000E+00 -0.00000000000E+00 -0.35740347158E-01  0.35744000000E-01  0.51099999109E-03 0.  1.
       22    1    1    2    0    0 -0.64486740691E-02 -0.17805833259E-01  0.19491250840E-01  0.27176128396E-01  0.00000000000E+00 0.  1.
  9000001    1    1    2    0    0  0.64486740691E-02  0.17805833259E-01 -0.19491250840E-01  0.44311871604E-01  0.35000000149E-01 0. -1.
</event>
<event>
 4   0  0.4334200E-01  0.9118800E+02  0.7818609E-02  0.1379984E+01
      -11   -1    0    0    0    0  0.00000000000E+00  0.00000000000E+00  0.35740347158E-01  0.35744000000E-01  0.51099999109E-03 0.  1.
       11   -1    0    0    0    0 -0.00000000000E+00 -0.00000000000E+00 -0.35740347158E-01  0.35744000000E-01  0.51099999109E-03 0. -1.
       22    1    1    2    0    0  0.43234449463E-02 -0.45354352406E-02  0.26443895431E-01  0.27176128396E-01  0.00000000000E+00 0.  1.
  9000001    1    1    2    0    0 -0.43234449463E-02  0.45354352406E-02 -0.26443895431E-01  0.44311871604E-01  0.35000000149E-01 0. -1.
</event>
<event>
 4   0  0.4334200E-01  0.9118800E+02  0.7818609E-02  0.1379984E+01
      -11   -1    0    0    0    0  0.00000000000E+00  0.00000000000E+00  0.35740347158E-01  0.35744000000E-01  0.51099999109E-03 0.  1.
       11   -1    0    0    0    0 -0.00000000000E+00 -0.00000000000E+00 -0.35740347158E-01  0.35744000000E-01  0.51099999109E-03 0. -1.
       22    1    1    2    0    0  0.78420175019E-02 -0.80386044891E-02 -0.24747233259E-01  0.27176128396E-01  0.00000000000E+00 0. -1.
  9000001    1    1    2    0    0 -0.78420175019E-02  0.80386044891E-02  0.24747233259E-01  0.44311871604E-01  0.35000000149E-01 0.  1.
</event>
<event>
 4   0  0.4334200E-01  0.9118800E+02  0.7818609E-02  0.1379984E+01
      -11   -1    0    0    0    0  0.00000000000E+00  0.00000000000E+00  0.35740347158E-01  0.35744000000E-01  0.51099999109E-03 0. -1.
       11   -1    0    0    0    0 -0.00000000000E+00 -0.00000000000E+00 -0.35740347158E-01  0.35744000000E-01  0.51099999109E-03 0.  1.
       22    1    1    2    0    0  0.14936547163E-01 -0.24820688337E-02  0.22567251666E-01  0.27176128396E-01  0.00000000000E+00 0. -1.
  9000001    1    1    2    0    0 -0.14936547163E-01  0.24820688337E-02 -0.22567251666E-01  0.44311871604E-01  0.35000000149E-01 0.  1.
</event>
<event>
 4   0  0.4334200E-01  0.9118800E+02  0.7818609E-02  0.1379984E+01
      -11   -1    0    0    0    0  0.00000000000E+00  0.00000000000E+00  0.35740347158E-01  0.35744000000E-01  0.51099999109E-03 0. -1.
       11   -1    0    0    0    0 -0.00000000000E+00 -0.00000000000E+00 -0.35740347158E-01  0.35744000000E-01  0.51099999109E-03 0.  1.
       22    1    1    2    0    0  0.11519405089E-01 -0.29847799634E-02 -0.24432280892E-01  0.27176128396E-01  0.00000000000E+00 0.  1.
  9000001    1    1    2    0    0 -0.11519405089E-01  0.29847799634E-02  0.24432280892E-01  0.44311871604E-01  0.35000000149E-01 0. -1.
</event>
<event>
 4   0  0.4334200E-01  0.9118800E+02  0.7818609E-02  0.1379984E+01
      -11   -1    0    0    0    0  0.00000000000E+00  0.00000000000E+00  0.35740347158E-01  0.35744000000E-01  0.51099999109E-03 0. -1.
       11   -1    0    0    0    0 -0.00000000000E+00 -0.00000000000E+00 -0.35740347158E-01  0.35744000000E-01  0.51099999109E-03 0.  1.
       22    1    1    2    0    0 -0.25645892127E-01 -0.37274787760E-02  0.81814469115E-02  0.27176128396E-01  0.00000000000E+00 0. -1.
  9000001    1    1    2    0    0  0.25645892127E-01  0.37274787760E-02 -0.81814469115E-02  0.44311871604E-01  0.35000000149E-01 0.  1.
</event>
<event>
 4   0  0.4334200E-01  0.9118800E+02  0.7818609E-02  0.1379984E+01
      -11   -1    0    0    0    0  0.00000000000E+00  0.00000000000E+00  0.35740347158E-01  0.35744000000E-01  0.51099999109E-03 0. -1.
       11   -1    0    0    0    0 -0.00000000000E+00 -0.00000000000E+00 -0.35740347158E-01  0.35744000000E-01  0.51099999109E-03 0.  1.
       22    1    1    2    0    0 -0.32029211592E-02 -0.40334057202E-02 -0.26683607120E-01  0.27176128396E-01  0.00000000000E+00 0.  1.
  9000001    1    1    2    0    0  0.32029211592E-02  0.40334057202E-02  0.26683607120E-01  0.44311871604E-01  0.35000000149E-01 0. -1.
</event>
<event>
 4   0  0.4334200E-01  0.9118800E+02  0.7818609E-02  0.1379984E+01
      -11   -1    0    0    0    0  0.00000000000E+00  0.00000000000E+00  0.35740347158E-01  0.35744000000E-01  0.51099999109E-03 0.  1.
       11   -1    0    0    0    0 -0.00000000000E+00 -0.00000000000E+00 -0.35740347158E-01  0.35744000000E-01  0.51099999109E-03 0. -1.
       22    1    1    2    0    0 -0.42116751619E-02 -0.20889850378E-02  0.26766394760E-01  0.27176128396E-01  0.00000000000E+00 0.  1.
  9000001    1    1    2    0    0  0.42116751619E-02  0.20889850378E-02 -0.26766394760E-01  0.44311871604E-01  0.35000000149E-01 0. -1.
</event>
<event>
 4   0  0.4334200E-01  0.9118800E+02  0.7818609E-02  0.1379984E+01
      -11   -1    0    0    0    0  0.00000000000E+00  0.00000000000E+00  0.35740347158E-01  0.35744000000E-01  0.51099999109E-03 0.  1.
       11   -1    0    0    0    0 -0.00000000000E+00 -0.00000000000E+00 -0.35740347158E-01  0.35744000000E-01  0.51099999109E-03 0. -1.
       22    1    1    2    0    0  0.37596683048E-02 -0.29054163195E-02 -0.26757529872E-01  0.27176128396E-01  0.00000000000E+00 0. -1.
  9000001    1    1    2    0    0 -0.37596683048E-02  0.29054163195E-02  0.26757529872E-01  0.44311871604E-01  0.35000000149E-01 0.  1.
</event>
<event>
 4   0  0.4334200E-01  0.9118800E+02  0.7818609E-02  0.1379984E+01
      -11   -1    0    0    0    0  0.00000000000E+00  0.00000000000E+00  0.35740347158E-01  0.35744000000E-01  0.51099999109E-03 0.  1.
       11   -1    0    0    0    0 -0.00000000000E+00 -0.00000000000E+00 -0.35740347158E-01  0.35744000000E-01  0.51099999109E-03 0. -1.
       22    1    1    2    0    0 -0.12755361983E-02  0.21806585968E-01 -0.16167491160E-01  0.27176128396E-01  0.00000000000E+00 0. -1.
  9000001    1    1    2    0    0  0.12755361983E-02 -0.21806585968E-01  0.16167491160E-01  0.44311871604E-01  0.35000000149E-01 0.  1.
</event>
<event>
 4   0  0.4334200E-01  0.9118800E+02  0.7818609E-02  0.1379984E+01
      -11   -1    0    0    0    0  0.00000000000E+00  0.00000000000E+00  0.35740347158E-01  0.35744000000E-01  0.51099999109E-03 0.  1.
       11   -1    0    0    0    0 -0.00000000000E+00 -0.00000000000E+00 -0.35740347158E-01  0.35744000000E-01  0.51099999109E-03 0. -1.
       22    1    1    2    0    0 -0.18472968459E-01  0.43865761078E-02 -0.19443490967E-01  0.27176128396E-01  0.00000000000E+00 0. -1.
  9000001    1    1    2    0    0  0.18472968459E-01 -0.43865761078E-02  0.19443490967E-01  0.44311871604E-01  0.35000000149E-01 0.  1.
</event>
<event>
 4   0  0.4334200E-01  0.9118800E+02  0.7818609E-02  0.1379984E+01
      -11   -1    0    0    0    0  0.00000000000E+00  0.00000000000E+00  0.35740347158E-01  0.35744000000E-01  0.51099999109E-03 0.  1.
       11   -1    0    0    0    0 -0.00000000000E+00 -0.00000000000E+00 -0.35740347158E-01  0.35744000000E-01  0.51099999109E-03 0. -1.
       22    1    1    2    0    0 -0.83984957271E-03 -0.35580054447E-02 -0.26929114441E-01  0.27176128396E-01  0.00000000000E+00 0. -1.
  9000001    1    1    2    0    0  0.83984957271E-03  0.35580054447E-02  0.26929114441E-01  0.44311871604E-01  0.35000000149E-01 0.  1.
</event>
<event>
 4   0  0.4334200E-01  0.9118800E+02  0.7818609E-02  0.1379984E+01
      -11   -1    0    0    0    0  0.00000000000E+00  0.00000000000E+00  0.35740347158E-01  0.35744000000E-01  0.51099999109E-03 0. -1.
       11   -1    0    0    0    0 -0.00000000000E+00 -0.00000000000E+00 -0.35740347158E-01  0.35744000000E-01  0.51099999109E-03 0.  1.
       22    1    1    2    0    0 -0.20980356166E-01 -0.99945935352E-03 -0.17244352431E-01  0.27176128396E-01  0.00000000000E+00 0. -1.
  9000001    1    1    2    0    0  0.20980356166E-01  0.99945935352E-03  0.17244352431E-01  0.44311871604E-01  0.35000000149E-01 0.  0.
</event>
<event>
 4   0  0.4334200E-01  0.9118800E+02  0.7818609E-02  0.1379984E+01
      -11   -1    0    0    0    0  0.00000000000E+00  0.00000000000E+00  0.35740347158E-01  0.35744000000E-01  0.51099999109E-03 0. -1.
       11   -1    0    0    0    0 -0.00000000000E+00 -0.00000000000E+00 -0.35740347158E-01  0.35744000000E-01  0.51099999109E-03 0.  1.
       22    1    1    2    0    0  0.16995348454E-02  0.71329387384E-02 -0.26168200566E-01  0.27176128396E-01  0.00000000000E+00 0. -1.
  9000001    1    1    2    0    0 -0.16995348454E-02 -0.71329387384E-02  0.26168200566E-01  0.44311871604E-01  0.35000000149E-01 0.  0.
</event>
<event>
 4   0  0.4334200E-01  0.9118800E+02  0.7818609E-02  0.1379984E+01
      -11   -1    0    0    0    0  0.00000000000E+00  0.00000000000E+00  0.35740347158E-01  0.35744000000E-01  0.51099999109E-03 0. -1.
       11   -1    0    0    0    0 -0.00000000000E+00 -0.00000000000E+00 -0.35740347158E-01  0.35744000000E-01  0.51099999109E-03 0.  1.
       22    1    1    2    0    0  0.55662884688E-02 -0.13102303640E-02 -0.26567681187E-01  0.27176128396E-01  0.00000000000E+00 0.  1.
  9000001    1    1    2    0    0 -0.55662884688E-02  0.13102303640E-02  0.26567681187E-01  0.44311871604E-01  0.35000000149E-01 0. -1.
</event>
<event>
 4   0  0.4334200E-01  0.9118800E+02  0.7818609E-02  0.1379984E+01
      -11   -1    0    0    0    0  0.00000000000E+00  0.00000000000E+00  0.35740347158E-01  0.35744000000E-01  0.51099999109E-03 0. -1.
       11   -1    0    0    0    0 -0.00000000000E+00 -0.00000000000E+00 -0.35740347158E-01  0.35744000000E-01  0.51099999109E-03 0.  1.
       22    1    1    2    0    0  0.60389528305E-02 -0.16508429237E-02 -0.26445183322E-01  0.27176128396E-01  0.00000000000E+00 0. -1.
  9000001    1    1    2    0    0 -0.60389528305E-02  0.16508429237E-02  0.26445183322E-01  0.44311871604E-01  0.35000000149E-01 0. -1.
</event>
<event>
 4   0  0.4334200E-01  0.9118800E+02  0.7818609E-02  0.1379984E+01
      -11   -1    0    0    0    0  0.00000000000E+00  0.00000000000E+00  0.35740347158E-01  0.35744000000E-01  0.51099999109E-03 0. -1.
       11   -1    0    0    0    0 -0.00000000000E+00 -0.00000000000E+00 -0.35740347158E-01  0.35744000000E-01  0.51099999109E-03 0.  1.
       22    1    1    2    0    0 -0.18892689528E-02  0.23259864246E-01 -0.13926641112E-01  0.27176128396E-01  0.00000000000E+00 0.  1.
  9000001    1    1    2    0    0  0.18892689528E-02 -0.23259864246E-01  0.13926641112E-01  0.44311871604E-01  0.35000000149E-01 0. -1.
</event>
<event>
 4   0  0.4334200E-01  0.9118800E+02  0.7818609E-02  0.1379984E+01
      -11   -1    0    0    0    0  0.00000000000E+00  0.00000000000E+00  0.35740347158E-01  0.35744000000E-01  0.51099999109E-03 0.  1.
       11   -1    0    0    0    0 -0.00000000000E+00 -0.00000000000E+00 -0.35740347158E-01  0.35744000000E-01  0.51099999109E-03 0. -1.
       22    1    1    2    0    0 -0.18385783580E-02  0.65474442787E-02 -0.26311452975E-01  0.27176128396E-01  0.00000000000E+00 0. -1.
  9000001    1    1    2    0    0  0.18385783580E-02 -0.65474442787E-02  0.26311452975E-01  0.44311871604E-01  0.35000000149E-01 0.  1.
</event>
<event>
 4   0  0.4334200E-01  0.9118800E+02  0.7818609E-02  0.1379984E+01
      -11   -1    0    0    0    0  0.00000000000E+00  0.00000000000E+00  0.35740347158E-01  0.35744000000E-01  0.51099999109E-03 0. -1.
       11   -1    0    0    0    0 -0.00000000000E+00 -0.00000000000E+00 -0.35740347158E-01  0.35744000000E-01  0.51099999109E-03 0.  1.
       22    1    1    2    0    0 -0.36084125627E-02 -0.31719377794E-02 -0.26748086363E-01  0.27176128396E-01  0.00000000000E+00 0. -1.
  9000001    1    1    2    0    0  0.36084125627E-02  0.31719377794E-02  0.26748086363E-01  0.44311871604E-01  0.35000000149E-01 0. -1.
</event>
<event>
 4   0  0.4334200E-01  0.9118800E+02  0.7818609E-02  0.1379984E+01
      -11   -1    0    0    0    0  0.00000000000E+00  0.00000000000E+00  0.35740347158E-01  0.35744000000E-01  0.51099999109E-03 0. -1.
       11   -1    0    0    0    0 -0.00000000000E+00 -0.00000000000E+00 -0.35740347158E-01  0.35744000000E-01  0.51099999109E-03 0.  1.
       22    1    1    2    0    0 -0.74634097198E-02 -0.11991646350E-02 -0.26103667829E-01  0.27176128396E-01  0.00000000000E+00 0.  1.
  9000001    1    1    2    0    0  0.74634097198E-02  0.11991646350E-02  0.26103667829E-01  0.44311871604E-01  0.35000000149E-01 0. -1.
</event>
<event>
 4   0  0.4334200E-01  0.9118800E+02  0.7818609E-02  0.1379984E+01
      -11   -1    0    0    0    0  0.00000000000E+00  0.00000000000E+00  0.35740347158E-01  0.35744000000E-01  0.51099999109E-03 0. -1.
       11   -1    0    0    0    0 -0.00000000000E+00 -0.00000000000E+00 -0.35740347158E-01  0.35744000000E-01  0.51099999109E-03 0.  1.
       22    1    1    2    0    0  0.30641521933E-02 -0.67215053660E-02  0.26152902163E-01  0.27176128396E-01  0.00000000000E+00 0. -1.
  9000001    1    1    2    0    0 -0.30641521933E-02  0.67215053660E-02 -0.26152902163E-01  0.44311871604E-01  0.35000000149E-01 0.  1.
</event>
<event>
 4   0  0.4334200E-01  0.9118800E+02  0.7818609E-02  0.1379984E+01
      -11   -1    0    0    0    0  0.00000000000E+00  0.00000000000E+00  0.35740347158E-01  0.35744000000E-01  0.51099999109E-03 0. -1.
       11   -1    0    0    0    0 -0.00000000000E+00 -0.00000000000E+00 -0.35740347158E-01  0.35744000000E-01  0.51099999109E-03 0.  1.
       22    1    1    2    0    0 -0.35495238499E-02 -0.26370491764E-02 -0.26813966635E-01  0.27176128396E-01  0.00000000000E+00 0. -1.
  9000001    1    1    2    0    0  0.35495238499E-02  0.26370491764E-02  0.26813966635E-01  0.44311871604E-01  0.35000000149E-01 0. -1.
</event>
<event>
 4   0  0.4334200E-01  0.9118800E+02  0.7818609E-02  0.1379984E+01
      -11   -1    0    0    0    0  0.00000000000E+00  0.00000000000E+00  0.35740347158E-01  0.35744000000E-01  0.51099999109E-03 0.  1.
       11   -1    0    0    0    0 -0.00000000000E+00 -0.00000000000E+00 -0.35740347158E-01  0.35744000000E-01  0.51099999109E-03 0. -1.
       22    1    1    2    0    0  0.90579187201E-02 -0.12110563685E-02  0.25593542262E-01  0.27176128396E-01  0.00000000000E+00 0.  1.
  9000001    1    1    2    0    0 -0.90579187201E-02  0.12110563685E-02 -0.25593542262E-01  0.44311871604E-01  0.35000000149E-01 0. -1.
</event>
<event>
 4   0  0.4334200E-01  0.9118800E+02  0.7818609E-02  0.1379984E+01
      -11   -1    0    0    0    0  0.00000000000E+00  0.00000000000E+00  0.35740347158E-01  0.35744000000E-01  0.51099999109E-03 0.  1.
       11   -1    0    0    0    0 -0.00000000000E+00 -0.00000000000E+00 -0.35740347158E-01  0.35744000000E-01  0.51099999109E-03 0. -1.
       22    1    1    2    0    0  0.56074411672E-02  0.41500037168E-02 -0.26265491187E-01  0.27176128396E-01  0.00000000000E+00 0. -1.
  9000001    1    1    2    0    0 -0.56074411672E-02 -0.41500037168E-02  0.26265491187E-01  0.44311871604E-01  0.35000000149E-01 0.  1.
</event>
<event>
 4   0  0.4334200E-01  0.9118800E+02  0.7818609E-02  0.1379984E+01
      -11   -1    0    0    0    0  0.00000000000E+00  0.00000000000E+00  0.35740347158E-01  0.35744000000E-01  0.51099999109E-03 0. -1.
       11   -1    0    0    0    0 -0.00000000000E+00 -0.00000000000E+00 -0.35740347158E-01  0.35744000000E-01  0.51099999109E-03 0.  1.
       22    1    1    2    0    0  0.13479050158E-01 -0.25347677090E-02  0.23461289694E-01  0.27176128396E-01  0.00000000000E+00 0. -1.
  9000001    1    1    2    0    0 -0.13479050158E-01  0.25347677090E-02 -0.23461289694E-01  0.44311871604E-01  0.35000000149E-01 0.  1.
</event>
<event>
 4   0  0.4334200E-01  0.9118800E+02  0.7818609E-02  0.1379984E+01
      -11   -1    0    0    0    0  0.00000000000E+00  0.00000000000E+00  0.35740347158E-01  0.35744000000E-01  0.51099999109E-03 0. -1.
       11   -1    0    0    0    0 -0.00000000000E+00 -0.00000000000E+00 -0.35740347158E-01  0.35744000000E-01  0.51099999109E-03 0.  1.
       22    1    1    2    0    0 -0.26955705018E-01  0.20838017089E-02 -0.27549395663E-02  0.27176128396E-01  0.00000000000E+00 0.  1.
  9000001    1    1    2    0    0  0.26955705018E-01 -0.20838017089E-02  0.27549395663E-02  0.44311871604E-01  0.35000000149E-01 0. -1.
</event>
<event>
 4   0  0.4334200E-01  0.9118800E+02  0.7818609E-02  0.1379984E+01
      -11   -1    0    0    0    0  0.00000000000E+00  0.00000000000E+00  0.35740347158E-01  0.35744000000E-01  0.51099999109E-03 0.  1.
       11   -1    0    0    0    0 -0.00000000000E+00 -0.00000000000E+00 -0.35740347158E-01  0.35744000000E-01  0.51099999109E-03 0. -1.
       22    1    1    2    0    0  0.82046953519E-02  0.82163747109E-02 -0.24570635226E-01  0.27176128396E-01  0.00000000000E+00 0. -1.
  9000001    1    1    2    0    0 -0.82046953519E-02 -0.82163747109E-02  0.24570635226E-01  0.44311871604E-01  0.35000000149E-01 0.  1.
</event>
<event>
 4   0  0.4334200E-01  0.9118800E+02  0.7818609E-02  0.1379984E+01
      -11   -1    0    0    0    0  0.00000000000E+00  0.00000000000E+00  0.35740347158E-01  0.35744000000E-01  0.51099999109E-03 0. -1.
       11   -1    0    0    0    0 -0.00000000000E+00 -0.00000000000E+00 -0.35740347158E-01  0.35744000000E-01  0.51099999109E-03 0.  1.
       22    1    1    2    0    0  0.46239708524E-02  0.56500287777E-03 -0.26773898108E-01  0.27176128396E-01  0.00000000000E+00 0.  1.
  9000001    1    1    2    0    0 -0.46239708524E-02 -0.56500287777E-03  0.26773898108E-01  0.44311871604E-01  0.35000000149E-01 0. -1.
</event>
<event>
 4   0  0.4334200E-01  0.9118800E+02  0.7818609E-02  0.1379984E+01
      -11   -1    0    0    0    0  0.00000000000E+00  0.00000000000E+00  0.35740347158E-01  0.35744000000E-01  0.51099999109E-03 0. -1.
       11   -1    0    0    0    0 -0.00000000000E+00 -0.00000000000E+00 -0.35740347158E-01  0.35744000000E-01  0.51099999109E-03 0.  1.
       22    1    1    2    0    0 -0.11837724030E-01 -0.20899349376E-01  0.12713278101E-01  0.27176128396E-01  0.00000000000E+00 0. -1.
  9000001    1    1    2    0    0  0.11837724030E-01  0.20899349376E-01 -0.12713278101E-01  0.44311871604E-01  0.35000000149E-01 0.  1.
</event>
<event>
 4   0  0.4334200E-01  0.9118800E+02  0.7818609E-02  0.1379984E+01
      -11   -1    0    0    0    0  0.00000000000E+00  0.00000000000E+00  0.35740347158E-01  0.35744000000E-01  0.51099999109E-03 0. -1.
       11   -1    0    0    0    0 -0.00000000000E+00 -0.00000000000E+00 -0.35740347158E-01  0.35744000000E-01  0.51099999109E-03 0.  1.
       22    1    1    2    0    0 -0.17294722566E-01  0.17117669762E-01  0.12100409410E-01  0.27176128396E-01  0.00000000000E+00 0.  1.
  9000001    1    1    2    0    0  0.17294722566E-01 -0.17117669762E-01 -0.12100409410E-01  0.44311871604E-01  0.35000000149E-01 0.  1.
</event>
<event>
 4   0  0.4334200E-01  0.9118800E+02  0.7818609E-02  0.1379984E+01
      -11   -1    0    0    0    0  0.00000000000E+00  0.00000000000E+00  0.35740347158E-01  0.35744000000E-01  0.51099999109E-03 0.  1.
       11   -1    0    0    0    0 -0.00000000000E+00 -0.00000000000E+00 -0.35740347158E-01  0.35744000000E-01  0.51099999109E-03 0. -1.
       22    1    1    2    0    0 -0.34664695384E-02 -0.40041845794E-05  0.26954137484E-01  0.27176128396E-01  0.00000000000E+00 0.  1.
  9000001    1    1    2    0    0  0.34664695384E-02  0.40041845794E-05 -0.26954137484E-01  0.44311871604E-01  0.35000000149E-01 0. -1.
</event>
<event>
 4   0  0.4334200E-01  0.9118800E+02  0.7818609E-02  0.1379984E+01
      -11   -1    0    0    0    0  0.00000000000E+00  0.00000000000E+00  0.35740347158E-01  0.35744000000E-01  0.51099999109E-03 0.  1.
       11   -1    0    0    0    0 -0.00000000000E+00 -0.00000000000E+00 -0.35740347158E-01  0.35744000000E-01  0.51099999109E-03 0. -1.
       22    1    1    2    0    0  0.16618933306E-01 -0.84599186154E-02  0.19768226714E-01  0.27176128396E-01  0.00000000000E+00 0.  1.
  9000001    1    1    2    0    0 -0.16618933306E-01  0.84599186154E-02 -0.19768226714E-01  0.44311871604E-01  0.35000000149E-01 0. -1.
</event>
<event>
 4   0  0.4334200E-01  0.9118800E+02  0.7818609E-02  0.1379984E+01
      -11   -1    0    0    0    0  0.00000000000E+00  0.00000000000E+00  0.35740347158E-01  0.35744000000E-01  0.51099999109E-03 0. -1.
       11   -1    0    0    0    0 -0.00000000000E+00 -0.00000000000E+00 -0.35740347158E-01  0.35744000000E-01  0.51099999109E-03 0.  1.
       22    1    1    2    0    0  0.14194591077E-03 -0.38652198212E-02  0.26899477350E-01  0.27176128396E-01  0.00000000000E+00 0. -1.
  9000001    1    1    2    0    0 -0.14194591077E-03  0.38652198212E-02 -0.26899477350E-01  0.44311871604E-01  0.35000000149E-01 0.  1.
</event>
<event>
 4   0  0.4334200E-01  0.9118800E+02  0.7818609E-02  0.1379984E+01
      -11   -1    0    0    0    0  0.00000000000E+00  0.00000000000E+00  0.35740347158E-01  0.35744000000E-01  0.51099999109E-03 0. -1.
       11   -1    0    0    0    0 -0.00000000000E+00 -0.00000000000E+00 -0.35740347158E-01  0.35744000000E-01  0.51099999109E-03 0.  1.
       22    1    1    2    0    0  0.35324423874E-03  0.70501363022E-02  0.26243337273E-01  0.27176128396E-01  0.00000000000E+00 0. -1.
  9000001    1    1    2    0    0 -0.35324423874E-03 -0.70501363022E-02 -0.26243337273E-01  0.44311871604E-01  0.35000000149E-01 0.  1.
</event>
<event>
 4   0  0.4334200E-01  0.9118800E+02  0.7818609E-02  0.1379984E+01
      -11   -1    0    0    0    0  0.00000000000E+00  0.00000000000E+00  0.35740347158E-01  0.35744000000E-01  0.51099999109E-03 0.  1.
       11   -1    0    0    0    0 -0.00000000000E+00 -0.00000000000E+00 -0.35740347158E-01  0.35744000000E-01  0.51099999109E-03 0. -1.
       22    1    1    2    0    0  0.27583838176E-02  0.88848671548E-02  0.25534142025E-01  0.27176128396E-01  0.00000000000E+00 0.  1.
  9000001    1    1    2    0    0 -0.27583838176E-02 -0.88848671548E-02 -0.25534142025E-01  0.44311871604E-01  0.35000000149E-01 0. -1.
</event>
<event>
 4   0  0.4334200E-01  0.9118800E+02  0.7818609E-02  0.1379984E+01
      -11   -1    0    0    0    0  0.00000000000E+00  0.00000000000E+00  0.35740347158E-01  0.35744000000E-01  0.51099999109E-03 0.  1.
       11   -1    0    0    0    0 -0.00000000000E+00 -0.00000000000E+00 -0.35740347158E-01  0.35744000000E-01  0.51099999109E-03 0.  1.
       22    1    1    2    0    0  0.96898632756E-05 -0.16505696930E-01 -0.21589437917E-01  0.27176128396E-01  0.00000000000E+00 0.  1.
  9000001    1    1    2    0    0 -0.96898632756E-05  0.16505696930E-01  0.21589437917E-01  0.44311871604E-01  0.35000000149E-01 0.  1.
</event>
<event>
 4   0  0.4334200E-01  0.9118800E+02  0.7818609E-02  0.1379984E+01
      -11   -1    0    0    0    0  0.00000000000E+00  0.00000000000E+00  0.35740347158E-01  0.35744000000E-01  0.51099999109E-03 0. -1.
       11   -1    0    0    0    0 -0.00000000000E+00 -0.00000000000E+00 -0.35740347158E-01  0.35744000000E-01  0.51099999109E-03 0.  1.
       22    1    1    2    0    0 -0.11668468781E-01  0.32108361923E-02 -0.24332680121E-01  0.27176128396E-01  0.00000000000E+00 0.  1.
  9000001    1    1    2    0    0  0.11668468781E-01 -0.32108361923E-02  0.24332680121E-01  0.44311871604E-01  0.35000000149E-01 0. -1.
</event>
<event>
 4   0  0.4334200E-01  0.9118800E+02  0.7818609E-02  0.1379984E+01
      -11   -1    0    0    0    0  0.00000000000E+00  0.00000000000E+00  0.35740347158E-01  0.35744000000E-01  0.51099999109E-03 0. -1.
       11   -1    0    0    0    0 -0.00000000000E+00 -0.00000000000E+00 -0.35740347158E-01  0.35744000000E-01  0.51099999109E-03 0.  1.
       22    1    1    2    0    0  0.75565022354E-02  0.15424475123E-01  0.21060075872E-01  0.27176128396E-01  0.00000000000E+00 0. -1.
  9000001    1    1    2    0    0 -0.75565022354E-02 -0.15424475123E-01 -0.21060075872E-01  0.44311871604E-01  0.35000000149E-01 0.  1.
</event>
<event>
 4   0  0.4334200E-01  0.9118800E+02  0.7818609E-02  0.1379984E+01
      -11   -1    0    0    0    0  0.00000000000E+00  0.00000000000E+00  0.35740347158E-01  0.35744000000E-01  0.51099999109E-03 0.  1.
       11   -1    0    0    0    0 -0.00000000000E+00 -0.00000000000E+00 -0.35740347158E-01  0.35744000000E-01  0.51099999109E-03 0. -1.
       22    1    1    2    0    0  0.32261162999E-03 -0.39041884164E-02  0.26892288656E-01  0.27176128396E-01  0.00000000000E+00 0.  1.
  9000001    1    1    2    0    0 -0.32261162999E-03  0.39041884164E-02 -0.26892288656E-01  0.44311871604E-01  0.35000000149E-01 0. -1.
</event>
<event>
 4   0  0.4334200E-01  0.9118800E+02  0.7818609E-02  0.1379984E+01
      -11   -1    0    0    0    0  0.00000000000E+00  0.00000000000E+00  0.35740347158E-01  0.35744000000E-01  0.51099999109E-03 0.  1.
       11   -1    0    0    0    0 -0.00000000000E+00 -0.00000000000E+00 -0.35740347158E-01  0.35744000000E-01  0.51099999109E-03 0. -1.
       22    1    1    2    0    0 -0.26289228717E-02  0.67562869420E-02 -0.26191283014E-01  0.27176128396E-01  0.00000000000E+00 0. -1.
  9000001    1    1    2    0    0  0.26289228717E-02 -0.67562869420E-02  0.26191283014E-01  0.44311871604E-01  0.35000000149E-01 0.  1.
</event>
<event>
 4   0  0.4334200E-01  0.9118800E+02  0.7818609E-02  0.1379984E+01
      -11   -1    0    0    0    0  0.00000000000E+00  0.00000000000E+00  0.35740347158E-01  0.35744000000E-01  0.51099999109E-03 0. -1.
       11   -1    0    0    0    0 -0.00000000000E+00 -0.00000000000E+00 -0.35740347158E-01  0.35744000000E-01  0.51099999109E-03 0.  1.
       22    1    1    2    0    0  0.10306111801E-01  0.68439182259E-02 -0.24196834451E-01  0.27176128396E-01  0.00000000000E+00 0.  1.
  9000001    1    1    2    0    0 -0.10306111801E-01 -0.68439182259E-02  0.24196834451E-01  0.44311871604E-01  0.35000000149E-01 0. -1.
</event>
<event>
 4   0  0.4334200E-01  0.9118800E+02  0.7818609E-02  0.1379984E+01
      -11   -1    0    0    0    0  0.00000000000E+00  0.00000000000E+00  0.35740347158E-01  0.35744000000E-01  0.51099999109E-03 0.  1.
       11   -1    0    0    0    0 -0.00000000000E+00 -0.00000000000E+00 -0.35740347158E-01  0.35744000000E-01  0.51099999109E-03 0. -1.
       22    1    1    2    0    0  0.50921959385E-02 -0.54136528867E-03  0.26689294085E-01  0.27176128396E-01  0.00000000000E+00 0.  1.
  9000001    1    1    2    0    0 -0.50921959385E-02  0.54136528867E-03 -0.26689294085E-01  0.44311871604E-01  0.35000000149E-01 0. -1.
</event>
<event>
 4   0  0.4334200E-01  0.9118800E+02  0.7818609E-02  0.1379984E+01
      -11   -1    0    0    0    0  0.00000000000E+00  0.00000000000E+00  0.35740347158E-01  0.35744000000E-01  0.51099999109E-03 0.  1.
       11   -1    0    0    0    0 -0.00000000000E+00 -0.00000000000E+00 -0.35740347158E-01  0.35744000000E-01  0.51099999109E-03 0. -1.
       22    1    1    2    0    0 -0.36184385409E-02 -0.42904678238E-02  0.26590237738E-01  0.27176128396E-01  0.00000000000E+00 0.  1.
  9000001    1    1    2    0    0  0.36184385409E-02  0.42904678238E-02 -0.26590237738E-01  0.44311871604E-01  0.35000000149E-01 0. -1.
</event>
<event>
 4   0  0.4334200E-01  0.9118800E+02  0.7818609E-02  0.1379984E+01
      -11   -1    0    0    0    0  0.00000000000E+00  0.00000000000E+00  0.35740347158E-01  0.35744000000E-01  0.51099999109E-03 0.  1.
       11   -1    0    0    0    0 -0.00000000000E+00 -0.00000000000E+00 -0.35740347158E-01  0.35744000000E-01  0.51099999109E-03 0. -1.
       22    1    1    2    0    0 -0.18040357738E-02  0.39069423410E-02  0.26833248239E-01  0.27176128396E-01  0.00000000000E+00 0.  1.
  9000001    1    1    2    0    0  0.18040357738E-02 -0.39069423410E-02 -0.26833248239E-01  0.44311871604E-01  0.35000000149E-01 0. -1.
</event>
<event>
 4   0  0.4334200E-01  0.9118800E+02  0.7818609E-02  0.1379984E+01
      -11   -1    0    0    0    0  0.00000000000E+00  0.00000000000E+00  0.35740347158E-01  0.35744000000E-01  0.51099999109E-03 0. -1.
       11   -1    0    0    0    0 -0.00000000000E+00 -0.00000000000E+00 -0.35740347158E-01  0.35744000000E-01  0.51099999109E-03 0.  1.
       22    1    1    2    0    0  0.77133755322E-02 -0.13470793685E-01 -0.22306579971E-01  0.27176128396E-01  0.00000000000E+00 0.  1.
  9000001    1    1    2    0    0 -0.77133755322E-02  0.13470793685E-01  0.22306579971E-01  0.44311871604E-01  0.35000000149E-01 0. -1.
</event>
<event>
 4   0  0.4334200E-01  0.9118800E+02  0.7818609E-02  0.1379984E+01
      -11   -1    0    0    0    0  0.00000000000E+00  0.00000000000E+00  0.35740347158E-01  0.35744000000E-01  0.51099999109E-03 0.  1.
       11   -1    0    0    0    0 -0.00000000000E+00 -0.00000000000E+00 -0.35740347158E-01  0.35744000000E-01  0.51099999109E-03 0. -1.
       22    1    1    2    0    0 -0.23286199546E-01 -0.50652729914E-02 -0.13062843291E-01  0.27176128396E-01  0.00000000000E+00 0. -1.
  9000001    1    1    2    0    0  0.23286199546E-01  0.50652729914E-02  0.13062843291E-01  0.44311871604E-01  0.35000000149E-01 0.  1.
</event>
<event>
 4   0  0.4334200E-01  0.9118800E+02  0.7818609E-02  0.1379984E+01
      -11   -1    0    0    0    0  0.00000000000E+00  0.00000000000E+00  0.35740347158E-01  0.35744000000E-01  0.51099999109E-03 0.  1.
       11   -1    0    0    0    0 -0.00000000000E+00 -0.00000000000E+00 -0.35740347158E-01  0.35744000000E-01  0.51099999109E-03 0. -1.
       22    1    1    2    0    0 -0.21578675839E-01  0.10278810935E-02 -0.16487758007E-01  0.27176128396E-01  0.00000000000E+00 0.  1.
  9000001    1    1    2    0    0  0.21578675839E-01 -0.10278810935E-02  0.16487758007E-01  0.44311871604E-01  0.35000000149E-01 0.  0.
</event>
<event>
 4   0  0.4334200E-01  0.9118800E+02  0.7818609E-02  0.1379984E+01
      -11   -1    0    0    0    0  0.00000000000E+00  0.00000000000E+00  0.35740347158E-01  0.35744000000E-01  0.51099999109E-03 0.  1.
       11   -1    0    0    0    0 -0.00000000000E+00 -0.00000000000E+00 -0.35740347158E-01  0.35744000000E-01  0.51099999109E-03 0. -1.
       22    1    1    2    0    0 -0.21956546346E-01  0.15863843018E-01  0.21887237968E-02  0.27176128396E-01  0.00000000000E+00 0. -1.
  9000001    1    1    2    0    0  0.21956546346E-01 -0.15863843018E-01 -0.21887237968E-02  0.44311871604E-01  0.35000000149E-01 0.  1.
</event>
<event>
 4   0  0.4334200E-01  0.9118800E+02  0.7818609E-02  0.1379984E+01
      -11   -1    0    0    0    0  0.00000000000E+00  0.00000000000E+00  0.35740347158E-01  0.35744000000E-01  0.51099999109E-03 0. -1.
       11   -1    0    0    0    0 -0.00000000000E+00 -0.00000000000E+00 -0.35740347158E-01  0.35744000000E-01  0.51099999109E-03 0.  1.
       22    1    1    2    0    0 -0.44223064265E-02  0.62916233696E-02  0.26065314804E-01  0.27176128396E-01  0.00000000000E+00 0. -1.
  9000001    1    1    2    0    0  0.44223064265E-02 -0.62916233696E-02 -0.26065314804E-01  0.44311871604E-01  0.35000000149E-01 0.  1.
</event>
<event>
 4   0  0.4334200E-01  0.9118800E+02  0.7818609E-02  0.1379984E+01
      -11   -1    0    0    0    0  0.00000000000E+00  0.00000000000E+00  0.35740347158E-01  0.35744000000E-01  0.51099999109E-03 0.  1.
       11   -1    0    0    0    0 -0.00000000000E+00 -0.00000000000E+00 -0.35740347158E-01  0.35744000000E-01  0.51099999109E-03 0. -1.
       22    1    1    2    0    0  0.11982800667E-02  0.40342162059E-02 -0.26848299371E-01  0.27176128396E-01  0.00000000000E+00 0. -1.
  9000001    1    1    2    0    0 -0.11982800667E-02 -0.40342162059E-02  0.26848299371E-01  0.44311871604E-01  0.35000000149E-01 0.  1.
</event>
<event>
 4   0  0.4334200E-01  0.9118800E+02  0.7818609E-02  0.1379984E+01
      -11   -1    0    0    0    0  0.00000000000E+00  0.00000000000E+00  0.35740347158E-01  0.35744000000E-01  0.51099999109E-03 0.  1.
       11   -1    0    0    0    0 -0.00000000000E+00 -0.00000000000E+00 -0.35740347158E-01  0.35744000000E-01  0.51099999109E-03 0. -1.
       22    1    1    2    0    0  0.11568645525E-02 -0.33936504210E-02 -0.26938573753E-01  0.27176128396E-01  0.00000000000E+00 0. -1.
  9000001    1    1    2    0    0 -0.11568645525E-02  0.33936504210E-02  0.26938573753E-01  0.44311871604E-01  0.35000000149E-01 0.  1.
</event>
<event>
 4   0  0.4334200E-01  0.9118800E+02  0.7818609E-02  0.1379984E+01
      -11   -1    0    0    0    0  0.00000000000E+00  0.00000000000E+00  0.35740347158E-01  0.35744000000E-01  0.51099999109E-03 0.  1.
       11   -1    0    0    0    0 -0.00000000000E+00 -0.00000000000E+00 -0.35740347158E-01  0.35744000000E-01  0.51099999109E-03 0. -1.
       22    1    1    2    0    0 -0.11891963890E-01  0.58569719854E-02  0.23723807211E-01  0.27176128396E-01  0.00000000000E+00 0.  1.
  9000001    1    1    2    0    0  0.11891963890E-01 -0.58569719854E-02 -0.23723807211E-01  0.44311871604E-01  0.35000000149E-01 0. -1.
</event>
<event>
 4   0  0.4334200E-01  0.9118800E+02  0.7818609E-02  0.1379984E+01
      -11   -1    0    0    0    0  0.00000000000E+00  0.00000000000E+00  0.35740347158E-01  0.35744000000E-01  0.51099999109E-03 0. -1.
       11   -1    0    0    0    0 -0.00000000000E+00 -0.00000000000E+00 -0.35740347158E-01  0.35744000000E-01  0.51099999109E-03 0.  1.
       22    1    1    2    0    0 -0.79475048073E-04  0.23807633641E-01 -0.13104664007E-01  0.27176128396E-01  0.00000000000E+00 0.  1.
  9000001    1    1    2    0    0  0.79475048073E-04 -0.23807633641E-01  0.13104664007E-01  0.44311871604E-01  0.35000000149E-01 0. -1.
</event>
<event>
 4   0  0.4334200E-01  0.9118800E+02  0.7818609E-02  0.1379984E+01
      -11   -1    0    0    0    0  0.00000000000E+00  0.00000000000E+00  0.35740347158E-01  0.35744000000E-01  0.51099999109E-03 0. -1.
       11   -1    0    0    0    0 -0.00000000000E+00 -0.00000000000E+00 -0.35740347158E-01  0.35744000000E-01  0.51099999109E-03 0.  1.
       22    1    1    2    0    0  0.34673057494E-02  0.12380476300E-02  0.26925582324E-01  0.27176128396E-01  0.00000000000E+00 0. -1.
  9000001    1    1    2    0    0 -0.34673057494E-02 -0.12380476300E-02 -0.26925582324E-01  0.44311871604E-01  0.35000000149E-01 0.  1.
</event>
<event>
 4   0  0.4334200E-01  0.9118800E+02  0.7818609E-02  0.1379984E+01
      -11   -1    0    0    0    0  0.00000000000E+00  0.00000000000E+00  0.35740347158E-01  0.35744000000E-01  0.51099999109E-03 0. -1.
       11   -1    0    0    0    0 -0.00000000000E+00 -0.00000000000E+00 -0.35740347158E-01  0.35744000000E-01  0.51099999109E-03 0.  1.
       22    1    1    2    0    0  0.11620756789E-02  0.38278699918E-02  0.26880084562E-01  0.27176128396E-01  0.00000000000E+00 0. -1.
  9000001    1    1    2    0    0 -0.11620756789E-02 -0.38278699918E-02 -0.26880084562E-01  0.44311871604E-01  0.35000000149E-01 0.  1.
</event>
<event>
 4   0  0.4334200E-01  0.9118800E+02  0.7818609E-02  0.1379984E+01
      -11   -1    0    0    0    0  0.00000000000E+00  0.00000000000E+00  0.35740347158E-01  0.35744000000E-01  0.51099999109E-03 0. -1.
       11   -1    0    0    0    0 -0.00000000000E+00 -0.00000000000E+00 -0.35740347158E-01  0.35744000000E-01  0.51099999109E-03 0.  1.
       22    1    1    2    0    0  0.28062196405E-02 -0.62668371960E-02 -0.26294368931E-01  0.27176128396E-01  0.00000000000E+00 0.  1.
  9000001    1    1    2    0    0 -0.28062196405E-02  0.62668371960E-02  0.26294368931E-01  0.44311871604E-01  0.35000000149E-01 0. -1.
</event>
<event>
 4   0  0.4334200E-01  0.9118800E+02  0.7818609E-02  0.1379984E+01
      -11   -1    0    0    0    0  0.00000000000E+00  0.00000000000E+00  0.35740347158E-01  0.35744000000E-01  0.51099999109E-03 0.  1.
       11   -1    0    0    0    0 -0.00000000000E+00 -0.00000000000E+00 -0.35740347158E-01  0.35744000000E-01  0.51099999109E-03 0. -1.
       22    1    1    2    0    0 -0.11526362729E-01 -0.31185095116E-03 -0.24608690860E-01  0.27176128396E-01  0.00000000000E+00 0. -1.
  9000001    1    1    2    0    0  0.11526362729E-01  0.31185095116E-03  0.24608690860E-01  0.44311871604E-01  0.35000000149E-01 0.  1.
</event>
<event>
 4   0  0.4334200E-01  0.9118800E+02  0.7818609E-02  0.1379984E+01
      -11   -1    0    0    0    0  0.00000000000E+00  0.00000000000E+00  0.35740347158E-01  0.35744000000E-01  0.51099999109E-03 0.  1.
       11   -1    0    0    0    0 -0.00000000000E+00 -0.00000000000E+00 -0.35740347158E-01  0.35744000000E-01  0.51099999109E-03 0. -1.
       22    1    1    2    0    0  0.93320948365E-02  0.18533126018E-01  0.17549279204E-01  0.27176128396E-01  0.00000000000E+00 0.  1.
  9000001    1    1    2    0    0 -0.93320948365E-02 -0.18533126018E-01 -0.17549279204E-01  0.44311871604E-01  0.35000000149E-01 0. -1.
</event>
<event>
 4   0  0.4334200E-01  0.9118800E+02  0.7818609E-02  0.1379984E+01
      -11   -1    0    0    0    0  0.00000000000E+00  0.00000000000E+00  0.35740347158E-01  0.35744000000E-01  0.51099999109E-03 0. -1.
       11   -1    0    0    0    0 -0.00000000000E+00 -0.00000000000E+00 -0.35740347158E-01  0.35744000000E-01  0.51099999109E-03 0.  1.
       22    1    1    2    0    0 -0.78208456380E-02 -0.18282873446E-01  0.18523306041E-01  0.27176128396E-01  0.00000000000E+00 0. -1.
  9000001    1    1    2    0    0  0.78208456380E-02  0.18282873446E-01 -0.18523306041E-01  0.44311871604E-01  0.35000000149E-01 0.  1.
</event>
<event>
 4   0  0.4334200E-01  0.9118800E+02  0.7818609E-02  0.1379984E+01
      -11   -1    0    0    0    0  0.00000000000E+00  0.00000000000E+00  0.35740347158E-01  0.35744000000E-01  0.51099999109E-03 0. -1.
       11   -1    0    0    0    0 -0.00000000000E+00 -0.00000000000E+00 -0.35740347158E-01  0.35744000000E-01  0.51099999109E-03 0.  1.
       22    1    1    2    0    0  0.23490384635E-04  0.36069489072E-02 -0.26935688638E-01  0.27176128396E-01  0.00000000000E+00 0.  1.
  9000001    1    1    2    0    0 -0.23490384635E-04 -0.36069489072E-02  0.26935688638E-01  0.44311871604E-01  0.35000000149E-01 0. -1.
</event>
<event>
 4   0  0.4334200E-01  0.9118800E+02  0.7818609E-02  0.1379984E+01
      -11   -1    0    0    0    0  0.00000000000E+00  0.00000000000E+00  0.35740347158E-01  0.35744000000E-01  0.51099999109E-03 0. -1.
       11   -1    0    0    0    0 -0.00000000000E+00 -0.00000000000E+00 -0.35740347158E-01  0.35744000000E-01  0.51099999109E-03 0.  1.
       22    1    1    2    0    0  0.28189260001E-02  0.23474191000E-02 -0.26927406752E-01  0.27176128396E-01  0.00000000000E+00 0.  1.
  9000001    1    1    2    0    0 -0.28189260001E-02 -0.23474191000E-02  0.26927406752E-01  0.44311871604E-01  0.35000000149E-01 0. -1.
</event>
<event>
 4   0  0.4334200E-01  0.9118800E+02  0.7818609E-02  0.1379984E+01
      -11   -1    0    0    0    0  0.00000000000E+00  0.00000000000E+00  0.35740347158E-01  0.35744000000E-01  0.51099999109E-03 0. -1.
       11   -1    0    0    0    0 -0.00000000000E+00 -0.00000000000E+00 -0.35740347158E-01  0.35744000000E-01  0.51099999109E-03 0.  1.
       22    1    1    2    0    0  0.16664167504E-01  0.21175372900E-01 -0.35286057515E-02  0.27176128396E-01  0.00000000000E+00 0. -1.
  9000001    1    1    2    0    0 -0.16664167504E-01 -0.21175372900E-01  0.35286057515E-02  0.44311871604E-01  0.35000000149E-01 0.  0.
</event>
<event>
 4   0  0.4334200E-01  0.9118800E+02  0.7818609E-02  0.1379984E+01
      -11   -1    0    0    0    0  0.00000000000E+00  0.00000000000E+00  0.35740347158E-01  0.35744000000E-01  0.51099999109E-03 0.  1.
       11   -1    0    0    0    0 -0.00000000000E+00 -0.00000000000E+00 -0.35740347158E-01  0.35744000000E-01  0.51099999109E-03 0. -1.
       22    1    1    2    0    0 -0.55357403013E-02  0.49327272978E-02  0.26145090081E-01  0.27176128396E-01  0.00000000000E+00 0.  1.
  9000001    1    1    2    0    0  0.55357403013E-02 -0.49327272978E-02 -0.26145090081E-01  0.44311871604E-01  0.35000000149E-01 0. -1.
</event>
<event>
 4   0  0.4334200E-01  0.9118800E+02  0.7818609E-02  0.1379984E+01
      -11   -1    0    0    0    0  0.00000000000E+00  0.00000000000E+00  0.35740347158E-01  0.35744000000E-01  0.51099999109E-03 0.  1.
       11   -1    0    0    0    0 -0.00000000000E+00 -0.00000000000E+00 -0.35740347158E-01  0.35744000000E-01  0.51099999109E-03 0. -1.
       22    1    1    2    0    0 -0.17267835198E-01  0.15209672509E-01  0.14457858914E-01  0.27176128396E-01  0.00000000000E+00 0. -1.
  9000001    1    1    2    0    0  0.17267835198E-01 -0.15209672509E-01 -0.14457858914E-01  0.44311871604E-01  0.35000000149E-01 0. -1.
</event>
<event>
 4   0  0.4334200E-01  0.9118800E+02  0.7818609E-02  0.1379984E+01
      -11   -1    0    0    0    0  0.00000000000E+00  0.00000000000E+00  0.35740347158E-01  0.35744000000E-01  0.51099999109E-03 0.  1.
       11   -1    0    0    0    0 -0.00000000000E+00 -0.00000000000E+00 -0.35740347158E-01  0.35744000000E-01  0.51099999109E-03 0. -1.
       22    1    1    2    0    0 -0.15839560792E-01 -0.67089001755E-02  0.21039033413E-01  0.27176128396E-01  0.00000000000E+00 0.  1.
  9000001    1    1    2    0    0  0.15839560792E-01  0.67089001755E-02 -0.21039033413E-01  0.44311871604E-01  0.35000000149E-01 0. -1.
</event>
<event>
 4   0  0.4334200E-01  0.9118800E+02  0.7818609E-02  0.1379984E+01
      -11   -1    0    0    0    0  0.00000000000E+00  0.00000000000E+00  0.35740347158E-01  0.35744000000E-01  0.51099999109E-03 0.  1.
       11   -1    0    0    0    0 -0.00000000000E+00 -0.00000000000E+00 -0.35740347158E-01  0.35744000000E-01  0.51099999109E-03 0. -1.
       22    1    1    2    0    0  0.10543842547E-01 -0.56185833900E-02 -0.24409032337E-01  0.27176128396E-01  0.00000000000E+00 0.  1.
  9000001    1    1    2    0    0 -0.10543842547E-01  0.56185833900E-02  0.24409032337E-01  0.44311871604E-01  0.35000000149E-01 0.  1.
</event>
<event>
 4   0  0.4334200E-01  0.9118800E+02  0.7818609E-02  0.1379984E+01
      -11   -1    0    0    0    0  0.00000000000E+00  0.00000000000E+00  0.35740347158E-01  0.35744000000E-01  0.51099999109E-03 0. -1.
       11   -1    0    0    0    0 -0.00000000000E+00 -0.00000000000E+00 -0.35740347158E-01  0.35744000000E-01  0.51099999109E-03 0.  1.
       22    1    1    2    0    0  0.42928137541E-02 -0.17479005678E-01  0.20361681295E-01  0.27176128396E-01  0.00000000000E+00 0. -1.
  9000001    1    1    2    0    0 -0.42928137541E-02  0.17479005678E-01 -0.20361681295E-01  0.44311871604E-01  0.35000000149E-01 0.  0.
</event>
<event>
 4   0  0.4334200E-01  0.9118800E+02  0.7818609E-02  0.1379984E+01
      -11   -1    0    0    0    0  0.00000000000E+00  0.00000000000E+00  0.35740347158E-01  0.35744000000E-01  0.51099999109E-03 0. -1.
       11   -1    0    0    0    0 -0.00000000000E+00 -0.00000000000E+00 -0.35740347158E-01  0.35744000000E-01  0.51099999109E-03 0.  1.
       22    1    1    2    0    0  0.54175271006E-02 -0.47168879263E-02  0.26209603641E-01  0.27176128396E-01  0.00000000000E+00 0. -1.
  9000001    1    1    2    0    0 -0.54175271006E-02  0.47168879263E-02 -0.26209603641E-01  0.44311871604E-01  0.35000000149E-01 0.  1.
</event>
<event>
 4   0  0.4334200E-01  0.9118800E+02  0.7818609E-02  0.1379984E+01
      -11   -1    0    0    0    0  0.00000000000E+00  0.00000000000E+00  0.35740347158E-01  0.35744000000E-01  0.51099999109E-03 0. -1.
       11   -1    0    0    0    0 -0.00000000000E+00 -0.00000000000E+00 -0.35740347158E-01  0.35744000000E-01  0.51099999109E-03 0.  1.
       22    1    1    2    0    0 -0.62146542635E-02  0.73475149919E-02  0.25415232646E-01  0.27176128396E-01  0.00000000000E+00 0. -1.
  9000001    1    1    2    0    0  0.62146542635E-02 -0.73475149919E-02 -0.25415232646E-01  0.44311871604E-01  0.35000000149E-01 0.  1.
</event>
<event>
 4   0  0.4334200E-01  0.9118800E+02  0.7818609E-02  0.1379984E+01
      -11   -1    0    0    0    0  0.00000000000E+00  0.00000000000E+00  0.35740347158E-01  0.35744000000E-01  0.51099999109E-03 0. -1.
       11   -1    0    0    0    0 -0.00000000000E+00 -0.00000000000E+00 -0.35740347158E-01  0.35744000000E-01  0.51099999109E-03 0.  1.
       22    1    1    2    0    0  0.19036106062E-01 -0.82739628219E-02 -0.17541669243E-01  0.27176128396E-01  0.00000000000E+00 0.  1.
  9000001    1    1    2    0    0 -0.19036106062E-01  0.82739628219E-02  0.17541669243E-01  0.44311871604E-01  0.35000000149E-01 0. -1.
</event>
<event>
 4   0  0.4334200E-01  0.9118800E+02  0.7818609E-02  0.1379984E+01
      -11   -1    0    0    0    0  0.00000000000E+00  0.00000000000E+00  0.35740347158E-01  0.35744000000E-01  0.51099999109E-03 0.  1.
       11   -1    0    0    0    0 -0.00000000000E+00 -0.00000000000E+00 -0.35740347158E-01  0.35744000000E-01  0.51099999109E-03 0. -1.
       22    1    1    2    0    0  0.53725134698E-02 -0.32460010218E-02 -0.26441284594E-01  0.27176128396E-01  0.00000000000E+00 0. -1.
  9000001    1    1    2    0    0 -0.53725134698E-02  0.32460010218E-02  0.26441284594E-01  0.44311871604E-01  0.35000000149E-01 0.  1.
</event>
<event>
 4   0  0.4334200E-01  0.9118800E+02  0.7818609E-02  0.1379984E+01
      -11   -1    0    0    0    0  0.00000000000E+00  0.00000000000E+00  0.35740347158E-01  0.35744000000E-01  0.51099999109E-03 0. -1.
       11   -1    0    0    0    0 -0.00000000000E+00 -0.00000000000E+00 -0.35740347158E-01  0.35744000000E-01  0.51099999109E-03 0.  1.
       22    1    1    2    0    0  0.59220832496E-02  0.42511056697E-02  0.26180125767E-01  0.27176128396E-01  0.00000000000E+00 0. -1.
  9000001    1    1    2    0    0 -0.59220832496E-02 -0.42511056697E-02 -0.26180125767E-01  0.44311871604E-01  0.35000000149E-01 0.  1.
</event>
<event>
 4   0  0.4334200E-01  0.9118800E+02  0.7818609E-02  0.1379984E+01
      -11   -1    0    0    0    0  0.00000000000E+00  0.00000000000E+00  0.35740347158E-01  0.35744000000E-01  0.51099999109E-03 0. -1.
       11   -1    0    0    0    0 -0.00000000000E+00 -0.00000000000E+00 -0.35740347158E-01  0.35744000000E-01  0.51099999109E-03 0.  1.
       22    1    1    2    0    0 -0.37317074059E-02 -0.14390179804E-02 -0.26880207248E-01  0.27176128396E-01  0.00000000000E+00 0. -1.
  9000001    1    1    2    0    0  0.37317074059E-02  0.14390179804E-02  0.26880207248E-01  0.44311871604E-01  0.35000000149E-01 0. -1.
</event>
<event>
 4   0  0.4334200E-01  0.9118800E+02  0.7818609E-02  0.1379984E+01
      -11   -1    0    0    0    0  0.00000000000E+00  0.00000000000E+00  0.35740347158E-01  0.35744000000E-01  0.51099999109E-03 0. -1.
       11   -1    0    0    0    0 -0.00000000000E+00 -0.00000000000E+00 -0.35740347158E-01  0.35744000000E-01  0.51099999109E-03 0.  1.
       22    1    1    2    0    0  0.12321697272E-01  0.19234200829E-01 -0.14722881831E-01  0.27176128396E-01  0.00000000000E+00 0.  1.
  9000001    1    1    2    0    0 -0.12321697272E-01 -0.19234200829E-01  0.14722881831E-01  0.44311871604E-01  0.35000000149E-01 0. -1.
</event>
<event>
 4   0  0.4334200E-01  0.9118800E+02  0.7818609E-02  0.1379984E+01
      -11   -1    0    0    0    0  0.00000000000E+00  0.00000000000E+00  0.35740347158E-01  0.35744000000E-01  0.51099999109E-03 0. -1.
       11   -1    0    0    0    0 -0.00000000000E+00 -0.00000000000E+00 -0.35740347158E-01  0.35744000000E-01  0.51099999109E-03 0.  1.
       22    1    1    2    0    0  0.95155472754E-02  0.11240717226E-01 -0.22839496292E-01  0.27176128396E-01  0.00000000000E+00 0.  1.
  9000001    1    1    2    0    0 -0.95155472754E-02 -0.11240717226E-01  0.22839496292E-01  0.44311871604E-01  0.35000000149E-01 0. -1.
</event>
<event>
 4   0  0.4334200E-01  0.9118800E+02  0.7818609E-02  0.1379984E+01
      -11   -1    0    0    0    0  0.00000000000E+00  0.00000000000E+00  0.35740347158E-01  0.35744000000E-01  0.51099999109E-03 0. -1.
       11   -1    0    0    0    0 -0.00000000000E+00 -0.00000000000E+00 -0.35740347158E-01  0.35744000000E-01  0.51099999109E-03 0.  1.
       22    1    1    2    0    0 -0.60809689842E-02  0.83555760016E-03 -0.26473866629E-01  0.27176128396E-01  0.00000000000E+00 0.  1.
  9000001    1    1    2    0    0  0.60809689842E-02 -0.83555760016E-03  0.26473866629E-01  0.44311871604E-01  0.35000000149E-01 0. -1.
</event>
<event>
 4   0  0.4334200E-01  0.9118800E+02  0.7818609E-02  0.1379984E+01
      -11   -1    0    0    0    0  0.00000000000E+00  0.00000000000E+00  0.35740347158E-01  0.35744000000E-01  0.51099999109E-03 0. -1.
       11   -1    0    0    0    0 -0.00000000000E+00 -0.00000000000E+00 -0.35740347158E-01  0.35744000000E-01  0.51099999109E-03 0.  1.
       22    1    1    2    0    0 -0.16524468204E-01 -0.85156546451E-02 -0.19823408666E-01  0.27176128396E-01  0.00000000000E+00 0.  1.
  9000001    1    1    2    0    0  0.16524468204E-01  0.85156546451E-02  0.19823408666E-01  0.44311871604E-01  0.35000000149E-01 0. -1.
</event>
<event>
 4   0  0.4334200E-01  0.9118800E+02  0.7818609E-02  0.1379984E+01
      -11   -1    0    0    0    0  0.00000000000E+00  0.00000000000E+00  0.35740347158E-01  0.35744000000E-01  0.51099999109E-03 0. -1.
       11   -1    0    0    0    0 -0.00000000000E+00 -0.00000000000E+00 -0.35740347158E-01  0.35744000000E-01  0.51099999109E-03 0.  1.
       22    1    1    2    0    0  0.85633838065E-03  0.32282146571E-02  0.26970118081E-01  0.27176128396E-01  0.00000000000E+00 0. -1.
  9000001    1    1    2    0    0 -0.85633838065E-03 -0.32282146571E-02 -0.26970118081E-01  0.44311871604E-01  0.35000000149E-01 0.  1.
</event>
<event>
 4   0  0.4334200E-01  0.9118800E+02  0.7818609E-02  0.1379984E+01
      -11   -1    0    0    0    0  0.00000000000E+00  0.00000000000E+00  0.35740347158E-01  0.35744000000E-01  0.51099999109E-03 0. -1.
       11   -1    0    0    0    0 -0.00000000000E+00 -0.00000000000E+00 -0.35740347158E-01  0.35744000000E-01  0.51099999109E-03 0.  1.
       22    1    1    2    0    0  0.11279355130E-01  0.72856430005E-02  0.23627050356E-01  0.27176128396E-01  0.00000000000E+00 0. -1.
  9000001    1    1    2    0    0 -0.11279355130E-01 -0.72856430005E-02 -0.23627050356E-01  0.44311871604E-01  0.35000000149E-01 0.  1.
</event>
<event>
 4   0  0.4334200E-01  0.9118800E+02  0.7818609E-02  0.1379984E+01
      -11   -1    0    0    0    0  0.00000000000E+00  0.00000000000E+00  0.35740347158E-01  0.35744000000E-01  0.51099999109E-03 0.  1.
       11   -1    0    0    0    0 -0.00000000000E+00 -0.00000000000E+00 -0.35740347158E-01  0.35744000000E-01  0.51099999109E-03 0. -1.
       22    1    1    2    0    0  0.10193170888E-01 -0.34065427059E-02  0.24960702888E-01  0.27176128396E-01  0.00000000000E+00 0.  1.
  9000001    1    1    2    0    0 -0.10193170888E-01  0.34065427059E-02 -0.24960702888E-01  0.44311871604E-01  0.35000000149E-01 0. -1.
</event>
<event>
 4   0  0.4334200E-01  0.9118800E+02  0.7818609E-02  0.1379984E+01
      -11   -1    0    0    0    0  0.00000000000E+00  0.00000000000E+00  0.35740347158E-01  0.35744000000E-01  0.51099999109E-03 0.  1.
       11   -1    0    0    0    0 -0.00000000000E+00 -0.00000000000E+00 -0.35740347158E-01  0.35744000000E-01  0.51099999109E-03 0. -1.
       22    1    1    2    0    0 -0.10980838196E-01 -0.20505949090E-01 -0.14052373430E-01  0.27176128396E-01  0.00000000000E+00 0. -1.
  9000001    1    1    2    0    0  0.10980838196E-01  0.20505949090E-01  0.14052373430E-01  0.44311871604E-01  0.35000000149E-01 0.  0.
</event>
<event>
 4   0  0.4334200E-01  0.9118800E+02  0.7818609E-02  0.1379984E+01
      -11   -1    0    0    0    0  0.00000000000E+00  0.00000000000E+00  0.35740347158E-01  0.35744000000E-01  0.51099999109E-03 0. -1.
       11   -1    0    0    0    0 -0.00000000000E+00 -0.00000000000E+00 -0.35740347158E-01  0.35744000000E-01  0.51099999109E-03 0.  1.
       22    1    1    2    0    0 -0.34996878562E-02 -0.14648455826E-01 -0.22621160037E-01  0.27176128396E-01  0.00000000000E+00 0.  1.
  9000001    1    1    2    0    0  0.34996878562E-02  0.14648455826E-01  0.22621160037E-01  0.44311871604E-01  0.35000000149E-01 0. -1.
</event>
<event>
 4   0  0.4334200E-01  0.9118800E+02  0.7818609E-02  0.1379984E+01
      -11   -1    0    0    0    0  0.00000000000E+00  0.00000000000E+00  0.35740347158E-01  0.35744000000E-01  0.51099999109E-03 0. -1.
       11   -1    0    0    0    0 -0.00000000000E+00 -0.00000000000E+00 -0.35740347158E-01  0.35744000000E-01  0.51099999109E-03 0.  1.
       22    1    1    2    0    0  0.60185559441E-02  0.24439912144E-01 -0.10247420815E-01  0.27176128396E-01  0.00000000000E+00 0. -1.
  9000001    1    1    2    0    0 -0.60185559441E-02 -0.24439912144E-01  0.10247420815E-01  0.44311871604E-01  0.35000000149E-01 0.  1.
</event>
<event>
 4   0  0.4334200E-01  0.9118800E+02  0.7818609E-02  0.1379984E+01
      -11   -1    0    0    0    0  0.00000000000E+00  0.00000000000E+00  0.35740347158E-01  0.35744000000E-01  0.51099999109E-03 0. -1.
       11   -1    0    0    0    0 -0.00000000000E+00 -0.00000000000E+00 -0.35740347158E-01  0.35744000000E-01  0.51099999109E-03 0.  1.
       22    1    1    2    0    0 -0.14982462667E-01 -0.13328995058E-01  0.18341364665E-01  0.27176128396E-01  0.00000000000E+00 0. -1.
  9000001    1    1    2    0    0  0.14982462667E-01  0.13328995058E-01 -0.18341364665E-01  0.44311871604E-01  0.35000000149E-01 0.  1.
</event>
<event>
 4   0  0.4334200E-01  0.9118800E+02  0.7818609E-02  0.1379984E+01
      -11   -1    0    0    0    0  0.00000000000E+00  0.00000000000E+00  0.35740347158E-01  0.35744000000E-01  0.51099999109E-03 0. -1.
       11   -1    0    0    0    0 -0.00000000000E+00 -0.00000000000E+00 -0.35740347158E-01  0.35744000000E-01  0.51099999109E-03 0.  1.
       22    1    1    2    0    0  0.43597087171E-02 -0.41151550362E-02  0.26506610374E-01  0.27176128396E-01  0.00000000000E+00 0. -1.
  9000001    1    1    2    0    0 -0.43597087171E-02  0.41151550362E-02 -0.26506610374E-01  0.44311871604E-01  0.35000000149E-01 0.  1.
</event>
<event>
 4   0  0.4334200E-01  0.9118800E+02  0.7818609E-02  0.1379984E+01
      -11   -1    0    0    0    0  0.00000000000E+00  0.00000000000E+00  0.35740347158E-01  0.35744000000E-01  0.51099999109E-03 0. -1.
       11   -1    0    0    0    0 -0.00000000000E+00 -0.00000000000E+00 -0.35740347158E-01  0.35744000000E-01  0.51099999109E-03 0.  1.
       22    1    1    2    0    0 -0.15634136966E-02 -0.44147601410E-02 -0.26769527174E-01  0.27176128396E-01  0.00000000000E+00 0.  1.
  9000001    1    1    2    0    0  0.15634136966E-02  0.44147601410E-02  0.26769527174E-01  0.44311871604E-01  0.35000000149E-01 0. -1.
</event>
<event>
 4   0  0.4334200E-01  0.9118800E+02  0.7818609E-02  0.1379984E+01
      -11   -1    0    0    0    0  0.00000000000E+00  0.00000000000E+00  0.35740347158E-01  0.35744000000E-01  0.51099999109E-03 0.  1.
       11   -1    0    0    0    0 -0.00000000000E+00 -0.00000000000E+00 -0.35740347158E-01  0.35744000000E-01  0.51099999109E-03 0. -1.
       22    1    1    2    0    0  0.11127579211E-02 -0.97975035462E-02  0.25324151490E-01  0.27176128396E-01  0.00000000000E+00 0. -1.
  9000001    1    1    2    0    0 -0.11127579211E-02  0.97975035462E-02 -0.25324151490E-01  0.44311871604E-01  0.35000000149E-01 0.  0.
</event>
<event>
 4   0  0.4334200E-01  0.9118800E+02  0.7818609E-02  0.1379984E+01
      -11   -1    0    0    0    0  0.00000000000E+00  0.00000000000E+00  0.35740347158E-01  0.35744000000E-01  0.51099999109E-03 0.  1.
       11   -1    0    0    0    0 -0.00000000000E+00 -0.00000000000E+00 -0.35740347158E-01  0.35744000000E-01  0.51099999109E-03 0. -1.
       22    1    1    2    0    0  0.52122303419E-04 -0.47460381716E-02 -0.26758444640E-01  0.27176128396E-01  0.00000000000E+00 0. -1.
  9000001    1    1    2    0    0 -0.52122303419E-04  0.47460381716E-02  0.26758444640E-01  0.44311871604E-01  0.35000000149E-01 0.  1.
</event>
<event>
 4   0  0.4334200E-01  0.9118800E+02  0.7818609E-02  0.1379984E+01
      -11   -1    0    0    0    0  0.00000000000E+00  0.00000000000E+00  0.35740347158E-01  0.35744000000E-01  0.51099999109E-03 0.  1.
       11   -1    0    0    0    0 -0.00000000000E+00 -0.00000000000E+00 -0.35740347158E-01  0.35744000000E-01  0.51099999109E-03 0. -1.
       22    1    1    2    0    0  0.57909644787E-02  0.42723567340E-02  0.26205985060E-01  0.27176128396E-01  0.00000000000E+00 0.  1.
  9000001    1    1    2    0    0 -0.57909644787E-02 -0.42723567340E-02 -0.26205985060E-01  0.44311871604E-01  0.35000000149E-01 0. -1.
</event>
<event>
 4   0  0.4334200E-01  0.9118800E+02  0.7818609E-02  0.1379984E+01
      -11   -1    0    0    0    0  0.00000000000E+00  0.00000000000E+00  0.35740347158E-01  0.35744000000E-01  0.51099999109E-03 0.  1.
       11   -1    0    0    0    0 -0.00000000000E+00 -0.00000000000E+00 -0.35740347158E-01  0.35744000000E-01  0.51099999109E-03 0. -1.
       22    1    1    2    0    0  0.15129484865E-01  0.67615522282E-02  0.21538849872E-01  0.27176128396E-01  0.00000000000E+00 0.  1.
  9000001    1    1    2    0    0 -0.15129484865E-01 -0.67615522282E-02 -0.21538849872E-01  0.44311871604E-01  0.35000000149E-01 0. -1.
</event>
<event>
 4   0  0.4334200E-01  0.9118800E+02  0.7818609E-02  0.1379984E+01
      -11   -1    0    0    0    0  0.00000000000E+00  0.00000000000E+00  0.35740347158E-01  0.35744000000E-01  0.51099999109E-03 0. -1.
       11   -1    0    0    0    0 -0.00000000000E+00 -0.00000000000E+00 -0.35740347158E-01  0.35744000000E-01  0.51099999109E-03 0.  1.
       22    1    1    2    0    0  0.25221230870E-01  0.58204850304E-02  0.82796993918E-02  0.27176128396E-01  0.00000000000E+00 0.  1.
  9000001    1    1    2    0    0 -0.25221230870E-01 -0.58204850304E-02 -0.82796993918E-02  0.44311871604E-01  0.35000000149E-01 0. -1.
</event>
<event>
 4   0  0.4334200E-01  0.9118800E+02  0.7818609E-02  0.1379984E+01
      -11   -1    0    0    0    0  0.00000000000E+00  0.00000000000E+00  0.35740347158E-01  0.35744000000E-01  0.51099999109E-03 0. -1.
       11   -1    0    0    0    0 -0.00000000000E+00 -0.00000000000E+00 -0.35740347158E-01  0.35744000000E-01  0.51099999109E-03 0.  1.
       22    1    1    2    0    0 -0.76934736937E-02 -0.29738449196E-02 -0.25894182040E-01  0.27176128396E-01  0.00000000000E+00 0.  1.
  9000001    1    1    2    0    0  0.76934736937E-02  0.29738449196E-02  0.25894182040E-01  0.44311871604E-01  0.35000000149E-01 0. -1.
</event>
<event>
 4   0  0.4334200E-01  0.9118800E+02  0.7818609E-02  0.1379984E+01
      -11   -1    0    0    0    0  0.00000000000E+00  0.00000000000E+00  0.35740347158E-01  0.35744000000E-01  0.51099999109E-03 0. -1.
       11   -1    0    0    0    0 -0.00000000000E+00 -0.00000000000E+00 -0.35740347158E-01  0.35744000000E-01  0.51099999109E-03 0.  1.
       22    1    1    2    0    0 -0.24852990006E-03  0.41661730125E-02  0.26853736982E-01  0.27176128396E-01  0.00000000000E+00 0. -1.
  9000001    1    1    2    0    0  0.24852990006E-03 -0.41661730125E-02 -0.26853736982E-01  0.44311871604E-01  0.35000000149E-01 0.  1.
</event>
<event>
 4   0  0.4334200E-01  0.9118800E+02  0.7818609E-02  0.1379984E+01
      -11   -1    0    0    0    0  0.00000000000E+00  0.00000000000E+00  0.35740347158E-01  0.35744000000E-01  0.51099999109E-03 0. -1.
       11   -1    0    0    0    0 -0.00000000000E+00 -0.00000000000E+00 -0.35740347158E-01  0.35744000000E-01  0.51099999109E-03 0.  1.
       22    1    1    2    0    0 -0.61883586490E-03  0.99672348385E-02 -0.25274754726E-01  0.27176128396E-01  0.00000000000E+00 0.  1.
  9000001    1    1    2    0    0  0.61883586490E-03 -0.99672348385E-02  0.25274754726E-01  0.44311871604E-01  0.35000000149E-01 0. -1.
</event>
<event>
 4   0  0.4334200E-01  0.9118800E+02  0.7818609E-02  0.1379984E+01
      -11   -1    0    0    0    0  0.00000000000E+00  0.00000000000E+00  0.35740347158E-01  0.35744000000E-01  0.51099999109E-03 0. -1.
       11   -1    0    0    0    0 -0.00000000000E+00 -0.00000000000E+00 -0.35740347158E-01  0.35744000000E-01  0.51099999109E-03 0.  1.
       22    1    1    2    0    0  0.24555119589E-02  0.29641569975E-02  0.26902159559E-01  0.27176128396E-01  0.00000000000E+00 0. -1.
  9000001    1    1    2    0    0 -0.24555119589E-02 -0.29641569975E-02 -0.26902159559E-01  0.44311871604E-01  0.35000000149E-01 0.  1.
</event>
<event>
 4   0  0.4334200E-01  0.9118800E+02  0.7818609E-02  0.1379984E+01
      -11   -1    0    0    0    0  0.00000000000E+00  0.00000000000E+00  0.35740347158E-01  0.35744000000E-01  0.51099999109E-03 0.  1.
       11   -1    0    0    0    0 -0.00000000000E+00 -0.00000000000E+00 -0.35740347158E-01  0.35744000000E-01  0.51099999109E-03 0. -1.
       22    1    1    2    0    0 -0.26614047963E-02 -0.12071102348E-01 -0.24202218229E-01  0.27176128396E-01  0.00000000000E+00 0. -1.
  9000001    1    1    2    0    0  0.26614047963E-02  0.12071102348E-01  0.24202218229E-01  0.44311871604E-01  0.35000000149E-01 0.  1.
</event>
<event>
 4   0  0.4334200E-01  0.9118800E+02  0.7818609E-02  0.1379984E+01
      -11   -1    0    0    0    0  0.00000000000E+00  0.00000000000E+00  0.35740347158E-01  0.35744000000E-01  0.51099999109E-03 0. -1.
       11   -1    0    0    0    0 -0.00000000000E+00 -0.00000000000E+00 -0.35740347158E-01  0.35744000000E-01  0.51099999109E-03 0.  1.
       22    1    1    2    0    0  0.21311479268E-02 -0.13289174358E-01 -0.23609278007E-01  0.27176128396E-01  0.00000000000E+00 0. -1.
  9000001    1    1    2    0    0 -0.21311479268E-02  0.13289174358E-01  0.23609278007E-01  0.44311871604E-01  0.35000000149E-01 0.  1.
</event>
<event>
 4   0  0.4334200E-01  0.9118800E+02  0.7818609E-02  0.1379984E+01
      -11   -1    0    0    0    0  0.00000000000E+00  0.00000000000E+00  0.35740347158E-01  0.35744000000E-01  0.51099999109E-03 0. -1.
       11   -1    0    0    0    0 -0.00000000000E+00 -0.00000000000E+00 -0.35740347158E-01  0.35744000000E-01  0.51099999109E-03 0.  1.
       22    1    1    2    0    0  0.50387769602E-02 -0.22563649938E-01 -0.14284060445E-01  0.27176128396E-01  0.00000000000E+00 0. -1.
  9000001    1    1    2    0    0 -0.50387769602E-02  0.22563649938E-01  0.14284060445E-01  0.44311871604E-01  0.35000000149E-01 0.  0.
</event>
<event>
 4   0  0.4334200E-01  0.9118800E+02  0.7818609E-02  0.1379984E+01
      -11   -1    0    0    0    0  0.00000000000E+00  0.00000000000E+00  0.35740347158E-01  0.35744000000E-01  0.51099999109E-03 0.  1.
       11   -1    0    0    0    0 -0.00000000000E+00 -0.00000000000E+00 -0.35740347158E-01  0.35744000000E-01  0.51099999109E-03 0. -1.
       22    1    1    2    0    0 -0.58559547627E-02  0.20840730057E-01 -0.16429051072E-01  0.27176128396E-01  0.00000000000E+00 0. -1.
  9000001    1    1    2    0    0  0.58559547627E-02 -0.20840730057E-01  0.16429051072E-01  0.44311871604E-01  0.35000000149E-01 0.  0.
</event>
<event>
 4   0  0.4334200E-01  0.9118800E+02  0.7818609E-02  0.1379984E+01
      -11   -1    0    0    0    0  0.00000000000E+00  0.00000000000E+00  0.35740347158E-01  0.35744000000E-01  0.51099999109E-03 0.  1.
       11   -1    0    0    0    0 -0.00000000000E+00 -0.00000000000E+00 -0.35740347158E-01  0.35744000000E-01  0.51099999109E-03 0. -1.
       22    1    1    2    0    0  0.18371575848E-01  0.16075118515E-01 -0.11942266124E-01  0.27176128396E-01  0.00000000000E+00 0. -1.
  9000001    1    1    2    0    0 -0.18371575848E-01 -0.16075118515E-01  0.11942266124E-01  0.44311871604E-01  0.35000000149E-01 0.  1.
</event>
<event>
 4   0  0.4334200E-01  0.9118800E+02  0.7818609E-02  0.1379984E+01
      -11   -1    0    0    0    0  0.00000000000E+00  0.00000000000E+00  0.35740347158E-01  0.35744000000E-01  0.51099999109E-03 0.  1.
       11   -1    0    0    0    0 -0.00000000000E+00 -0.00000000000E+00 -0.35740347158E-01  0.35744000000E-01  0.51099999109E-03 0. -1.
       22    1    1    2    0    0 -0.53222757287E-02  0.31458381279E-02  0.26463541678E-01  0.27176128396E-01  0.00000000000E+00 0.  1.
  9000001    1    1    2    0    0  0.53222757287E-02 -0.31458381279E-02 -0.26463541678E-01  0.44311871604E-01  0.35000000149E-01 0. -1.
</event>
<event>
 4   0  0.4334200E-01  0.9118800E+02  0.7818609E-02  0.1379984E+01
      -11   -1    0    0    0    0  0.00000000000E+00  0.00000000000E+00  0.35740347158E-01  0.35744000000E-01  0.51099999109E-03 0. -1.
       11   -1    0    0    0    0 -0.00000000000E+00 -0.00000000000E+00 -0.35740347158E-01  0.35744000000E-01  0.51099999109E-03 0.  1.
       22    1    1    2    0    0  0.17195070463E-01 -0.13411121504E-01 -0.16217685605E-01  0.27176128396E-01  0.00000000000E+00 0. -1.
  9000001    1    1    2    0    0 -0.17195070463E-01  0.13411121504E-01  0.16217685605E-01  0.44311871604E-01  0.35000000149E-01 0.  0.
</event>
<event>
 4   0  0.4334200E-01  0.9118800E+02  0.7818609E-02  0.1379984E+01
      -11   -1    0    0    0    0  0.00000000000E+00  0.00000000000E+00  0.35740347158E-01  0.35744000000E-01  0.51099999109E-03 0. -1.
       11   -1    0    0    0    0 -0.00000000000E+00 -0.00000000000E+00 -0.35740347158E-01  0.35744000000E-01  0.51099999109E-03 0.  1.
       22    1    1    2    0    0 -0.31699981486E-02  0.64319134469E-02  0.26213041711E-01  0.27176128396E-01  0.00000000000E+00 0. -1.
  9000001    1    1    2    0    0  0.31699981486E-02 -0.64319134469E-02 -0.26213041711E-01  0.44311871604E-01  0.35000000149E-01 0.  1.
</event>
<event>
 4   0  0.4334200E-01  0.9118800E+02  0.7818609E-02  0.1379984E+01
      -11   -1    0    0    0    0  0.00000000000E+00  0.00000000000E+00  0.35740347158E-01  0.35744000000E-01  0.51099999109E-03 0.  1.
       11   -1    0    0    0    0 -0.00000000000E+00 -0.00000000000E+00 -0.35740347158E-01  0.35744000000E-01  0.51099999109E-03 0. -1.
       22    1    1    2    0    0  0.49479672359E-02 -0.10960995121E-02  0.26699403377E-01  0.27176128396E-01  0.00000000000E+00 0. -1.
  9000001    1    1    2    0    0 -0.49479672359E-02  0.10960995121E-02 -0.26699403377E-01  0.44311871604E-01  0.35000000149E-01 0. -1.
</event>
<event>
 4   0  0.4334200E-01  0.9118800E+02  0.7818609E-02  0.1379984E+01
      -11   -1    0    0    0    0  0.00000000000E+00  0.00000000000E+00  0.35740347158E-01  0.35744000000E-01  0.51099999109E-03 0. -1.
       11   -1    0    0    0    0 -0.00000000000E+00 -0.00000000000E+00 -0.35740347158E-01  0.35744000000E-01  0.51099999109E-03 0.  1.
       22    1    1    2    0    0 -0.52740880898E-02 -0.16403024148E-01 -0.21015868962E-01  0.27176128396E-01  0.00000000000E+00 0.  1.
  9000001    1    1    2    0    0  0.52740880898E-02  0.16403024148E-01  0.21015868962E-01  0.44311871604E-01  0.35000000149E-01 0. -1.
</event>
<event>
 4   0  0.4334200E-01  0.9118800E+02  0.7818609E-02  0.1379984E+01
      -11   -1    0    0    0    0  0.00000000000E+00  0.00000000000E+00  0.35740347158E-01  0.35744000000E-01  0.51099999109E-03 0. -1.
       11   -1    0    0    0    0 -0.00000000000E+00 -0.00000000000E+00 -0.35740347158E-01  0.35744000000E-01  0.51099999109E-03 0.  1.
       22    1    1    2    0    0  0.19362288173E-02  0.95200213494E-02 -0.25380349999E-01  0.27176128396E-01  0.00000000000E+00 0.  1.
  9000001    1    1    2    0    0 -0.19362288173E-02 -0.95200213494E-02  0.25380349999E-01  0.44311871604E-01  0.35000000149E-01 0. -1.
</event>
<event>
 4   0  0.4334200E-01  0.9118800E+02  0.7818609E-02  0.1379984E+01
      -11   -1    0    0    0    0  0.00000000000E+00  0.00000000000E+00  0.35740347158E-01  0.35744000000E-01  0.51099999109E-03 0.  1.
       11   -1    0    0    0    0 -0.00000000000E+00 -0.00000000000E+00 -0.35740347158E-01  0.35744000000E-01  0.51099999109E-03 0. -1.
       22    1    1    2    0    0 -0.22084583410E-01 -0.65578064714E-02 -0.14415557724E-01  0.27176128396E-01  0.00000000000E+00 0. -1.
  9000001    1    1    2    0    0  0.22084583410E-01  0.65578064714E-02  0.14415557724E-01  0.44311871604E-01  0.35000000149E-01 0.  0.
</event>
<event>
 4   0  0.4334200E-01  0.9118800E+02  0.7818609E-02  0.1379984E+01
      -11   -1    0    0    0    0  0.00000000000E+00  0.00000000000E+00  0.35740347158E-01  0.35744000000E-01  0.51099999109E-03 0.  1.
       11   -1    0    0    0    0 -0.00000000000E+00 -0.00000000000E+00 -0.35740347158E-01  0.35744000000E-01  0.51099999109E-03 0. -1.
       22    1    1    2    0    0  0.11149877176E-01 -0.22368592671E-01  0.10670906966E-01  0.27176128396E-01  0.00000000000E+00 0.  1.
  9000001    1    1    2    0    0 -0.11149877176E-01  0.22368592671E-01 -0.10670906966E-01  0.44311871604E-01  0.35000000149E-01 0.  0.
</event>
<event>
 4   0  0.4334200E-01  0.9118800E+02  0.7818609E-02  0.1379984E+01
      -11   -1    0    0    0    0  0.00000000000E+00  0.00000000000E+00  0.35740347158E-01  0.35744000000E-01  0.51099999109E-03 0.  1.
       11   -1    0    0    0    0 -0.00000000000E+00 -0.00000000000E+00 -0.35740347158E-01  0.35744000000E-01  0.51099999109E-03 0. -1.
       22    1    1    2    0    0 -0.74883643736E-02  0.24425040000E-02 -0.26009623754E-01  0.27176128396E-01  0.00000000000E+00 0. -1.
  9000001    1    1    2    0    0  0.74883643736E-02 -0.24425040000E-02  0.26009623754E-01  0.44311871604E-01  0.35000000149E-01 0.  1.
</event>
<event>
 4   0  0.4334200E-01  0.9118800E+02  0.7818609E-02  0.1379984E+01
      -11   -1    0    0    0    0  0.00000000000E+00  0.00000000000E+00  0.35740347158E-01  0.35744000000E-01  0.51099999109E-03 0. -1.
       11   -1    0    0    0    0 -0.00000000000E+00 -0.00000000000E+00 -0.35740347158E-01  0.35744000000E-01  0.51099999109E-03 0.  1.
       22    1    1    2    0    0  0.38761048851E-03  0.65972906328E-02  0.26360338940E-01  0.27176128396E-01  0.00000000000E+00 0. -1.
  9000001    1    1    2    0    0 -0.38761048851E-03 -0.65972906328E-02 -0.26360338940E-01  0.44311871604E-01  0.35000000149E-01 0.  1.
</event>
<event>
 4   0  0.4334200E-01  0.9118800E+02  0.7818609E-02  0.1379984E+01
      -11   -1    0    0    0    0  0.00000000000E+00  0.00000000000E+00  0.35740347158E-01  0.35744000000E-01  0.51099999109E-03 0. -1.
       11   -1    0    0    0    0 -0.00000000000E+00 -0.00000000000E+00 -0.35740347158E-01  0.35744000000E-01  0.51099999109E-03 0.  1.
       22    1    1    2    0    0 -0.18586661077E-01 -0.90218757895E-02  0.17654567167E-01  0.27176128396E-01  0.00000000000E+00 0. -1.
  9000001    1    1    2    0    0  0.18586661077E-01  0.90218757895E-02 -0.17654567167E-01  0.44311871604E-01  0.35000000149E-01 0.  1.
</event>
<event>
 4   0  0.4334200E-01  0.9118800E+02  0.7818609E-02  0.1379984E+01
      -11   -1    0    0    0    0  0.00000000000E+00  0.00000000000E+00  0.35740347158E-01  0.35744000000E-01  0.51099999109E-03 0.  1.
       11   -1    0    0    0    0 -0.00000000000E+00 -0.00000000000E+00 -0.35740347158E-01  0.35744000000E-01  0.51099999109E-03 0. -1.
       22    1    1    2    0    0 -0.29037810766E-03  0.16667972992E-01 -0.21462439552E-01  0.27176128396E-01  0.00000000000E+00 0. -1.
  9000001    1    1    2    0    0  0.29037810766E-03 -0.16667972992E-01  0.21462439552E-01  0.44311871604E-01  0.35000000149E-01 0.  0.
</event>
<event>
 4   0  0.4334200E-01  0.9118800E+02  0.7818609E-02  0.1379984E+01
      -11   -1    0    0    0    0  0.00000000000E+00  0.00000000000E+00  0.35740347158E-01  0.35744000000E-01  0.51099999109E-03 0.  1.
       11   -1    0    0    0    0 -0.00000000000E+00 -0.00000000000E+00 -0.35740347158E-01  0.35744000000E-01  0.51099999109E-03 0. -1.
       22    1    1    2    0    0  0.17243207261E-01  0.20187599400E-01 -0.58029809959E-02  0.27176128396E-01  0.00000000000E+00 0.  1.
  9000001    1    1    2    0    0 -0.17243207261E-01 -0.20187599400E-01  0.58029809959E-02  0.44311871604E-01  0.35000000149E-01 0. -1.
</event>
<event>
 4   0  0.4334200E-01  0.9118800E+02  0.7818609E-02  0.1379984E+01
      -11   -1    0    0    0    0  0.00000000000E+00  0.00000000000E+00  0.35740347158E-01  0.35744000000E-01  0.51099999109E-03 0.  1.
       11   -1    0    0    0    0 -0.00000000000E+00 -0.00000000000E+00 -0.35740347158E-01  0.35744000000E-01  0.51099999109E-03 0. -1.
       22    1    1    2    0    0 -0.83445333352E-03  0.33835635721E-02  0.26951755783E-01  0.27176128396E-01  0.00000000000E+00 0.  1.
  9000001    1    1    2    0    0  0.83445333352E-03 -0.33835635721E-02 -0.26951755783E-01  0.44311871604E-01  0.35000000149E-01 0. -1.
</event>
<event>
 4   0  0.4334200E-01  0.9118800E+02  0.7818609E-02  0.1379984E+01
      -11   -1    0    0    0    0  0.00000000000E+00  0.00000000000E+00  0.35740347158E-01  0.35744000000E-01  0.51099999109E-03 0.  1.
       11   -1    0    0    0    0 -0.00000000000E+00 -0.00000000000E+00 -0.35740347158E-01  0.35744000000E-01  0.51099999109E-03 0. -1.
       22    1    1    2    0    0 -0.81031674274E-02  0.23755492540E-01 -0.10419078963E-01  0.27176128396E-01  0.00000000000E+00 0. -1.
  9000001    1    1    2    0    0  0.81031674274E-02 -0.23755492540E-01  0.10419078963E-01  0.44311871604E-01  0.35000000149E-01 0.  1.
</event>
<event>
 4   0  0.4334200E-01  0.9118800E+02  0.7818609E-02  0.1379984E+01
      -11   -1    0    0    0    0  0.00000000000E+00  0.00000000000E+00  0.35740347158E-01  0.35744000000E-01  0.51099999109E-03 0.  1.
       11   -1    0    0    0    0 -0.00000000000E+00 -0.00000000000E+00 -0.35740347158E-01  0.35744000000E-01  0.51099999109E-03 0. -1.
       22    1    1    2    0    0  0.12599718791E-01  0.20800688754E-01 -0.12129319369E-01  0.27176128396E-01  0.00000000000E+00 0.  1.
  9000001    1    1    2    0    0 -0.12599718791E-01 -0.20800688754E-01  0.12129319369E-01  0.44311871604E-01  0.35000000149E-01 0. -1.
</event>
<event>
 4   0  0.4334200E-01  0.9118800E+02  0.7818609E-02  0.1379984E+01
      -11   -1    0    0    0    0  0.00000000000E+00  0.00000000000E+00  0.35740347158E-01  0.35744000000E-01  0.51099999109E-03 0. -1.
       11   -1    0    0    0    0 -0.00000000000E+00 -0.00000000000E+00 -0.35740347158E-01  0.35744000000E-01  0.51099999109E-03 0.  1.
       22    1    1    2    0    0 -0.26330678358E-01 -0.15580670868E-02  0.65429166882E-02  0.27176128396E-01  0.00000000000E+00 0. -1.
  9000001    1    1    2    0    0  0.26330678358E-01  0.15580670868E-02 -0.65429166882E-02  0.44311871604E-01  0.35000000149E-01 0.  1.
</event>
<event>
 4   0  0.4334200E-01  0.9118800E+02  0.7818609E-02  0.1379984E+01
      -11   -1    0    0    0    0  0.00000000000E+00  0.00000000000E+00  0.35740347158E-01  0.35744000000E-01  0.51099999109E-03 0.  1.
       11   -1    0    0    0    0 -0.00000000000E+00 -0.00000000000E+00 -0.35740347158E-01  0.35744000000E-01  0.51099999109E-03 0. -1.
       22    1    1    2    0    0 -0.14353384235E-01 -0.20731497946E-03  0.23075513778E-01  0.27176128396E-01  0.00000000000E+00 0.  1.
  9000001    1    1    2    0    0  0.14353384235E-01  0.20731497946E-03 -0.23075513778E-01  0.44311871604E-01  0.35000000149E-01 0. -1.
</event>
<event>
 4   0  0.4334200E-01  0.9118800E+02  0.7818609E-02  0.1379984E+01
      -11   -1    0    0    0    0  0.00000000000E+00  0.00000000000E+00  0.35740347158E-01  0.35744000000E-01  0.51099999109E-03 0. -1.
       11   -1    0    0    0    0 -0.00000000000E+00 -0.00000000000E+00 -0.35740347158E-01  0.35744000000E-01  0.51099999109E-03 0.  1.
       22    1    1    2    0    0  0.14073609043E-01 -0.97825009998E-02  0.21089764278E-01  0.27176128396E-01  0.00000000000E+00 0.  1.
  9000001    1    1    2    0    0 -0.14073609043E-01  0.97825009998E-02 -0.21089764278E-01  0.44311871604E-01  0.35000000149E-01 0.  1.
</event>
<event>
 4   0  0.4334200E-01  0.9118800E+02  0.7818609E-02  0.1379984E+01
      -11   -1    0    0    0    0  0.00000000000E+00  0.00000000000E+00  0.35740347158E-01  0.35744000000E-01  0.51099999109E-03 0. -1.
       11   -1    0    0    0    0 -0.00000000000E+00 -0.00000000000E+00 -0.35740347158E-01  0.35744000000E-01  0.51099999109E-03 0.  1.
       22    1    1    2    0    0  0.24895990296E-02  0.83930304302E-02 -0.25727434607E-01  0.27176128396E-01  0.00000000000E+00 0.  1.
  9000001    1    1    2    0    0 -0.24895990296E-02 -0.83930304302E-02  0.25727434607E-01  0.44311871604E-01  0.35000000149E-01 0. -1.
</event>
<event>
 4   0  0.4334200E-01  0.9118800E+02  0.7818609E-02  0.1379984E+01
      -11   -1    0    0    0    0  0.00000000000E+00  0.00000000000E+00  0.35740347158E-01  0.35744000000E-01  0.51099999109E-03 0.  1.
       11   -1    0    0    0    0 -0.00000000000E+00 -0.00000000000E+00 -0.35740347158E-01  0.35744000000E-01  0.51099999109E-03 0. -1.
       22    1    1    2    0    0 -0.36714655187E-02  0.86370186956E-02  0.25504199725E-01  0.27176128396E-01  0.00000000000E+00 0.  1.
  9000001    1    1    2    0    0  0.36714655187E-02 -0.86370186956E-02 -0.25504199725E-01  0.44311871604E-01  0.35000000149E-01 0. -1.
</event>
<event>
 4   0  0.4334200E-01  0.9118800E+02  0.7818609E-02  0.1379984E+01
      -11   -1    0    0    0    0  0.00000000000E+00  0.00000000000E+00  0.35740347158E-01  0.35744000000E-01  0.51099999109E-03 0. -1.
       11   -1    0    0    0    0 -0.00000000000E+00 -0.00000000000E+00 -0.35740347158E-01  0.35744000000E-01  0.51099999109E-03 0.  1.
       22    1    1    2    0    0  0.93144531123E-02 -0.17296478904E-01  0.18778038645E-01  0.27176128396E-01  0.00000000000E+00 0. -1.
  9000001    1    1    2    0    0 -0.93144531123E-02  0.17296478904E-01 -0.18778038645E-01  0.44311871604E-01  0.35000000149E-01 0.  1.
</event>
<event>
 4   0  0.4334200E-01  0.9118800E+02  0.7818609E-02  0.1379984E+01
      -11   -1    0    0    0    0  0.00000000000E+00  0.00000000000E+00  0.35740347158E-01  0.35744000000E-01  0.51099999109E-03 0.  1.
       11   -1    0    0    0    0 -0.00000000000E+00 -0.00000000000E+00 -0.35740347158E-01  0.35744000000E-01  0.51099999109E-03 0. -1.
       22    1    1    2    0    0  0.95379064760E-02 -0.20890126639E-01 -0.14531789417E-01  0.27176128396E-01  0.00000000000E+00 0. -1.
  9000001    1    1    2    0    0 -0.95379064760E-02  0.20890126639E-01  0.14531789417E-01  0.44311871604E-01  0.35000000149E-01 0.  1.
</event>
<event>
 4   0  0.4334200E-01  0.9118800E+02  0.7818609E-02  0.1379984E+01
      -11   -1    0    0    0    0  0.00000000000E+00  0.00000000000E+00  0.35740347158E-01  0.35744000000E-01  0.51099999109E-03 0.  1.
       11   -1    0    0    0    0 -0.00000000000E+00 -0.00000000000E+00 -0.35740347158E-01  0.35744000000E-01  0.51099999109E-03 0. -1.
       22    1    1    2    0    0  0.15930761293E-01 -0.44568192442E-02  0.21561297768E-01  0.27176128396E-01  0.00000000000E+00 0.  1.
  9000001    1    1    2    0    0 -0.15930761293E-01  0.44568192442E-02 -0.21561297768E-01  0.44311871604E-01  0.35000000149E-01 0. -1.
</event>
<event>
 4   0  0.4334200E-01  0.9118800E+02  0.7818609E-02  0.1379984E+01
      -11   -1    0    0    0    0  0.00000000000E+00  0.00000000000E+00  0.35740347158E-01  0.35744000000E-01  0.51099999109E-03 0.  1.
       11   -1    0    0    0    0 -0.00000000000E+00 -0.00000000000E+00 -0.35740347158E-01  0.35744000000E-01  0.51099999109E-03 0. -1.
       22    1    1    2    0    0 -0.50795300957E-02  0.41679720891E-02 -0.26369837642E-01  0.27176128396E-01  0.00000000000E+00 0. -1.
  9000001    1    1    2    0    0  0.50795300957E-02 -0.41679720891E-02  0.26369837642E-01  0.44311871604E-01  0.35000000149E-01 0.  1.
</event>
<event>
 4   0  0.4334200E-01  0.9118800E+02  0.7818609E-02  0.1379984E+01
      -11   -1    0    0    0    0  0.00000000000E+00  0.00000000000E+00  0.35740347158E-01  0.35744000000E-01  0.51099999109E-03 0. -1.
       11   -1    0    0    0    0 -0.00000000000E+00 -0.00000000000E+00 -0.35740347158E-01  0.35744000000E-01  0.51099999109E-03 0.  1.
       22    1    1    2    0    0 -0.82259661617E-02  0.12942642678E-01 -0.22435762430E-01  0.27176128396E-01  0.00000000000E+00 0.  1.
  9000001    1    1    2    0    0  0.82259661617E-02 -0.12942642678E-01  0.22435762430E-01  0.44311871604E-01  0.35000000149E-01 0. -1.
</event>
<event>
 4   0  0.4334200E-01  0.9118800E+02  0.7818609E-02  0.1379984E+01
      -11   -1    0    0    0    0  0.00000000000E+00  0.00000000000E+00  0.35740347158E-01  0.35744000000E-01  0.51099999109E-03 0.  1.
       11   -1    0    0    0    0 -0.00000000000E+00 -0.00000000000E+00 -0.35740347158E-01  0.35744000000E-01  0.51099999109E-03 0. -1.
       22    1    1    2    0    0  0.10126698873E-01 -0.73389294433E-02 -0.24127412608E-01  0.27176128396E-01  0.00000000000E+00 0. -1.
  9000001    1    1    2    0    0 -0.10126698873E-01  0.73389294433E-02  0.24127412608E-01  0.44311871604E-01  0.35000000149E-01 0.  1.
</event>
<event>
 4   0  0.4334200E-01  0.9118800E+02  0.7818609E-02  0.1379984E+01
      -11   -1    0    0    0    0  0.00000000000E+00  0.00000000000E+00  0.35740347158E-01  0.35744000000E-01  0.51099999109E-03 0.  1.
       11   -1    0    0    0    0 -0.00000000000E+00 -0.00000000000E+00 -0.35740347158E-01  0.35744000000E-01  0.51099999109E-03 0. -1.
       22    1    1    2    0    0  0.35711646957E-02  0.67492777246E-02  0.26081334082E-01  0.27176128396E-01  0.00000000000E+00 0.  1.
  9000001    1    1    2    0    0 -0.35711646957E-02 -0.67492777246E-02 -0.26081334082E-01  0.44311871604E-01  0.35000000149E-01 0. -1.
</event>
<event>
 4   0  0.4334200E-01  0.9118800E+02  0.7818609E-02  0.1379984E+01
      -11   -1    0    0    0    0  0.00000000000E+00  0.00000000000E+00  0.35740347158E-01  0.35744000000E-01  0.51099999109E-03 0. -1.
       11   -1    0    0    0    0 -0.00000000000E+00 -0.00000000000E+00 -0.35740347158E-01  0.35744000000E-01  0.51099999109E-03 0.  1.
       22    1    1    2    0    0  0.15487679029E-02  0.10408490129E-01 -0.25056069241E-01  0.27176128396E-01  0.00000000000E+00 0.  1.
  9000001    1    1    2    0    0 -0.15487679029E-02 -0.10408490129E-01  0.25056069241E-01  0.44311871604E-01  0.35000000149E-01 0. -1.
</event>
<event>
 4   0  0.4334200E-01  0.9118800E+02  0.7818609E-02  0.1379984E+01
      -11   -1    0    0    0    0  0.00000000000E+00  0.00000000000E+00  0.35740347158E-01  0.35744000000E-01  0.51099999109E-03 0. -1.
       11   -1    0    0    0    0 -0.00000000000E+00 -0.00000000000E+00 -0.35740347158E-01  0.35744000000E-01  0.51099999109E-03 0.  1.
       22    1    1    2    0    0  0.12137828307E-01  0.22799901853E-01  0.84486421450E-02  0.27176128396E-01  0.00000000000E+00 0.  1.
  9000001    1    1    2    0    0 -0.12137828307E-01 -0.22799901853E-01 -0.84486421450E-02  0.44311871604E-01  0.35000000149E-01 0. -1.
</event>
<event>
 4   0  0.4334200E-01  0.9118800E+02  0.7818609E-02  0.1379984E+01
      -11   -1    0    0    0    0  0.00000000000E+00  0.00000000000E+00  0.35740347158E-01  0.35744000000E-01  0.51099999109E-03 0.  1.
       11   -1    0    0    0    0 -0.00000000000E+00 -0.00000000000E+00 -0.35740347158E-01  0.35744000000E-01  0.51099999109E-03 0. -1.
       22    1    1    2    0    0  0.51387501803E-03 -0.27109076460E-01  0.18373515099E-02  0.27176128396E-01  0.00000000000E+00 0. -1.
  9000001    1    1    2    0    0 -0.51387501803E-03  0.27109076460E-01 -0.18373515099E-02  0.44311871604E-01  0.35000000149E-01 0.  1.
</event>
<event>
 4   0  0.4334200E-01  0.9118800E+02  0.7818609E-02  0.1379984E+01
      -11   -1    0    0    0    0  0.00000000000E+00  0.00000000000E+00  0.35740347158E-01  0.35744000000E-01  0.51099999109E-03 0.  1.
       11   -1    0    0    0    0 -0.00000000000E+00 -0.00000000000E+00 -0.35740347158E-01  0.35744000000E-01  0.51099999109E-03 0. -1.
       22    1    1    2    0    0  0.76592135525E-02  0.12811599961E-01  0.22709938547E-01  0.27176128396E-01  0.00000000000E+00 0.  1.
  9000001    1    1    2    0    0 -0.76592135525E-02 -0.12811599961E-01 -0.22709938547E-01  0.44311871604E-01  0.35000000149E-01 0. -1.
</event>
<event>
 4   0  0.4334200E-01  0.9118800E+02  0.7818609E-02  0.1379984E+01
      -11   -1    0    0    0    0  0.00000000000E+00  0.00000000000E+00  0.35740347158E-01  0.35744000000E-01  0.51099999109E-03 0.  1.
       11   -1    0    0    0    0 -0.00000000000E+00 -0.00000000000E+00 -0.35740347158E-01  0.35744000000E-01  0.51099999109E-03 0. -1.
       22    1    1    2    0    0  0.14785371011E-03  0.54987449852E-02 -0.26613603617E-01  0.27176128396E-01  0.00000000000E+00 0. -1.
  9000001    1    1    2    0    0 -0.14785371011E-03 -0.54987449852E-02  0.26613603617E-01  0.44311871604E-01  0.35000000149E-01 0.  1.
</event>
<event>
 4   0  0.4334200E-01  0.9118800E+02  0.7818609E-02  0.1379984E+01
      -11   -1    0    0    0    0  0.00000000000E+00  0.00000000000E+00  0.35740347158E-01  0.35744000000E-01  0.51099999109E-03 0. -1.
       11   -1    0    0    0    0 -0.00000000000E+00 -0.00000000000E+00 -0.35740347158E-01  0.35744000000E-01  0.51099999109E-03 0.  1.
       22    1    1    2    0    0  0.53074959341E-02 -0.22481540754E-01  0.14316171515E-01  0.27176128396E-01  0.00000000000E+00 0.  1.
  9000001    1    1    2    0    0 -0.53074959341E-02  0.22481540754E-01 -0.14316171515E-01  0.44311871604E-01  0.35000000149E-01 0. -1.
</event>
<event>
 4   0  0.4334200E-01  0.9118800E+02  0.7818609E-02  0.1379984E+01
      -11   -1    0    0    0    0  0.00000000000E+00  0.00000000000E+00  0.35740347158E-01  0.35744000000E-01  0.51099999109E-03 0.  1.
       11   -1    0    0    0    0 -0.00000000000E+00 -0.00000000000E+00 -0.35740347158E-01  0.35744000000E-01  0.51099999109E-03 0. -1.
       22    1    1    2    0    0  0.55961505473E-02  0.30719601247E-02 -0.26415679333E-01  0.27176128396E-01  0.00000000000E+00 0. -1.
  9000001    1    1    2    0    0 -0.55961505473E-02 -0.30719601247E-02  0.26415679333E-01  0.44311871604E-01  0.35000000149E-01 0.  1.
</event>
<event>
 4   0  0.4334200E-01  0.9118800E+02  0.7818609E-02  0.1379984E+01
      -11   -1    0    0    0    0  0.00000000000E+00  0.00000000000E+00  0.35740347158E-01  0.35744000000E-01  0.51099999109E-03 0. -1.
       11   -1    0    0    0    0 -0.00000000000E+00 -0.00000000000E+00 -0.35740347158E-01  0.35744000000E-01  0.51099999109E-03 0.  1.
       22    1    1    2    0    0  0.11679697115E-01 -0.49841792319E-02 -0.24026747331E-01  0.27176128396E-01  0.00000000000E+00 0.  1.
  9000001    1    1    2    0    0 -0.11679697115E-01  0.49841792319E-02  0.24026747331E-01  0.44311871604E-01  0.35000000149E-01 0. -1.
</event>
<event>
 4   0  0.4334200E-01  0.9118800E+02  0.7818609E-02  0.1379984E+01
      -11   -1    0    0    0    0  0.00000000000E+00  0.00000000000E+00  0.35740347158E-01  0.35744000000E-01  0.51099999109E-03 0. -1.
       11   -1    0    0    0    0 -0.00000000000E+00 -0.00000000000E+00 -0.35740347158E-01  0.35744000000E-01  0.51099999109E-03 0.  1.
       22    1    1    2    0    0  0.58956982086E-04 -0.56877564875E-02  0.26574196221E-01  0.27176128396E-01  0.00000000000E+00 0. -1.
  9000001    1    1    2    0    0 -0.58956982086E-04  0.56877564875E-02 -0.26574196221E-01  0.44311871604E-01  0.35000000149E-01 0.  1.
</event>
<event>
 4   0  0.4334200E-01  0.9118800E+02  0.7818609E-02  0.1379984E+01
      -11   -1    0    0    0    0  0.00000000000E+00  0.00000000000E+00  0.35740347158E-01  0.35744000000E-01  0.51099999109E-03 0.  1.
       11   -1    0    0    0    0 -0.00000000000E+00 -0.00000000000E+00 -0.35740347158E-01  0.35744000000E-01  0.51099999109E-03 0. -1.
       22    1    1    2    0    0 -0.25780373849E-01 -0.26780138418E-02 -0.81696095799E-02  0.27176128396E-01  0.00000000000E+00 0. -1.
  9000001    1    1    2    0    0  0.25780373849E-01  0.26780138418E-02  0.81696095799E-02  0.44311871604E-01  0.35000000149E-01 0.  1.
</event>
<event>
 4   0  0.4334200E-01  0.9118800E+02  0.7818609E-02  0.1379984E+01
      -11   -1    0    0    0    0  0.00000000000E+00  0.00000000000E+00  0.35740347158E-01  0.35744000000E-01  0.51099999109E-03 0. -1.
       11   -1    0    0    0    0 -0.00000000000E+00 -0.00000000000E+00 -0.35740347158E-01  0.35744000000E-01  0.51099999109E-03 0.  1.
       22    1    1    2    0    0 -0.11595164677E-01 -0.84394396877E-02  0.23083976444E-01  0.27176128396E-01  0.00000000000E+00 0. -1.
  9000001    1    1    2    0    0  0.11595164677E-01  0.84394396877E-02 -0.23083976444E-01  0.44311871604E-01  0.35000000149E-01 0.  1.
</event>
<event>
 4   0  0.4334200E-01  0.9118800E+02  0.7818609E-02  0.1379984E+01
      -11   -1    0    0    0    0  0.00000000000E+00  0.00000000000E+00  0.35740347158E-01  0.35744000000E-01  0.51099999109E-03 0.  1.
       11   -1    0    0    0    0 -0.00000000000E+00 -0.00000000000E+00 -0.35740347158E-01  0.35744000000E-01  0.51099999109E-03 0. -1.
       22    1    1    2    0    0 -0.43781999008E-02  0.25564145189E-02  0.26699027418E-01  0.27176128396E-01  0.00000000000E+00 0.  1.
  9000001    1    1    2    0    0  0.43781999008E-02 -0.25564145189E-02 -0.26699027418E-01  0.44311871604E-01  0.35000000149E-01 0. -1.
</event>
<event>
 4   0  0.4334200E-01  0.9118800E+02  0.7818609E-02  0.1379984E+01
      -11   -1    0    0    0    0  0.00000000000E+00  0.00000000000E+00  0.35740347158E-01  0.35744000000E-01  0.51099999109E-03 0. -1.
       11   -1    0    0    0    0 -0.00000000000E+00 -0.00000000000E+00 -0.35740347158E-01  0.35744000000E-01  0.51099999109E-03 0.  1.
       22    1    1    2    0    0 -0.13829928476E-02  0.48585638850E-02 -0.26702502549E-01  0.27176128396E-01  0.00000000000E+00 0.  1.
  9000001    1    1    2    0    0  0.13829928476E-02 -0.48585638850E-02  0.26702502549E-01  0.44311871604E-01  0.35000000149E-01 0. -1.
</event>
<event>
 4   0  0.4334200E-01  0.9118800E+02  0.7818609E-02  0.1379984E+01
      -11   -1    0    0    0    0  0.00000000000E+00  0.00000000000E+00  0.35740347158E-01  0.35744000000E-01  0.51099999109E-03 0. -1.
       11   -1    0    0    0    0 -0.00000000000E+00 -0.00000000000E+00 -0.35740347158E-01  0.35744000000E-01  0.51099999109E-03 0.  1.
       22    1    1    2    0    0  0.41738051143E-02 -0.47543358472E-02  0.26429483463E-01  0.27176128396E-01  0.00000000000E+00 0. -1.
  9000001    1    1    2    0    0 -0.41738051143E-02  0.47543358472E-02 -0.26429483463E-01  0.44311871604E-01  0.35000000149E-01 0.  1.
</event>
<event>
 4   0  0.4334200E-01  0.9118800E+02  0.7818609E-02  0.1379984E+01
      -11   -1    0    0    0    0  0.00000000000E+00  0.00000000000E+00  0.35740347158E-01  0.35744000000E-01  0.51099999109E-03 0. -1.
       11   -1    0    0    0    0 -0.00000000000E+00 -0.00000000000E+00 -0.35740347158E-01  0.35744000000E-01  0.51099999109E-03 0.  1.
       22    1    1    2    0    0  0.26290528828E-02  0.22780323866E-01  0.14583788263E-01  0.27176128396E-01  0.00000000000E+00 0. -1.
  9000001    1    1    2    0    0 -0.26290528828E-02 -0.22780323866E-01 -0.14583788263E-01  0.44311871604E-01  0.35000000149E-01 0.  1.
</event>
<event>
 4   0  0.4334200E-01  0.9118800E+02  0.7818609E-02  0.1379984E+01
      -11   -1    0    0    0    0  0.00000000000E+00  0.00000000000E+00  0.35740347158E-01  0.35744000000E-01  0.51099999109E-03 0. -1.
       11   -1    0    0    0    0 -0.00000000000E+00 -0.00000000000E+00 -0.35740347158E-01  0.35744000000E-01  0.51099999109E-03 0.  1.
       22    1    1    2    0    0 -0.15173987538E-02 -0.27691604055E-02  0.26992058207E-01  0.27176128396E-01  0.00000000000E+00 0. -1.
  9000001    1    1    2    0    0  0.15173987538E-02  0.27691604055E-02 -0.26992058207E-01  0.44311871604E-01  0.35000000149E-01 0.  1.
</event>
<event>
 4   0  0.4334200E-01  0.9118800E+02  0.7818609E-02  0.1379984E+01
      -11   -1    0    0    0    0  0.00000000000E+00  0.00000000000E+00  0.35740347158E-01  0.35744000000E-01  0.51099999109E-03 0.  1.
       11   -1    0    0    0    0 -0.00000000000E+00 -0.00000000000E+00 -0.35740347158E-01  0.35744000000E-01  0.51099999109E-03 0. -1.
       22    1    1    2    0    0  0.18848136426E-02  0.32044782904E-02 -0.26920638013E-01  0.27176128396E-01  0.00000000000E+00 0. -1.
  9000001    1    1    2    0    0 -0.18848136426E-02 -0.32044782904E-02  0.26920638013E-01  0.44311871604E-01  0.35000000149E-01 0.  1.
</event>
<event>
 4   0  0.4334200E-01  0.9118800E+02  0.7818609E-02  0.1379984E+01
      -11   -1    0    0    0    0  0.00000000000E+00  0.00000000000E+00  0.35740347158E-01  0.35744000000E-01  0.51099999109E-03 0. -1.
       11   -1    0    0    0    0 -0.00000000000E+00 -0.00000000000E+00 -0.35740347158E-01  0.35744000000E-01  0.51099999109E-03 0.  1.
       22    1    1    2    0    0 -0.16156290136E-01 -0.11104112296E-02  0.21823914190E-01  0.27176128396E-01  0.00000000000E+00 0. -1.
  9000001    1    1    2    0    0  0.16156290136E-01  0.11104112296E-02 -0.21823914190E-01  0.44311871604E-01  0.35000000149E-01 0.  1.
</event>
<event>
 4   0  0.4334200E-01  0.9118800E+02  0.7818609E-02  0.1379984E+01
      -11   -1    0    0    0    0  0.00000000000E+00  0.00000000000E+00  0.35740347158E-01  0.35744000000E-01  0.51099999109E-03 0.  1.
       11   -1    0    0    0    0 -0.00000000000E+00 -0.00000000000E+00 -0.35740347158E-01  0.35744000000E-01  0.51099999109E-03 0. -1.
       22    1    1    2    0    0 -0.20175395469E-02 -0.45636289380E-02 -0.26714130712E-01  0.27176128396E-01  0.00000000000E+00 0. -1.
  9000001    1    1    2    0    0  0.20175395469E-02  0.45636289380E-02  0.26714130712E-01  0.44311871604E-01  0.35000000149E-01 0.  1.
</event>
<event>
 4   0  0.4334200E-01  0.9118800E+02  0.7818609E-02  0.1379984E+01
      -11   -1    0    0    0    0  0.00000000000E+00  0.00000000000E+00  0.35740347158E-01  0.35744000000E-01  0.51099999109E-03 0.  1.
       11   -1    0    0    0    0 -0.00000000000E+00 -0.00000000000E+00 -0.35740347158E-01  0.35744000000E-01  0.51099999109E-03 0. -1.
       22    1    1    2    0    0  0.94829816247E-03 -0.25016343364E-01 -0.10574745854E-01  0.27176128396E-01  0.00000000000E+00 0. -1.
  9000001    1    1    2    0    0 -0.94829816247E-03  0.25016343364E-01  0.10574745854E-01  0.44311871604E-01  0.35000000149E-01 0.  1.
</event>
<event>
 4   0  0.4334200E-01  0.9118800E+02  0.7818609E-02  0.1379984E+01
      -11   -1    0    0    0    0  0.00000000000E+00  0.00000000000E+00  0.35740347158E-01  0.35744000000E-01  0.51099999109E-03 0. -1.
       11   -1    0    0    0    0 -0.00000000000E+00 -0.00000000000E+00 -0.35740347158E-01  0.35744000000E-01  0.51099999109E-03 0.  1.
       22    1    1    2    0    0 -0.18665218733E-01  0.19653930567E-01 -0.19683946549E-02  0.27176128396E-01  0.00000000000E+00 0. -1.
  9000001    1    1    2    0    0  0.18665218733E-01 -0.19653930567E-01  0.19683946549E-02  0.44311871604E-01  0.35000000149E-01 0.  0.
</event>
<event>
 4   0  0.4334200E-01  0.9118800E+02  0.7818609E-02  0.1379984E+01
      -11   -1    0    0    0    0  0.00000000000E+00  0.00000000000E+00  0.35740347158E-01  0.35744000000E-01  0.51099999109E-03 0.  1.
       11   -1    0    0    0    0 -0.00000000000E+00 -0.00000000000E+00 -0.35740347158E-01  0.35744000000E-01  0.51099999109E-03 0. -1.
       22    1    1    2    0    0  0.30857968802E-02 -0.51524139299E-03  0.26995450330E-01  0.27176128396E-01  0.00000000000E+00 0.  1.
  9000001    1    1    2    0    0 -0.30857968802E-02  0.51524139299E-03 -0.26995450330E-01  0.44311871604E-01  0.35000000149E-01 0. -1.
</event>
<event>
 4   0  0.4334200E-01  0.9118800E+02  0.7818609E-02  0.1379984E+01
      -11   -1    0    0    0    0  0.00000000000E+00  0.00000000000E+00  0.35740347158E-01  0.35744000000E-01  0.51099999109E-03 0.  1.
       11   -1    0    0    0    0 -0.00000000000E+00 -0.00000000000E+00 -0.35740347158E-01  0.35744000000E-01  0.51099999109E-03 0. -1.
       22    1    1    2    0    0  0.58967542059E-02  0.92140072824E-02  0.24877144415E-01  0.27176128396E-01  0.00000000000E+00 0. -1.
  9000001    1    1    2    0    0 -0.58967542059E-02 -0.92140072824E-02 -0.24877144415E-01  0.44311871604E-01  0.35000000149E-01 0. -1.
</event>
<event>
 4   0  0.4334200E-01  0.9118800E+02  0.7818609E-02  0.1379984E+01
      -11   -1    0    0    0    0  0.00000000000E+00  0.00000000000E+00  0.35740347158E-01  0.35744000000E-01  0.51099999109E-03 0.  1.
       11   -1    0    0    0    0 -0.00000000000E+00 -0.00000000000E+00 -0.35740347158E-01  0.35744000000E-01  0.51099999109E-03 0. -1.
       22    1    1    2    0    0 -0.24693308330E-02 -0.19003391988E-02  0.26996908541E-01  0.27176128396E-01  0.00000000000E+00 0.  1.
  9000001    1    1    2    0    0  0.24693308330E-02  0.19003391988E-02 -0.26996908541E-01  0.44311871604E-01  0.35000000149E-01 0. -1.
</event>
<event>
 4   0  0.4334200E-01  0.9118800E+02  0.7818609E-02  0.1379984E+01
      -11   -1    0    0    0    0  0.00000000000E+00  0.00000000000E+00  0.35740347158E-01  0.35744000000E-01  0.51099999109E-03 0.  1.
       11   -1    0    0    0    0 -0.00000000000E+00 -0.00000000000E+00 -0.35740347158E-01  0.35744000000E-01  0.51099999109E-03 0. -1.
       22    1    1    2    0    0  0.20597722650E-01  0.60530289515E-02  0.16662431297E-01  0.27176128396E-01  0.00000000000E+00 0.  1.
  9000001    1    1    2    0    0 -0.20597722650E-01 -0.60530289515E-02 -0.16662431297E-01  0.44311871604E-01  0.35000000149E-01 0. -1.
</event>
<event>
 4   0  0.4334200E-01  0.9118800E+02  0.7818609E-02  0.1379984E+01
      -11   -1    0    0    0    0  0.00000000000E+00  0.00000000000E+00  0.35740347158E-01  0.35744000000E-01  0.51099999109E-03 0.  1.
       11   -1    0    0    0    0 -0.00000000000E+00 -0.00000000000E+00 -0.35740347158E-01  0.35744000000E-01  0.51099999109E-03 0. -1.
       22    1    1    2    0    0  0.27169770653E-01 -0.57108694482E-03 -0.13920110257E-03  0.27176128396E-01  0.00000000000E+00 0.  1.
  9000001    1    1    2    0    0 -0.27169770653E-01  0.57108694482E-03  0.13920110257E-03  0.44311871604E-01  0.35000000149E-01 0.  0.
</event>
<event>
 4   0  0.4334200E-01  0.9118800E+02  0.7818609E-02  0.1379984E+01
      -11   -1    0    0    0    0  0.00000000000E+00  0.00000000000E+00  0.35740347158E-01  0.35744000000E-01  0.51099999109E-03 0.  1.
       11   -1    0    0    0    0 -0.00000000000E+00 -0.00000000000E+00 -0.35740347158E-01  0.35744000000E-01  0.51099999109E-03 0. -1.
       22    1    1    2    0    0  0.20769604998E-01  0.88505307341E-02 -0.15127245902E-01  0.27176128396E-01  0.00000000000E+00 0. -1.
  9000001    1    1    2    0    0 -0.20769604998E-01 -0.88505307341E-02  0.15127245902E-01  0.44311871604E-01  0.35000000149E-01 0.  1.
</event>
<event>
 4   0  0.4334200E-01  0.9118800E+02  0.7818609E-02  0.1379984E+01
      -11   -1    0    0    0    0  0.00000000000E+00  0.00000000000E+00  0.35740347158E-01  0.35744000000E-01  0.51099999109E-03 0.  1.
       11   -1    0    0    0    0 -0.00000000000E+00 -0.00000000000E+00 -0.35740347158E-01  0.35744000000E-01  0.51099999109E-03 0. -1.
       22    1    1    2    0    0  0.11966772693E-01 -0.23941135384E-01  0.47074772889E-02  0.27176128396E-01  0.00000000000E+00 0. -1.
  9000001    1    1    2    0    0 -0.11966772693E-01  0.23941135384E-01 -0.47074772889E-02  0.44311871604E-01  0.35000000149E-01 0.  1.
</event>
<event>
 4   0  0.4334200E-01  0.9118800E+02  0.7818609E-02  0.1379984E+01
      -11   -1    0    0    0    0  0.00000000000E+00  0.00000000000E+00  0.35740347158E-01  0.35744000000E-01  0.51099999109E-03 0.  1.
       11   -1    0    0    0    0 -0.00000000000E+00 -0.00000000000E+00 -0.35740347158E-01  0.35744000000E-01  0.51099999109E-03 0. -1.
       22    1    1    2    0    0  0.49942772109E-02 -0.31417739130E-02  0.26527879795E-01  0.27176128396E-01  0.00000000000E+00 0.  1.
  9000001    1    1    2    0    0 -0.49942772109E-02  0.31417739130E-02 -0.26527879795E-01  0.44311871604E-01  0.35000000149E-01 0. -1.
</event>
<event>
 4   0  0.4334200E-01  0.9118800E+02  0.7818609E-02  0.1379984E+01
      -11   -1    0    0    0    0  0.00000000000E+00  0.00000000000E+00  0.35740347158E-01  0.35744000000E-01  0.51099999109E-03 0.  1.
       11   -1    0    0    0    0 -0.00000000000E+00 -0.00000000000E+00 -0.35740347158E-01  0.35744000000E-01  0.51099999109E-03 0. -1.
       22    1    1    2    0    0  0.58645691766E-02 -0.26107296257E-02 -0.26407061059E-01  0.27176128396E-01  0.00000000000E+00 0. -1.
  9000001    1    1    2    0    0 -0.58645691766E-02  0.26107296257E-02  0.26407061059E-01  0.44311871604E-01  0.35000000149E-01 0.  1.
</event>
<event>
 4   0  0.4334200E-01  0.9118800E+02  0.7818609E-02  0.1379984E+01
      -11   -1    0    0    0    0  0.00000000000E+00  0.00000000000E+00  0.35740347158E-01  0.35744000000E-01  0.51099999109E-03 0. -1.
       11   -1    0    0    0    0 -0.00000000000E+00 -0.00000000000E+00 -0.35740347158E-01  0.35744000000E-01  0.51099999109E-03 0.  1.
       22    1    1    2    0    0 -0.47057661020E-02  0.62091092975E-03  0.26758404093E-01  0.27176128396E-01  0.00000000000E+00 0. -1.
  9000001    1    1    2    0    0  0.47057661020E-02 -0.62091092975E-03 -0.26758404093E-01  0.44311871604E-01  0.35000000149E-01 0.  1.
</event>
<event>
 4   0  0.4334200E-01  0.9118800E+02  0.7818609E-02  0.1379984E+01
      -11   -1    0    0    0    0  0.00000000000E+00  0.00000000000E+00  0.35740347158E-01  0.35744000000E-01  0.51099999109E-03 0.  1.
       11   -1    0    0    0    0 -0.00000000000E+00 -0.00000000000E+00 -0.35740347158E-01  0.35744000000E-01  0.51099999109E-03 0. -1.
       22    1    1    2    0    0  0.87793472526E-02 -0.75572114065E-04 -0.25718851166E-01  0.27176128396E-01  0.00000000000E+00 0. -1.
  9000001    1    1    2    0    0 -0.87793472526E-02  0.75572114065E-04  0.25718851166E-01  0.44311871604E-01  0.35000000149E-01 0.  1.
</event>
<event>
 4   0  0.4334200E-01  0.9118800E+02  0.7818609E-02  0.1379984E+01
      -11   -1    0    0    0    0  0.00000000000E+00  0.00000000000E+00  0.35740347158E-01  0.35744000000E-01  0.51099999109E-03 0. -1.
       11   -1    0    0    0    0 -0.00000000000E+00 -0.00000000000E+00 -0.35740347158E-01  0.35744000000E-01  0.51099999109E-03 0.  1.
       22    1    1    2    0    0  0.51541532495E-02 -0.12279150534E-01 -0.23689641640E-01  0.27176128396E-01  0.00000000000E+00 0.  1.
  9000001    1    1    2    0    0 -0.51541532495E-02  0.12279150534E-01  0.23689641640E-01  0.44311871604E-01  0.35000000149E-01 0. -1.
</event>
<event>
 4   0  0.4334200E-01  0.9118800E+02  0.7818609E-02  0.1379984E+01
      -11   -1    0    0    0    0  0.00000000000E+00  0.00000000000E+00  0.35740347158E-01  0.35744000000E-01  0.51099999109E-03 0. -1.
       11   -1    0    0    0    0 -0.00000000000E+00 -0.00000000000E+00 -0.35740347158E-01  0.35744000000E-01  0.51099999109E-03 0.  1.
       22    1    1    2    0    0 -0.43078184011E-02 -0.74776522791E-02  0.25769543489E-01  0.27176128396E-01  0.00000000000E+00 0.  1.
  9000001    1    1    2    0    0  0.43078184011E-02  0.74776522791E-02 -0.25769543489E-01  0.44311871604E-01  0.35000000149E-01 0.  1.
</event>
<event>
 4   0  0.4334200E-01  0.9118800E+02  0.7818609E-02  0.1379984E+01
      -11   -1    0    0    0    0  0.00000000000E+00  0.00000000000E+00  0.35740347158E-01  0.35744000000E-01  0.51099999109E-03 0. -1.
       11   -1    0    0    0    0 -0.00000000000E+00 -0.00000000000E+00 -0.35740347158E-01  0.35744000000E-01  0.51099999109E-03 0.  1.
       22    1    1    2    0    0  0.84898954039E-02  0.13228468642E-02  0.25782042332E-01  0.27176128396E-01  0.00000000000E+00 0. -1.
  9000001    1    1    2    0    0 -0.84898954039E-02 -0.13228468642E-02 -0.25782042332E-01  0.44311871604E-01  0.35000000149E-01 0.  1.
</event>
<event>
 4   0  0.4334200E-01  0.9118800E+02  0.7818609E-02  0.1379984E+01
      -11   -1    0    0    0    0  0.00000000000E+00  0.00000000000E+00  0.35740347158E-01  0.35744000000E-01  0.51099999109E-03 0. -1.
       11   -1    0    0    0    0 -0.00000000000E+00 -0.00000000000E+00 -0.35740347158E-01  0.35744000000E-01  0.51099999109E-03 0.  1.
       22    1    1    2    0    0  0.12196021422E-01 -0.76326509994E-02 -0.23055187156E-01  0.27176128396E-01  0.00000000000E+00 0.  1.
  9000001    1    1    2    0    0 -0.12196021422E-01  0.76326509994E-02  0.23055187156E-01  0.44311871604E-01  0.35000000149E-01 0. -1.
</event>
<event>
 4   0  0.4334200E-01  0.9118800E+02  0.7818609E-02  0.1379984E+01
      -11   -1    0    0    0    0  0.00000000000E+00  0.00000000000E+00  0.35740347158E-01  0.35744000000E-01  0.51099999109E-03 0.  1.
       11   -1    0    0    0    0 -0.00000000000E+00 -0.00000000000E+00 -0.35740347158E-01  0.35744000000E-01  0.51099999109E-03 0. -1.
       22    1    1    2    0    0 -0.19976585484E-01 -0.16181379454E-01  0.88114099886E-02  0.27176128396E-01  0.00000000000E+00 0.  1.
  9000001    1    1    2    0    0  0.19976585484E-01  0.16181379454E-01 -0.88114099886E-02  0.44311871604E-01  0.35000000149E-01 0. -1.
</event>
<event>
 4   0  0.4334200E-01  0.9118800E+02  0.7818609E-02  0.1379984E+01
      -11   -1    0    0    0    0  0.00000000000E+00  0.00000000000E+00  0.35740347158E-01  0.35744000000E-01  0.51099999109E-03 0.  1.
       11   -1    0    0    0    0 -0.00000000000E+00 -0.00000000000E+00 -0.35740347158E-01  0.35744000000E-01  0.51099999109E-03 0. -1.
       22    1    1    2    0    0 -0.15733967329E-01  0.32496067381E-02 -0.21918583046E-01  0.27176128396E-01  0.00000000000E+00 0.  1.
  9000001    1    1    2    0    0  0.15733967329E-01 -0.32496067381E-02  0.21918583046E-01  0.44311871604E-01  0.35000000149E-01 0. -1.
</event>
<event>
 4   0  0.4334200E-01  0.9118800E+02  0.7818609E-02  0.1379984E+01
      -11   -1    0    0    0    0  0.00000000000E+00  0.00000000000E+00  0.35740347158E-01  0.35744000000E-01  0.51099999109E-03 0. -1.
       11   -1    0    0    0    0 -0.00000000000E+00 -0.00000000000E+00 -0.35740347158E-01  0.35744000000E-01  0.51099999109E-03 0.  1.
       22    1    1    2    0    0 -0.46143483499E-02 -0.94487944982E-02 -0.25059330128E-01  0.27176128396E-01  0.00000000000E+00 0.  1.
  9000001    1    1    2    0    0  0.46143483499E-02  0.94487944982E-02  0.25059330128E-01  0.44311871604E-01  0.35000000149E-01 0. -1.
</event>
<event>
 4   0  0.4334200E-01  0.9118800E+02  0.7818609E-02  0.1379984E+01
      -11   -1    0    0    0    0  0.00000000000E+00  0.00000000000E+00  0.35740347158E-01  0.35744000000E-01  0.51099999109E-03 0.  1.
       11   -1    0    0    0    0 -0.00000000000E+00 -0.00000000000E+00 -0.35740347158E-01  0.35744000000E-01  0.51099999109E-03 0. -1.
       22    1    1    2    0    0  0.63182008909E-02  0.17524176968E-01  0.19787003657E-01  0.27176128396E-01  0.00000000000E+00 0.  1.
  9000001    1    1    2    0    0 -0.63182008909E-02 -0.17524176968E-01 -0.19787003657E-01  0.44311871604E-01  0.35000000149E-01 0. -1.
</event>
<event>
 4   0  0.4334200E-01  0.9118800E+02  0.7818609E-02  0.1379984E+01
      -11   -1    0    0    0    0  0.00000000000E+00  0.00000000000E+00  0.35740347158E-01  0.35744000000E-01  0.51099999109E-03 0. -1.
       11   -1    0    0    0    0 -0.00000000000E+00 -0.00000000000E+00 -0.35740347158E-01  0.35744000000E-01  0.51099999109E-03 0.  1.
       22    1    1    2    0    0 -0.33473920929E-02  0.23707049054E-02  0.26864785110E-01  0.27176128396E-01  0.00000000000E+00 0. -1.
  9000001    1    1    2    0    0  0.33473920929E-02 -0.23707049054E-02 -0.26864785110E-01  0.44311871604E-01  0.35000000149E-01 0.  1.
</event>
<event>
 4   0  0.4334200E-01  0.9118800E+02  0.7818609E-02  0.1379984E+01
      -11   -1    0    0    0    0  0.00000000000E+00  0.00000000000E+00  0.35740347158E-01  0.35744000000E-01  0.51099999109E-03 0. -1.
       11   -1    0    0    0    0 -0.00000000000E+00 -0.00000000000E+00 -0.35740347158E-01  0.35744000000E-01  0.51099999109E-03 0.  1.
       22    1    1    2    0    0  0.15245087868E-01  0.55092903202E-04  0.22497249060E-01  0.27176128396E-01  0.00000000000E+00 0.  1.
  9000001    1    1    2    0    0 -0.15245087868E-01 -0.55092903202E-04 -0.22497249060E-01  0.44311871604E-01  0.35000000149E-01 0.  0.
</event>
<event>
 4   0  0.4334200E-01  0.9118800E+02  0.7818609E-02  0.1379984E+01
      -11   -1    0    0    0    0  0.00000000000E+00  0.00000000000E+00  0.35740347158E-01  0.35744000000E-01  0.51099999109E-03 0.  1.
       11   -1    0    0    0    0 -0.00000000000E+00 -0.00000000000E+00 -0.35740347158E-01  0.35744000000E-01  0.51099999109E-03 0. -1.
       22    1    1    2    0    0 -0.16956910815E-02 -0.15446771451E-01 -0.22294928529E-01  0.27176128396E-01  0.00000000000E+00 0. -1.
  9000001    1    1    2    0    0  0.16956910815E-02  0.15446771451E-01  0.22294928529E-01  0.44311871604E-01  0.35000000149E-01 0.  1.
</event>
<event>
 4   0  0.4334200E-01  0.9118800E+02  0.7818609E-02  0.1379984E+01
      -11   -1    0    0    0    0  0.00000000000E+00  0.00000000000E+00  0.35740347158E-01  0.35744000000E-01  0.51099999109E-03 0. -1.
       11   -1    0    0    0    0 -0.00000000000E+00 -0.00000000000E+00 -0.35740347158E-01  0.35744000000E-01  0.51099999109E-03 0.  1.
       22    1    1    2    0    0  0.12945656577E-01  0.87357937263E-02  0.22240454994E-01  0.27176128396E-01  0.00000000000E+00 0. -1.
  9000001    1    1    2    0    0 -0.12945656577E-01 -0.87357937263E-02 -0.22240454994E-01  0.44311871604E-01  0.35000000149E-01 0.  1.
</event>
<event>
 4   0  0.4334200E-01  0.9118800E+02  0.7818609E-02  0.1379984E+01
      -11   -1    0    0    0    0  0.00000000000E+00  0.00000000000E+00  0.35740347158E-01  0.35744000000E-01  0.51099999109E-03 0.  1.
       11   -1    0    0    0    0 -0.00000000000E+00 -0.00000000000E+00 -0.35740347158E-01  0.35744000000E-01  0.51099999109E-03 0. -1.
       22    1    1    2    0    0  0.40685996216E-02 -0.16971285771E-01  0.20831800474E-01  0.27176128396E-01  0.00000000000E+00 0.  1.
  9000001    1    1    2    0    0 -0.40685996216E-02  0.16971285771E-01 -0.20831800474E-01  0.44311871604E-01  0.35000000149E-01 0. -1.
</event>
<event>
 4   0  0.4334200E-01  0.9118800E+02  0.7818609E-02  0.1379984E+01
      -11   -1    0    0    0    0  0.00000000000E+00  0.00000000000E+00  0.35740347158E-01  0.35744000000E-01  0.51099999109E-03 0.  1.
       11   -1    0    0    0    0 -0.00000000000E+00 -0.00000000000E+00 -0.35740347158E-01  0.35744000000E-01  0.51099999109E-03 0. -1.
       22    1    1    2    0    0 -0.62389764658E-03 -0.20818047617E-01 -0.17457422484E-01  0.27176128396E-01  0.00000000000E+00 0. -1.
  9000001    1    1    2    0    0  0.62389764658E-03  0.20818047617E-01  0.17457422484E-01  0.44311871604E-01  0.35000000149E-01 0.  1.
</event>
<event>
 4   0  0.4334200E-01  0.9118800E+02  0.7818609E-02  0.1379984E+01
      -11   -1    0    0    0    0  0.00000000000E+00  0.00000000000E+00  0.35740347158E-01  0.35744000000E-01  0.51099999109E-03 0.  1.
       11   -1    0    0    0    0 -0.00000000000E+00 -0.00000000000E+00 -0.35740347158E-01  0.35744000000E-01  0.51099999109E-03 0. -1.
       22    1    1    2    0    0  0.19442715365E-01 -0.15636024231E-01 -0.10772071300E-01  0.27176128396E-01  0.00000000000E+00 0. -1.
  9000001    1    1    2    0    0 -0.19442715365E-01  0.15636024231E-01  0.10772071300E-01  0.44311871604E-01  0.35000000149E-01 0.  1.
</event>
<event>
 4   0  0.4334200E-01  0.9118800E+02  0.7818609E-02  0.1379984E+01
      -11   -1    0    0    0    0  0.00000000000E+00  0.00000000000E+00  0.35740347158E-01  0.35744000000E-01  0.51099999109E-03 0.  1.
       11   -1    0    0    0    0 -0.00000000000E+00 -0.00000000000E+00 -0.35740347158E-01  0.35744000000E-01  0.51099999109E-03 0. -1.
       22    1    1    2    0    0 -0.25148863494E-01  0.23227290105E-02  0.10034019609E-01  0.27176128396E-01  0.00000000000E+00 0.  1.
  9000001    1    1    2    0    0  0.25148863494E-01 -0.23227290105E-02 -0.10034019609E-01  0.44311871604E-01  0.35000000149E-01 0. -1.
</event>
<event>
 4   0  0.4334200E-01  0.9118800E+02  0.7818609E-02  0.1379984E+01
      -11   -1    0    0    0    0  0.00000000000E+00  0.00000000000E+00  0.35740347158E-01  0.35744000000E-01  0.51099999109E-03 0.  1.
       11   -1    0    0    0    0 -0.00000000000E+00 -0.00000000000E+00 -0.35740347158E-01  0.35744000000E-01  0.51099999109E-03 0. -1.
       22    1    1    2    0    0 -0.43850032805E-02 -0.63307119934E-02 -0.26062152376E-01  0.27176128396E-01  0.00000000000E+00 0. -1.
  9000001    1    1    2    0    0  0.43850032805E-02  0.63307119934E-02  0.26062152376E-01  0.44311871604E-01  0.35000000149E-01 0.  1.
</event>
<event>
 4   0  0.4334200E-01  0.9118800E+02  0.7818609E-02  0.1379984E+01
      -11   -1    0    0    0    0  0.00000000000E+00  0.00000000000E+00  0.35740347158E-01  0.35744000000E-01  0.51099999109E-03 0.  1.
       11   -1    0    0    0    0 -0.00000000000E+00 -0.00000000000E+00 -0.35740347158E-01  0.35744000000E-01  0.51099999109E-03 0. -1.
       22    1    1    2    0    0 -0.10430617609E-01 -0.59208897317E-02  0.24386209949E-01  0.27176128396E-01  0.00000000000E+00 0.  1.
  9000001    1    1    2    0    0  0.10430617609E-01  0.59208897317E-02 -0.24386209949E-01  0.44311871604E-01  0.35000000149E-01 0. -1.
</event>
<event>
 4   0  0.4334200E-01  0.9118800E+02  0.7818609E-02  0.1379984E+01
      -11   -1    0    0    0    0  0.00000000000E+00  0.00000000000E+00  0.35740347158E-01  0.35744000000E-01  0.51099999109E-03 0.  1.
       11   -1    0    0    0    0 -0.00000000000E+00 -0.00000000000E+00 -0.35740347158E-01  0.35744000000E-01  0.51099999109E-03 0. -1.
       22    1    1    2    0    0 -0.83874258961E-02 -0.25793197042E-01 -0.17041208236E-02  0.27176128396E-01  0.00000000000E+00 0. -1.
  9000001    1    1    2    0    0  0.83874258961E-02  0.25793197042E-01  0.17041208236E-02  0.44311871604E-01  0.35000000149E-01 0.  0.
</event>
<event>
 4   0  0.4334200E-01  0.9118800E+02  0.7818609E-02  0.1379984E+01
      -11   -1    0    0    0    0  0.00000000000E+00  0.00000000000E+00  0.35740347158E-01  0.35744000000E-01  0.51099999109E-03 0.  1.
       11   -1    0    0    0    0 -0.00000000000E+00 -0.00000000000E+00 -0.35740347158E-01  0.35744000000E-01  0.51099999109E-03 0. -1.
       22    1    1    2    0    0 -0.59828469904E-03  0.41716695663E-02  0.26847368271E-01  0.27176128396E-01  0.00000000000E+00 0.  1.
  9000001    1    1    2    0    0  0.59828469904E-03 -0.41716695663E-02 -0.26847368271E-01  0.44311871604E-01  0.35000000149E-01 0. -1.
</event>
<event>
 4   0  0.4334200E-01  0.9118800E+02  0.7818609E-02  0.1379984E+01
      -11   -1    0    0    0    0  0.00000000000E+00  0.00000000000E+00  0.35740347158E-01  0.35744000000E-01  0.51099999109E-03 0.  1.
       11   -1    0    0    0    0 -0.00000000000E+00 -0.00000000000E+00 -0.35740347158E-01  0.35744000000E-01  0.51099999109E-03 0. -1.
       22    1    1    2    0    0 -0.81892239119E-02  0.56502070045E-02  0.25289399501E-01  0.27176128396E-01  0.00000000000E+00 0.  1.
  9000001    1    1    2    0    0  0.81892239119E-02 -0.56502070045E-02 -0.25289399501E-01  0.44311871604E-01  0.35000000149E-01 0. -1.
</event>
<event>
 4   0  0.4334200E-01  0.9118800E+02  0.7818609E-02  0.1379984E+01
      -11   -1    0    0    0    0  0.00000000000E+00  0.00000000000E+00  0.35740347158E-01  0.35744000000E-01  0.51099999109E-03 0.  1.
       11   -1    0    0    0    0 -0.00000000000E+00 -0.00000000000E+00 -0.35740347158E-01  0.35744000000E-01  0.51099999109E-03 0. -1.
       22    1    1    2    0    0  0.56604478270E-02  0.28450586036E-02 -0.26427389704E-01  0.27176128396E-01  0.00000000000E+00 0. -1.
  9000001    1    1    2    0    0 -0.56604478270E-02 -0.28450586036E-02  0.26427389704E-01  0.44311871604E-01  0.35000000149E-01 0.  1.
</event>
<event>
 4   0  0.4334200E-01  0.9118800E+02  0.7818609E-02  0.1379984E+01
      -11   -1    0    0    0    0  0.00000000000E+00  0.00000000000E+00  0.35740347158E-01  0.35744000000E-01  0.51099999109E-03 0.  1.
       11   -1    0    0    0    0 -0.00000000000E+00 -0.00000000000E+00 -0.35740347158E-01  0.35744000000E-01  0.51099999109E-03 0. -1.
       22    1    1    2    0    0 -0.17978912378E-01  0.33588376998E-02  0.20100220735E-01  0.27176128396E-01  0.00000000000E+00 0.  1.
  9000001    1    1    2    0    0  0.17978912378E-01 -0.33588376998E-02 -0.20100220735E-01  0.44311871604E-01  0.35000000149E-01 0. -1.
</event>
<event>
 4   0  0.4334200E-01  0.9118800E+02  0.7818609E-02  0.1379984E+01
      -11   -1    0    0    0    0  0.00000000000E+00  0.00000000000E+00  0.35740347158E-01  0.35744000000E-01  0.51099999109E-03 0. -1.
       11   -1    0    0    0    0 -0.00000000000E+00 -0.00000000000E+00 -0.35740347158E-01  0.35744000000E-01  0.51099999109E-03 0.  1.
       22    1    1    2    0    0 -0.69157823824E-02  0.24022079113E-01 -0.10660845356E-01  0.27176128396E-01  0.00000000000E+00 0. -1.
  9000001    1    1    2    0    0  0.69157823824E-02 -0.24022079113E-01  0.10660845356E-01  0.44311871604E-01  0.35000000149E-01 0.  1.
</event>
<event>
 4   0  0.4334200E-01  0.9118800E+02  0.7818609E-02  0.1379984E+01
      -11   -1    0    0    0    0  0.00000000000E+00  0.00000000000E+00  0.35740347158E-01  0.35744000000E-01  0.51099999109E-03 0.  1.
       11   -1    0    0    0    0 -0.00000000000E+00 -0.00000000000E+00 -0.35740347158E-01  0.35744000000E-01  0.51099999109E-03 0. -1.
       22    1    1    2    0    0 -0.63475068009E-02  0.68527502651E-03  0.26415554322E-01  0.27176128396E-01  0.00000000000E+00 0.  1.
  9000001    1    1    2    0    0  0.63475068009E-02 -0.68527502651E-03 -0.26415554322E-01  0.44311871604E-01  0.35000000149E-01 0. -1.
</event>
<event>
 4   0  0.4334200E-01  0.9118800E+02  0.7818609E-02  0.1379984E+01
      -11   -1    0    0    0    0  0.00000000000E+00  0.00000000000E+00  0.35740347158E-01  0.35744000000E-01  0.51099999109E-03 0. -1.
       11   -1    0    0    0    0 -0.00000000000E+00 -0.00000000000E+00 -0.35740347158E-01  0.35744000000E-01  0.51099999109E-03 0.  1.
       22    1    1    2    0    0  0.10625945838E-01 -0.10059334078E-02  0.24992385393E-01  0.27176128396E-01  0.00000000000E+00 0. -1.
  9000001    1    1    2    0    0 -0.10625945838E-01  0.10059334078E-02 -0.24992385393E-01  0.44311871604E-01  0.35000000149E-01 0.  1.
</event>
<event>
 4   0  0.4334200E-01  0.9118800E+02  0.7818609E-02  0.1379984E+01
      -11   -1    0    0    0    0  0.00000000000E+00  0.00000000000E+00  0.35740347158E-01  0.35744000000E-01  0.51099999109E-03 0.  1.
       11   -1    0    0    0    0 -0.00000000000E+00 -0.00000000000E+00 -0.35740347158E-01  0.35744000000E-01  0.51099999109E-03 0. -1.
       22    1    1    2    0    0 -0.12838529281E-01 -0.96433359031E-02  0.21925332225E-01  0.27176128396E-01  0.00000000000E+00 0.  1.
  9000001    1    1    2    0    0  0.12838529281E-01  0.96433359031E-02 -0.21925332225E-01  0.44311871604E-01  0.35000000149E-01 0. -1.
</event>
<event>
 4   0  0.4334200E-01  0.9118800E+02  0.7818609E-02  0.1379984E+01
      -11   -1    0    0    0    0  0.00000000000E+00  0.00000000000E+00  0.35740347158E-01  0.35744000000E-01  0.51099999109E-03 0. -1.
       11   -1    0    0    0    0 -0.00000000000E+00 -0.00000000000E+00 -0.35740347158E-01  0.35744000000E-01  0.51099999109E-03 0.  1.
       22    1    1    2    0    0  0.35064647247E-02 -0.25141997461E-02  0.26831426712E-01  0.27176128396E-01  0.00000000000E+00 0. -1.
  9000001    1    1    2    0    0 -0.35064647247E-02  0.25141997461E-02 -0.26831426712E-01  0.44311871604E-01  0.35000000149E-01 0.  1.
</event>
<event>
 4   0  0.4334200E-01  0.9118800E+02  0.7818609E-02  0.1379984E+01
      -11   -1    0    0    0    0  0.00000000000E+00  0.00000000000E+00  0.35740347158E-01  0.35744000000E-01  0.51099999109E-03 0.  1.
       11   -1    0    0    0    0 -0.00000000000E+00 -0.00000000000E+00 -0.35740347158E-01  0.35744000000E-01  0.51099999109E-03 0. -1.
       22    1    1    2    0    0 -0.47471126996E-02 -0.76077195482E-03  0.26747487763E-01  0.27176128396E-01  0.00000000000E+00 0.  1.
  9000001    1    1    2    0    0  0.47471126996E-02  0.76077195482E-03 -0.26747487763E-01  0.44311871604E-01  0.35000000149E-01 0. -1.
</event>
<event>
 4   0  0.4334200E-01  0.9118800E+02  0.7818609E-02  0.1379984E+01
      -11   -1    0    0    0    0  0.00000000000E+00  0.00000000000E+00  0.35740347158E-01  0.35744000000E-01  0.51099999109E-03 0. -1.
       11   -1    0    0    0    0 -0.00000000000E+00 -0.00000000000E+00 -0.35740347158E-01  0.35744000000E-01  0.51099999109E-03 0.  1.
       22    1    1    2    0    0 -0.29516348283E-02 -0.66938818035E-02  0.26172920220E-01  0.27176128396E-01  0.00000000000E+00 0. -1.
  9000001    1    1    2    0    0  0.29516348283E-02  0.66938818035E-02 -0.26172920220E-01  0.44311871604E-01  0.35000000149E-01 0.  1.
</event>
<event>
 4   0  0.4334200E-01  0.9118800E+02  0.7818609E-02  0.1379984E+01
      -11   -1    0    0    0    0  0.00000000000E+00  0.00000000000E+00  0.35740347158E-01  0.35744000000E-01  0.51099999109E-03 0.  1.
       11   -1    0    0    0    0 -0.00000000000E+00 -0.00000000000E+00 -0.35740347158E-01  0.35744000000E-01  0.51099999109E-03 0. -1.
       22    1    1    2    0    0 -0.14367221364E-01 -0.13442781521E-02 -0.23028630466E-01  0.27176128396E-01  0.00000000000E+00 0. -1.
  9000001    1    1    2    0    0  0.14367221364E-01  0.13442781521E-02  0.23028630466E-01  0.44311871604E-01  0.35000000149E-01 0.  1.
</event>
<event>
 4   0  0.4334200E-01  0.9118800E+02  0.7818609E-02  0.1379984E+01
      -11   -1    0    0    0    0  0.00000000000E+00  0.00000000000E+00  0.35740347158E-01  0.35744000000E-01  0.51099999109E-03 0. -1.
       11   -1    0    0    0    0 -0.00000000000E+00 -0.00000000000E+00 -0.35740347158E-01  0.35744000000E-01  0.51099999109E-03 0.  1.
       22    1    1    2    0    0 -0.17586133128E-01 -0.15385915867E-01  0.13876003356E-01  0.27176128396E-01  0.00000000000E+00 0. -1.
  9000001    1    1    2    0    0  0.17586133128E-01  0.15385915867E-01 -0.13876003356E-01  0.44311871604E-01  0.35000000149E-01 0.  1.
</event>
<event>
 4   0  0.4334200E-01  0.9118800E+02  0.7818609E-02  0.1379984E+01
      -11   -1    0    0    0    0  0.00000000000E+00  0.00000000000E+00  0.35740347158E-01  0.35744000000E-01  0.51099999109E-03 0.  1.
       11   -1    0    0    0    0 -0.00000000000E+00 -0.00000000000E+00 -0.35740347158E-01  0.35744000000E-01  0.51099999109E-03 0. -1.
       22    1    1    2    0    0  0.14939234375E-01  0.20601294548E-02  0.22607899007E-01  0.27176128396E-01  0.00000000000E+00 0.  1.
  9000001    1    1    2    0    0 -0.14939234375E-01 -0.20601294548E-02 -0.22607899007E-01  0.44311871604E-01  0.35000000149E-01 0. -1.
</event>
<event>
 4   0  0.4334200E-01  0.9118800E+02  0.7818609E-02  0.1379984E+01
      -11   -1    0    0    0    0  0.00000000000E+00  0.00000000000E+00  0.35740347158E-01  0.35744000000E-01  0.51099999109E-03 0. -1.
       11   -1    0    0    0    0 -0.00000000000E+00 -0.00000000000E+00 -0.35740347158E-01  0.35744000000E-01  0.51099999109E-03 0.  1.
       22    1    1    2    0    0 -0.14397266810E-01  0.76909290566E-02  0.21728098703E-01  0.27176128396E-01  0.00000000000E+00 0. -1.
  9000001    1    1    2    0    0  0.14397266810E-01 -0.76909290566E-02 -0.21728098703E-01  0.44311871604E-01  0.35000000149E-01 0.  0.
</event>
<event>
 4   0  0.4334200E-01  0.9118800E+02  0.7818609E-02  0.1379984E+01
      -11   -1    0    0    0    0  0.00000000000E+00  0.00000000000E+00  0.35740347158E-01  0.35744000000E-01  0.51099999109E-03 0.  1.
       11   -1    0    0    0    0 -0.00000000000E+00 -0.00000000000E+00 -0.35740347158E-01  0.35744000000E-01  0.51099999109E-03 0. -1.
       22    1    1    2    0    0 -0.11217677157E-01  0.21178172673E-03  0.24751986230E-01  0.27176128396E-01  0.00000000000E+00 0.  1.
  9000001    1    1    2    0    0  0.11217677157E-01 -0.21178172673E-03 -0.24751986230E-01  0.44311871604E-01  0.35000000149E-01 0. -1.
</event>
<event>
 4   0  0.4334200E-01  0.9118800E+02  0.7818609E-02  0.1379984E+01
      -11   -1    0    0    0    0  0.00000000000E+00  0.00000000000E+00  0.35740347158E-01  0.35744000000E-01  0.51099999109E-03 0. -1.
       11   -1    0    0    0    0 -0.00000000000E+00 -0.00000000000E+00 -0.35740347158E-01  0.35744000000E-01  0.51099999109E-03 0.  1.
       22    1    1    2    0    0  0.26295558271E-02  0.19526660210E-02  0.26978037107E-01  0.27176128396E-01  0.00000000000E+00 0. -1.
  9000001    1    1    2    0    0 -0.26295558271E-02 -0.19526660210E-02 -0.26978037107E-01  0.44311871604E-01  0.35000000149E-01 0.  1.
</event>
<event>
 4   0  0.4334200E-01  0.9118800E+02  0.7818609E-02  0.1379984E+01
      -11   -1    0    0    0    0  0.00000000000E+00  0.00000000000E+00  0.35740347158E-01  0.35744000000E-01  0.51099999109E-03 0. -1.
       11   -1    0    0    0    0 -0.00000000000E+00 -0.00000000000E+00 -0.35740347158E-01  0.35744000000E-01  0.51099999109E-03 0.  1.
       22    1    1    2    0    0 -0.30305816400E-02 -0.52099324713E-02 -0.26499323259E-01  0.27176128396E-01  0.00000000000E+00 0.  1.
  9000001    1    1    2    0    0  0.30305816400E-02  0.52099324713E-02  0.26499323259E-01  0.44311871604E-01  0.35000000149E-01 0. -1.
</event>
<event>
 4   0  0.4334200E-01  0.9118800E+02  0.7818609E-02  0.1379984E+01
      -11   -1    0    0    0    0  0.00000000000E+00  0.00000000000E+00  0.35740347158E-01  0.35744000000E-01  0.51099999109E-03 0. -1.
       11   -1    0    0    0    0 -0.00000000000E+00 -0.00000000000E+00 -0.35740347158E-01  0.35744000000E-01  0.51099999109E-03 0.  1.
       22    1    1    2    0    0 -0.93542407281E-02  0.45890472239E-02  0.25099417933E-01  0.27176128396E-01  0.00000000000E+00 0.  1.
  9000001    1    1    2    0    0  0.93542407281E-02 -0.45890472239E-02 -0.25099417933E-01  0.44311871604E-01  0.35000000149E-01 0.  1.
</event>
<event>
 4   0  0.4334200E-01  0.9118800E+02  0.7818609E-02  0.1379984E+01
      -11   -1    0    0    0    0  0.00000000000E+00  0.00000000000E+00  0.35740347158E-01  0.35744000000E-01  0.51099999109E-03 0. -1.
       11   -1    0    0    0    0 -0.00000000000E+00 -0.00000000000E+00 -0.35740347158E-01  0.35744000000E-01  0.51099999109E-03 0.  1.
       22    1    1    2    0    0 -0.10994611924E-01  0.42116827192E-02  0.24493309125E-01  0.27176128396E-01  0.00000000000E+00 0. -1.
  9000001    1    1    2    0    0  0.10994611924E-01 -0.42116827192E-02 -0.24493309125E-01  0.44311871604E-01  0.35000000149E-01 0.  1.
</event>
<event>
 4   0  0.4334200E-01  0.9118800E+02  0.7818609E-02  0.1379984E+01
      -11   -1    0    0    0    0  0.00000000000E+00  0.00000000000E+00  0.35740347158E-01  0.35744000000E-01  0.51099999109E-03 0.  1.
       11   -1    0    0    0    0 -0.00000000000E+00 -0.00000000000E+00 -0.35740347158E-01  0.35744000000E-01  0.51099999109E-03 0. -1.
       22    1    1    2    0    0 -0.43162880979E-02  0.15127950427E-02 -0.26788487505E-01  0.27176128396E-01  0.00000000000E+00 0. -1.
  9000001    1    1    2    0    0  0.43162880979E-02 -0.15127950427E-02  0.26788487505E-01  0.44311871604E-01  0.35000000149E-01 0.  1.
</event>
<event>
 4   0  0.4334200E-01  0.9118800E+02  0.7818609E-02  0.1379984E+01
      -11   -1    0    0    0    0  0.00000000000E+00  0.00000000000E+00  0.35740347158E-01  0.35744000000E-01  0.51099999109E-03 0. -1.
       11   -1    0    0    0    0 -0.00000000000E+00 -0.00000000000E+00 -0.35740347158E-01  0.35744000000E-01  0.51099999109E-03 0.  1.
       22    1    1    2    0    0 -0.22947677296E-02 -0.25797901955E-01 -0.82306895455E-02  0.27176128396E-01  0.00000000000E+00 0.  1.
  9000001    1    1    2    0    0  0.22947677296E-02  0.25797901955E-01  0.82306895455E-02  0.44311871604E-01  0.35000000149E-01 0. -1.
</event>
<event>
 4   0  0.4334200E-01  0.9118800E+02  0.7818609E-02  0.1379984E+01
      -11   -1    0    0    0    0  0.00000000000E+00  0.00000000000E+00  0.35740347158E-01  0.35744000000E-01  0.51099999109E-03 0.  1.
       11   -1    0    0    0    0 -0.00000000000E+00 -0.00000000000E+00 -0.35740347158E-01  0.35744000000E-01  0.51099999109E-03 0. -1.
       22    1    1    2    0    0  0.14260448109E-01 -0.16198609756E-01  0.16516253095E-01  0.27176128396E-01  0.00000000000E+00 0.  1.
  9000001    1    1    2    0    0 -0.14260448109E-01  0.16198609756E-01 -0.16516253095E-01  0.44311871604E-01  0.35000000149E-01 0. -1.
</event>
<event>
 4   0  0.4334200E-01  0.9118800E+02  0.7818609E-02  0.1379984E+01
      -11   -1    0    0    0    0  0.00000000000E+00  0.00000000000E+00  0.35740347158E-01  0.35744000000E-01  0.51099999109E-03 0.  1.
       11   -1    0    0    0    0 -0.00000000000E+00 -0.00000000000E+00 -0.35740347158E-01  0.35744000000E-01  0.51099999109E-03 0. -1.
       22    1    1    2    0    0  0.70684942040E-02 -0.37818152422E-02  0.25966829182E-01  0.27176128396E-01  0.00000000000E+00 0.  1.
  9000001    1    1    2    0    0 -0.70684942040E-02  0.37818152422E-02 -0.25966829182E-01  0.44311871604E-01  0.35000000149E-01 0. -1.
</event>
<event>
 4   0  0.4334200E-01  0.9118800E+02  0.7818609E-02  0.1379984E+01
      -11   -1    0    0    0    0  0.00000000000E+00  0.00000000000E+00  0.35740347158E-01  0.35744000000E-01  0.51099999109E-03 0. -1.
       11   -1    0    0    0    0 -0.00000000000E+00 -0.00000000000E+00 -0.35740347158E-01  0.35744000000E-01  0.51099999109E-03 0.  1.
       22    1    1    2    0    0 -0.12716544529E-01 -0.73761936532E-02 -0.22856579294E-01  0.27176128396E-01  0.00000000000E+00 0.  1.
  9000001    1    1    2    0    0  0.12716544529E-01  0.73761936532E-02  0.22856579294E-01  0.44311871604E-01  0.35000000149E-01 0. -1.
</event>
<event>
 4   0  0.4334200E-01  0.9118800E+02  0.7818609E-02  0.1379984E+01
      -11   -1    0    0    0    0  0.00000000000E+00  0.00000000000E+00  0.35740347158E-01  0.35744000000E-01  0.51099999109E-03 0. -1.
       11   -1    0    0    0    0 -0.00000000000E+00 -0.00000000000E+00 -0.35740347158E-01  0.35744000000E-01  0.51099999109E-03 0.  1.
       22    1    1    2    0    0  0.25406540664E-02  0.65377864981E-02 -0.26255368579E-01  0.27176128396E-01  0.00000000000E+00 0.  1.
  9000001    1    1    2    0    0 -0.25406540664E-02 -0.65377864981E-02  0.26255368579E-01  0.44311871604E-01  0.35000000149E-01 0. -1.
</event>
<event>
 4   0  0.4334200E-01  0.9118800E+02  0.7818609E-02  0.1379984E+01
      -11   -1    0    0    0    0  0.00000000000E+00  0.00000000000E+00  0.35740347158E-01  0.35744000000E-01  0.51099999109E-03 0.  1.
       11   -1    0    0    0    0 -0.00000000000E+00 -0.00000000000E+00 -0.35740347158E-01  0.35744000000E-01  0.51099999109E-03 0. -1.
       22    1    1    2    0    0  0.39876950946E-02  0.62600214854E-03  0.26874678858E-01  0.27176128396E-01  0.00000000000E+00 0.  1.
  9000001    1    1    2    0    0 -0.39876950946E-02 -0.62600214854E-03 -0.26874678858E-01  0.44311871604E-01  0.35000000149E-01 0. -1.
</event>
<event>
 4   0  0.4334200E-01  0.9118800E+02  0.7818609E-02  0.1379984E+01
      -11   -1    0    0    0    0  0.00000000000E+00  0.00000000000E+00  0.35740347158E-01  0.35744000000E-01  0.51099999109E-03 0.  1.
       11   -1    0    0    0    0 -0.00000000000E+00 -0.00000000000E+00 -0.35740347158E-01  0.35744000000E-01  0.51099999109E-03 0. -1.
       22    1    1    2    0    0  0.37682794059E-02 -0.27529961319E-02 -0.26772430544E-01  0.27176128396E-01  0.00000000000E+00 0. -1.
  9000001    1    1    2    0    0 -0.37682794059E-02  0.27529961319E-02  0.26772430544E-01  0.44311871604E-01  0.35000000149E-01 0.  1.
</event>
<event>
 4   0  0.4334200E-01  0.9118800E+02  0.7818609E-02  0.1379984E+01
      -11   -1    0    0    0    0  0.00000000000E+00  0.00000000000E+00  0.35740347158E-01  0.35744000000E-01  0.51099999109E-03 0.  1.
       11   -1    0    0    0    0 -0.00000000000E+00 -0.00000000000E+00 -0.35740347158E-01  0.35744000000E-01  0.51099999109E-03 0. -1.
       22    1    1    2    0    0  0.47298264666E-02  0.24910842702E-01 -0.97785792462E-02  0.27176128396E-01  0.00000000000E+00 0.  1.
  9000001    1    1    2    0    0 -0.47298264666E-02 -0.24910842702E-01  0.97785792462E-02  0.44311871604E-01  0.35000000149E-01 0. -1.
</event>
<event>
 4   0  0.4334200E-01  0.9118800E+02  0.7818609E-02  0.1379984E+01
      -11   -1    0    0    0    0  0.00000000000E+00  0.00000000000E+00  0.35740347158E-01  0.35744000000E-01  0.51099999109E-03 0.  1.
       11   -1    0    0    0    0 -0.00000000000E+00 -0.00000000000E+00 -0.35740347158E-01  0.35744000000E-01  0.51099999109E-03 0. -1.
       22    1    1    2    0    0 -0.19017463663E-02  0.13107294951E-01 -0.23730236712E-01  0.27176128396E-01  0.00000000000E+00 0. -1.
  9000001    1    1    2    0    0  0.19017463663E-02 -0.13107294951E-01  0.23730236712E-01  0.44311871604E-01  0.35000000149E-01 0.  1.
</event>
<event>
 4   0  0.4334200E-01  0.9118800E+02  0.7818609E-02  0.1379984E+01
      -11   -1    0    0    0    0  0.00000000000E+00  0.00000000000E+00  0.35740347158E-01  0.35744000000E-01  0.51099999109E-03 0. -1.
       11   -1    0    0    0    0 -0.00000000000E+00 -0.00000000000E+00 -0.35740347158E-01  0.35744000000E-01  0.51099999109E-03 0.  1.
       22    1    1    2    0    0 -0.32728212835E-02  0.29922456779E-02 -0.26811882837E-01  0.27176128396E-01  0.00000000000E+00 0.  1.
  9000001    1    1    2    0    0  0.32728212835E-02 -0.29922456779E-02  0.26811882837E-01  0.44311871604E-01  0.35000000149E-01 0. -1.
</event>
<event>
 4   0  0.4334200E-01  0.9118800E+02  0.7818609E-02  0.1379984E+01
      -11   -1    0    0    0    0  0.00000000000E+00  0.00000000000E+00  0.35740347158E-01  0.35744000000E-01  0.51099999109E-03 0. -1.
       11   -1    0    0    0    0 -0.00000000000E+00 -0.00000000000E+00 -0.35740347158E-01  0.35744000000E-01  0.51099999109E-03 0.  1.
       22    1    1    2    0    0 -0.23277648927E-02  0.21073385217E-02  0.26994121389E-01  0.27176128396E-01  0.00000000000E+00 0. -1.
  9000001    1    1    2    0    0  0.23277648927E-02 -0.21073385217E-02 -0.26994121389E-01  0.44311871604E-01  0.35000000149E-01 0.  1.
</event>
<event>
 4   0  0.4334200E-01  0.9118800E+02  0.7818609E-02  0.1379984E+01
      -11   -1    0    0    0    0  0.00000000000E+00  0.00000000000E+00  0.35740347158E-01  0.35744000000E-01  0.51099999109E-03 0.  1.
       11   -1    0    0    0    0 -0.00000000000E+00 -0.00000000000E+00 -0.35740347158E-01  0.35744000000E-01  0.51099999109E-03 0. -1.
       22    1    1    2    0    0  0.78254167296E-03  0.15468276834E-01 -0.22330741029E-01  0.27176128396E-01  0.00000000000E+00 0. -1.
  9000001    1    1    2    0    0 -0.78254167296E-03 -0.15468276834E-01  0.22330741029E-01  0.44311871604E-01  0.35000000149E-01 0.  1.
</event>
<event>
 4   0  0.4334200E-01  0.9118800E+02  0.7818609E-02  0.1379984E+01
      -11   -1    0    0    0    0  0.00000000000E+00  0.00000000000E+00  0.35740347158E-01  0.35744000000E-01  0.51099999109E-03 0. -1.
       11   -1    0    0    0    0 -0.00000000000E+00 -0.00000000000E+00 -0.35740347158E-01  0.35744000000E-01  0.51099999109E-03 0.  1.
       22    1    1    2    0    0 -0.69400128968E-03  0.84829768786E-02 -0.25808901954E-01  0.27176128396E-01  0.00000000000E+00 0.  1.
  9000001    1    1    2    0    0  0.69400128968E-03 -0.84829768786E-02  0.25808901954E-01  0.44311871604E-01  0.35000000149E-01 0. -1.
</event>
<event>
 4   0  0.4334200E-01  0.9118800E+02  0.7818609E-02  0.1379984E+01
      -11   -1    0    0    0    0  0.00000000000E+00  0.00000000000E+00  0.35740347158E-01  0.35744000000E-01  0.51099999109E-03 0. -1.
       11   -1    0    0    0    0 -0.00000000000E+00 -0.00000000000E+00 -0.35740347158E-01  0.35744000000E-01  0.51099999109E-03 0.  1.
       22    1    1    2    0    0  0.98110362173E-02 -0.39046665392E-02 -0.25040748834E-01  0.27176128396E-01  0.00000000000E+00 0.  1.
  9000001    1    1    2    0    0 -0.98110362173E-02  0.39046665392E-02  0.25040748834E-01  0.44311871604E-01  0.35000000149E-01 0. -1.
</event>
<event>
 4   0  0.4334200E-01  0.9118800E+02  0.7818609E-02  0.1379984E+01
      -11   -1    0    0    0    0  0.00000000000E+00  0.00000000000E+00  0.35740347158E-01  0.35744000000E-01  0.51099999109E-03 0. -1.
       11   -1    0    0    0    0 -0.00000000000E+00 -0.00000000000E+00 -0.35740347158E-01  0.35744000000E-01  0.51099999109E-03 0.  1.
       22    1    1    2    0    0  0.17065021062E-01  0.84004833953E-02  0.19410277935E-01  0.27176128396E-01  0.00000000000E+00 0. -1.
  9000001    1    1    2    0    0 -0.17065021062E-01 -0.84004833953E-02 -0.19410277935E-01  0.44311871604E-01  0.35000000149E-01 0.  1.
</event>
<event>
 4   0  0.4334200E-01  0.9118800E+02  0.7818609E-02  0.1379984E+01
      -11   -1    0    0    0    0  0.00000000000E+00  0.00000000000E+00  0.35740347158E-01  0.35744000000E-01  0.51099999109E-03 0.  1.
       11   -1    0    0    0    0 -0.00000000000E+00 -0.00000000000E+00 -0.35740347158E-01  0.35744000000E-01  0.51099999109E-03 0. -1.
       22    1    1    2    0    0 -0.13267383054E-01  0.81733237637E-02  0.22264664384E-01  0.27176128396E-01  0.00000000000E+00 0. -1.
  9000001    1    1    2    0    0  0.13267383054E-01 -0.81733237637E-02 -0.22264664384E-01  0.44311871604E-01  0.35000000149E-01 0.  0.
</event>
<event>
 4   0  0.4334200E-01  0.9118800E+02  0.7818609E-02  0.1379984E+01
      -11   -1    0    0    0    0  0.00000000000E+00  0.00000000000E+00  0.35740347158E-01  0.35744000000E-01  0.51099999109E-03 0.  1.
       11   -1    0    0    0    0 -0.00000000000E+00 -0.00000000000E+00 -0.35740347158E-01  0.35744000000E-01  0.51099999109E-03 0. -1.
       22    1    1    2    0    0 -0.77341644595E-02  0.10906090340E-01 -0.23659709386E-01  0.27176128396E-01  0.00000000000E+00 0. -1.
  9000001    1    1    2    0    0  0.77341644595E-02 -0.10906090340E-01  0.23659709386E-01  0.44311871604E-01  0.35000000149E-01 0.  1.
</event>
<event>
 4   0  0.4334200E-01  0.9118800E+02  0.7818609E-02  0.1379984E+01
      -11   -1    0    0    0    0  0.00000000000E+00  0.00000000000E+00  0.35740347158E-01  0.35744000000E-01  0.51099999109E-03 0. -1.
       11   -1    0    0    0    0 -0.00000000000E+00 -0.00000000000E+00 -0.35740347158E-01  0.35744000000E-01  0.51099999109E-03 0.  1.
       22    1    1    2    0    0  0.33727218487E-02 -0.10747577936E-02 -0.26944602384E-01  0.27176128396E-01  0.00000000000E+00 0.  1.
  9000001    1    1    2    0    0 -0.33727218487E-02  0.10747577936E-02  0.26944602384E-01  0.44311871604E-01  0.35000000149E-01 0. -1.
</event>
<event>
 4   0  0.4334200E-01  0.9118800E+02  0.7818609E-02  0.1379984E+01
      -11   -1    0    0    0    0  0.00000000000E+00  0.00000000000E+00  0.35740347158E-01  0.35744000000E-01  0.51099999109E-03 0.  1.
       11   -1    0    0    0    0 -0.00000000000E+00 -0.00000000000E+00 -0.35740347158E-01  0.35744000000E-01  0.51099999109E-03 0. -1.
       22    1    1    2    0    0 -0.23488832231E-01 -0.15481137652E-02  0.13580134712E-01  0.27176128396E-01  0.00000000000E+00 0. -1.
  9000001    1    1    2    0    0  0.23488832231E-01  0.15481137652E-02 -0.13580134712E-01  0.44311871604E-01  0.35000000149E-01 0.  0.
</event>
<event>
 4   0  0.4334200E-01  0.9118800E+02  0.7818609E-02  0.1379984E+01
      -11   -1    0    0    0    0  0.00000000000E+00  0.00000000000E+00  0.35740347158E-01  0.35744000000E-01  0.51099999109E-03 0. -1.
       11   -1    0    0    0    0 -0.00000000000E+00 -0.00000000000E+00 -0.35740347158E-01  0.35744000000E-01  0.51099999109E-03 0.  1.
       22    1    1    2    0    0  0.13611718229E-02  0.28017826069E-02  0.26997021689E-01  0.27176128396E-01  0.00000000000E+00 0. -1.
  9000001    1    1    2    0    0 -0.13611718229E-02 -0.28017826069E-02 -0.26997021689E-01  0.44311871604E-01  0.35000000149E-01 0.  1.
</event>
<event>
 4   0  0.4334200E-01  0.9118800E+02  0.7818609E-02  0.1379984E+01
      -11   -1    0    0    0    0  0.00000000000E+00  0.00000000000E+00  0.35740347158E-01  0.35744000000E-01  0.51099999109E-03 0.  1.
       11   -1    0    0    0    0 -0.00000000000E+00 -0.00000000000E+00 -0.35740347158E-01  0.35744000000E-01  0.51099999109E-03 0. -1.
       22    1    1    2    0    0  0.39307626664E-02  0.34986460925E-02 -0.26661780417E-01  0.27176128396E-01  0.00000000000E+00 0. -1.
  9000001    1    1    2    0    0 -0.39307626664E-02 -0.34986460925E-02  0.26661780417E-01  0.44311871604E-01  0.35000000149E-01 0.  1.
</event>
<event>
 4   0  0.4334200E-01  0.9118800E+02  0.7818609E-02  0.1379984E+01
      -11   -1    0    0    0    0  0.00000000000E+00  0.00000000000E+00  0.35740347158E-01  0.35744000000E-01  0.51099999109E-03 0. -1.
       11   -1    0    0    0    0 -0.00000000000E+00 -0.00000000000E+00 -0.35740347158E-01  0.35744000000E-01  0.51099999109E-03 0.  1.
       22    1    1    2    0    0  0.29640566134E-04  0.89090229059E-02  0.25674313757E-01  0.27176128396E-01  0.00000000000E+00 0.  1.
  9000001    1    1    2    0    0 -0.29640566134E-04 -0.89090229059E-02 -0.25674313757E-01  0.44311871604E-01  0.35000000149E-01 0.  0.
</event>
<event>
 4   0  0.4334200E-01  0.9118800E+02  0.7818609E-02  0.1379984E+01
      -11   -1    0    0    0    0  0.00000000000E+00  0.00000000000E+00  0.35740347158E-01  0.35744000000E-01  0.51099999109E-03 0.  1.
       11   -1    0    0    0    0 -0.00000000000E+00 -0.00000000000E+00 -0.35740347158E-01  0.35744000000E-01  0.51099999109E-03 0. -1.
       22    1    1    2    0    0 -0.97306924623E-02  0.25373388739E-01  0.21615432146E-03  0.27176128396E-01  0.00000000000E+00 0.  1.
  9000001    1    1    2    0    0  0.97306924623E-02 -0.25373388739E-01 -0.21615432146E-03  0.44311871604E-01  0.35000000149E-01 0. -1.
</event>
<event>
 4   0  0.4334200E-01  0.9118800E+02  0.7818609E-02  0.1379984E+01
      -11   -1    0    0    0    0  0.00000000000E+00  0.00000000000E+00  0.35740347158E-01  0.35744000000E-01  0.51099999109E-03 0.  1.
       11   -1    0    0    0    0 -0.00000000000E+00 -0.00000000000E+00 -0.35740347158E-01  0.35744000000E-01  0.51099999109E-03 0. -1.
       22    1    1    2    0    0  0.13370862182E-01 -0.14876166172E-01  0.18397328044E-01  0.27176128396E-01  0.00000000000E+00 0.  1.
  9000001    1    1    2    0    0 -0.13370862182E-01  0.14876166172E-01 -0.18397328044E-01  0.44311871604E-01  0.35000000149E-01 0. -1.
</event>
<event>
 4   0  0.4334200E-01  0.9118800E+02  0.7818609E-02  0.1379984E+01
      -11   -1    0    0    0    0  0.00000000000E+00  0.00000000000E+00  0.35740347158E-01  0.35744000000E-01  0.51099999109E-03 0. -1.
       11   -1    0    0    0    0 -0.00000000000E+00 -0.00000000000E+00 -0.35740347158E-01  0.35744000000E-01  0.51099999109E-03 0.  1.
       22    1    1    2    0    0  0.34797006423E-02  0.14495032742E-02  0.26913427472E-01  0.27176128396E-01  0.00000000000E+00 0. -1.
  9000001    1    1    2    0    0 -0.34797006423E-02 -0.14495032742E-02 -0.26913427472E-01  0.44311871604E-01  0.35000000149E-01 0.  1.
</event>
<event>
 4   0  0.4334200E-01  0.9118800E+02  0.7818609E-02  0.1379984E+01
      -11   -1    0    0    0    0  0.00000000000E+00  0.00000000000E+00  0.35740347158E-01  0.35744000000E-01  0.51099999109E-03 0.  1.
       11   -1    0    0    0    0 -0.00000000000E+00 -0.00000000000E+00 -0.35740347158E-01  0.35744000000E-01  0.51099999109E-03 0. -1.
       22    1    1    2    0    0 -0.10917060278E-01 -0.88457651319E-02  0.23261818259E-01  0.27176128396E-01  0.00000000000E+00 0.  1.
  9000001    1    1    2    0    0  0.10917060278E-01  0.88457651319E-02 -0.23261818259E-01  0.44311871604E-01  0.35000000149E-01 0. -1.
</event>
<event>
 4   0  0.4334200E-01  0.9118800E+02  0.7818609E-02  0.1379984E+01
      -11   -1    0    0    0    0  0.00000000000E+00  0.00000000000E+00  0.35740347158E-01  0.35744000000E-01  0.51099999109E-03 0. -1.
       11   -1    0    0    0    0 -0.00000000000E+00 -0.00000000000E+00 -0.35740347158E-01  0.35744000000E-01  0.51099999109E-03 0.  1.
       22    1    1    2    0    0  0.27059048879E-01  0.80352026523E-04 -0.25186051561E-02  0.27176128396E-01  0.00000000000E+00 0.  1.
  9000001    1    1    2    0    0 -0.27059048879E-01 -0.80352026523E-04  0.25186051561E-02  0.44311871604E-01  0.35000000149E-01 0.  0.
</event>
<event>
 4   0  0.4334200E-01  0.9118800E+02  0.7818609E-02  0.1379984E+01
      -11   -1    0    0    0    0  0.00000000000E+00  0.00000000000E+00  0.35740347158E-01  0.35744000000E-01  0.51099999109E-03 0.  1.
       11   -1    0    0    0    0 -0.00000000000E+00 -0.00000000000E+00 -0.35740347158E-01  0.35744000000E-01  0.51099999109E-03 0. -1.
       22    1    1    2    0    0  0.63032264163E-03 -0.30038412893E-02  0.27002251489E-01  0.27176128396E-01  0.00000000000E+00 0.  1.
  9000001    1    1    2    0    0 -0.63032264163E-03  0.30038412893E-02 -0.27002251489E-01  0.44311871604E-01  0.35000000149E-01 0. -1.
</event>
<event>
 4   0  0.4334200E-01  0.9118800E+02  0.7818609E-02  0.1379984E+01
      -11   -1    0    0    0    0  0.00000000000E+00  0.00000000000E+00  0.35740347158E-01  0.35744000000E-01  0.51099999109E-03 0.  1.
       11   -1    0    0    0    0 -0.00000000000E+00 -0.00000000000E+00 -0.35740347158E-01  0.35744000000E-01  0.51099999109E-03 0. -1.
       22    1    1    2    0    0  0.35932551263E-02 -0.90339366254E-02  0.25377518816E-01  0.27176128396E-01  0.00000000000E+00 0.  1.
  9000001    1    1    2    0    0 -0.35932551263E-02  0.90339366254E-02 -0.25377518816E-01  0.44311871604E-01  0.35000000149E-01 0. -1.
</event>
<event>
 4   0  0.4334200E-01  0.9118800E+02  0.7818609E-02  0.1379984E+01
      -11   -1    0    0    0    0  0.00000000000E+00  0.00000000000E+00  0.35740347158E-01  0.35744000000E-01  0.51099999109E-03 0.  1.
       11   -1    0    0    0    0 -0.00000000000E+00 -0.00000000000E+00 -0.35740347158E-01  0.35744000000E-01  0.51099999109E-03 0. -1.
       22    1    1    2    0    0 -0.20082577642E-01 -0.27597524786E-02  0.18100160112E-01  0.27176128396E-01  0.00000000000E+00 0. -1.
  9000001    1    1    2    0    0  0.20082577642E-01  0.27597524786E-02 -0.18100160112E-01  0.44311871604E-01  0.35000000149E-01 0.  1.
</event>
<event>
 4   0  0.4334200E-01  0.9118800E+02  0.7818609E-02  0.1379984E+01
      -11   -1    0    0    0    0  0.00000000000E+00  0.00000000000E+00  0.35740347158E-01  0.35744000000E-01  0.51099999109E-03 0.  1.
       11   -1    0    0    0    0 -0.00000000000E+00 -0.00000000000E+00 -0.35740347158E-01  0.35744000000E-01  0.51099999109E-03 0. -1.
       22    1    1    2    0    0 -0.27498373191E-02 -0.35614031036E-02 -0.26801058883E-01  0.27176128396E-01  0.00000000000E+00 0. -1.
  9000001    1    1    2    0    0  0.27498373191E-02  0.35614031036E-02  0.26801058883E-01  0.44311871604E-01  0.35000000149E-01 0.  1.
</event>
<event>
 4   0  0.4334200E-01  0.9118800E+02  0.7818609E-02  0.1379984E+01
      -11   -1    0    0    0    0  0.00000000000E+00  0.00000000000E+00  0.35740347158E-01  0.35744000000E-01  0.51099999109E-03 0. -1.
       11   -1    0    0    0    0 -0.00000000000E+00 -0.00000000000E+00 -0.35740347158E-01  0.35744000000E-01  0.51099999109E-03 0.  1.
       22    1    1    2    0    0 -0.32472010869E-02 -0.19538834179E-02  0.26910592325E-01  0.27176128396E-01  0.00000000000E+00 0. -1.
  9000001    1    1    2    0    0  0.32472010869E-02  0.19538834179E-02 -0.26910592325E-01  0.44311871604E-01  0.35000000149E-01 0.  1.
</event>
<event>
 4   0  0.4334200E-01  0.9118800E+02  0.7818609E-02  0.1379984E+01
      -11   -1    0    0    0    0  0.00000000000E+00  0.00000000000E+00  0.35740347158E-01  0.35744000000E-01  0.51099999109E-03 0. -1.
       11   -1    0    0    0    0 -0.00000000000E+00 -0.00000000000E+00 -0.35740347158E-01  0.35744000000E-01  0.51099999109E-03 0.  1.
       22    1    1    2    0    0  0.23074708282E-02  0.20851900016E-02 -0.26997583515E-01  0.27176128396E-01  0.00000000000E+00 0. -1.
  9000001    1    1    2    0    0 -0.23074708282E-02 -0.20851900016E-02  0.26997583515E-01  0.44311871604E-01  0.35000000149E-01 0. -1.
</event>
<event>
 4   0  0.4334200E-01  0.9118800E+02  0.7818609E-02  0.1379984E+01
      -11   -1    0    0    0    0  0.00000000000E+00  0.00000000000E+00  0.35740347158E-01  0.35744000000E-01  0.51099999109E-03 0.  1.
       11   -1    0    0    0    0 -0.00000000000E+00 -0.00000000000E+00 -0.35740347158E-01  0.35744000000E-01  0.51099999109E-03 0. -1.
       22    1    1    2    0    0 -0.19166243708E-01  0.17003033553E-01  0.90605687855E-02  0.27176128396E-01  0.00000000000E+00 0.  1.
  9000001    1    1    2    0    0  0.19166243708E-01 -0.17003033553E-01 -0.90605687855E-02  0.44311871604E-01  0.35000000149E-01 0.  0.
</event>
<event>
 4   0  0.4334200E-01  0.9118800E+02  0.7818609E-02  0.1379984E+01
      -11   -1    0    0    0    0  0.00000000000E+00  0.00000000000E+00  0.35740347158E-01  0.35744000000E-01  0.51099999109E-03 0. -1.
       11   -1    0    0    0    0 -0.00000000000E+00 -0.00000000000E+00 -0.35740347158E-01  0.35744000000E-01  0.51099999109E-03 0.  1.
       22    1    1    2    0    0 -0.30837148256E-03 -0.58667763045E-02 -0.26533522145E-01  0.27176128396E-01  0.00000000000E+00 0.  1.
  9000001    1    1    2    0    0  0.30837148256E-03  0.58667763045E-02  0.26533522145E-01  0.44311871604E-01  0.35000000149E-01 0. -1.
</event>
<event>
 4   0  0.4334200E-01  0.9118800E+02  0.7818609E-02  0.1379984E+01
      -11   -1    0    0    0    0  0.00000000000E+00  0.00000000000E+00  0.35740347158E-01  0.35744000000E-01  0.51099999109E-03 0.  1.
       11   -1    0    0    0    0 -0.00000000000E+00 -0.00000000000E+00 -0.35740347158E-01  0.35744000000E-01  0.51099999109E-03 0. -1.
       22    1    1    2    0    0  0.63519561824E-02 -0.74254051011E-02  0.25358587625E-01  0.27176128396E-01  0.00000000000E+00 0.  1.
  9000001    1    1    2    0    0 -0.63519561824E-02  0.74254051011E-02 -0.25358587625E-01  0.44311871604E-01  0.35000000149E-01 0. -1.
</event>
<event>
 4   0  0.4334200E-01  0.9118800E+02  0.7818609E-02  0.1379984E+01
      -11   -1    0    0    0    0  0.00000000000E+00  0.00000000000E+00  0.35740347158E-01  0.35744000000E-01  0.51099999109E-03 0.  1.
       11   -1    0    0    0    0 -0.00000000000E+00 -0.00000000000E+00 -0.35740347158E-01  0.35744000000E-01  0.51099999109E-03 0. -1.
       22    1    1    2    0    0 -0.12524044693E-01 -0.10240639696E-01 -0.21836198335E-01  0.27176128396E-01  0.00000000000E+00 0. -1.
  9000001    1    1    2    0    0  0.12524044693E-01  0.10240639696E-01  0.21836198335E-01  0.44311871604E-01  0.35000000149E-01 0.  1.
</event>
<event>
 4   0  0.4334200E-01  0.9118800E+02  0.7818609E-02  0.1379984E+01
      -11   -1    0    0    0    0  0.00000000000E+00  0.00000000000E+00  0.35740347158E-01  0.35744000000E-01  0.51099999109E-03 0.  1.
       11   -1    0    0    0    0 -0.00000000000E+00 -0.00000000000E+00 -0.35740347158E-01  0.35744000000E-01  0.51099999109E-03 0. -1.
       22    1    1    2    0    0 -0.35659320531E-02 -0.21883124263E-02  0.26852139057E-01  0.27176128396E-01  0.00000000000E+00 0.  1.
  9000001    1    1    2    0    0  0.35659320531E-02  0.21883124263E-02 -0.26852139057E-01  0.44311871604E-01  0.35000000149E-01 0. -1.
</event>
<event>
 4   0  0.4334200E-01  0.9118800E+02  0.7818609E-02  0.1379984E+01
      -11   -1    0    0    0    0  0.00000000000E+00  0.00000000000E+00  0.35740347158E-01  0.35744000000E-01  0.51099999109E-03 0.  1.
       11   -1    0    0    0    0 -0.00000000000E+00 -0.00000000000E+00 -0.35740347158E-01  0.35744000000E-01  0.51099999109E-03 0. -1.
       22    1    1    2    0    0  0.18114508186E-02 -0.42535979673E-02  0.26779983287E-01  0.27176128396E-01  0.00000000000E+00 0.  1.
  9000001    1    1    2    0    0 -0.18114508186E-02  0.42535979673E-02 -0.26779983287E-01  0.44311871604E-01  0.35000000149E-01 0. -1.
</event>
<event>
 4   0  0.4334200E-01  0.9118800E+02  0.7818609E-02  0.1379984E+01
      -11   -1    0    0    0    0  0.00000000000E+00  0.00000000000E+00  0.35740347158E-01  0.35744000000E-01  0.51099999109E-03 0. -1.
       11   -1    0    0    0    0 -0.00000000000E+00 -0.00000000000E+00 -0.35740347158E-01  0.35744000000E-01  0.51099999109E-03 0.  1.
       22    1    1    2    0    0 -0.19675839912E-02 -0.46130988057E-02  0.26709359544E-01  0.27176128396E-01  0.00000000000E+00 0. -1.
  9000001    1    1    2    0    0  0.19675839912E-02  0.46130988057E-02 -0.26709359544E-01  0.44311871604E-01  0.35000000149E-01 0.  1.
</event>
<event>
 4   0  0.4334200E-01  0.9118800E+02  0.7818609E-02  0.1379984E+01
      -11   -1    0    0    0    0  0.00000000000E+00  0.00000000000E+00  0.35740347158E-01  0.35744000000E-01  0.51099999109E-03 0. -1.
       11   -1    0    0    0    0 -0.00000000000E+00 -0.00000000000E+00 -0.35740347158E-01  0.35744000000E-01  0.51099999109E-03 0.  1.
       22    1    1    2    0    0  0.18951396243E-02  0.84339568175E-02  0.25764680724E-01  0.27176128396E-01  0.00000000000E+00 0. -1.
  9000001    1    1    2    0    0 -0.18951396243E-02 -0.84339568175E-02 -0.25764680724E-01  0.44311871604E-01  0.35000000149E-01 0.  0.
</event>
<event>
 4   0  0.4334200E-01  0.9118800E+02  0.7818609E-02  0.1379984E+01
      -11   -1    0    0    0    0  0.00000000000E+00  0.00000000000E+00  0.35740347158E-01  0.35744000000E-01  0.51099999109E-03 0. -1.
       11   -1    0    0    0    0 -0.00000000000E+00 -0.00000000000E+00 -0.35740347158E-01  0.35744000000E-01  0.51099999109E-03 0.  1.
       22    1    1    2    0    0 -0.33309345736E-02 -0.22853222218E-03  0.26970254031E-01  0.27176128396E-01  0.00000000000E+00 0.  1.
  9000001    1    1    2    0    0  0.33309345736E-02  0.22853222218E-03 -0.26970254031E-01  0.44311871604E-01  0.35000000149E-01 0.  1.
</event>
<event>
 4   0  0.4334200E-01  0.9118800E+02  0.7818609E-02  0.1379984E+01
      -11   -1    0    0    0    0  0.00000000000E+00  0.00000000000E+00  0.35740347158E-01  0.35744000000E-01  0.51099999109E-03 0. -1.
       11   -1    0    0    0    0 -0.00000000000E+00 -0.00000000000E+00 -0.35740347158E-01  0.35744000000E-01  0.51099999109E-03 0.  1.
       22    1    1    2    0    0  0.98041649384E-02  0.89292097358E-02 -0.23721077504E-01  0.27176128396E-01  0.00000000000E+00 0.  1.
  9000001    1    1    2    0    0 -0.98041649384E-02 -0.89292097358E-02  0.23721077504E-01  0.44311871604E-01  0.35000000149E-01 0. -1.
</event>
<event>
 4   0  0.4334200E-01  0.9118800E+02  0.7818609E-02  0.1379984E+01
      -11   -1    0    0    0    0  0.00000000000E+00  0.00000000000E+00  0.35740347158E-01  0.35744000000E-01  0.51099999109E-03 0. -1.
       11   -1    0    0    0    0 -0.00000000000E+00 -0.00000000000E+00 -0.35740347158E-01  0.35744000000E-01  0.51099999109E-03 0.  1.
       22    1    1    2    0    0 -0.70212438181E-02  0.22220379102E-02  0.26159255291E-01  0.27176128396E-01  0.00000000000E+00 0. -1.
  9000001    1    1    2    0    0  0.70212438181E-02 -0.22220379102E-02 -0.26159255291E-01  0.44311871604E-01  0.35000000149E-01 0.  1.
</event>
<event>
 4   0  0.4334200E-01  0.9118800E+02  0.7818609E-02  0.1379984E+01
      -11   -1    0    0    0    0  0.00000000000E+00  0.00000000000E+00  0.35740347158E-01  0.35744000000E-01  0.51099999109E-03 0.  1.
       11   -1    0    0    0    0 -0.00000000000E+00 -0.00000000000E+00 -0.35740347158E-01  0.35744000000E-01  0.51099999109E-03 0. -1.
       22    1    1    2    0    0 -0.12677682133E-02  0.94085578823E-02  0.25463969780E-01  0.27176128396E-01  0.00000000000E+00 0.  1.
  9000001    1    1    2    0    0  0.12677682133E-02 -0.94085578823E-02 -0.25463969780E-01  0.44311871604E-01  0.35000000149E-01 0. -1.
</event>
<event>
 4   0  0.4334200E-01  0.9118800E+02  0.7818609E-02  0.1379984E+01
      -11   -1    0    0    0    0  0.00000000000E+00  0.00000000000E+00  0.35740347158E-01  0.35744000000E-01  0.51099999109E-03 0.  1.
       11   -1    0    0    0    0 -0.00000000000E+00 -0.00000000000E+00 -0.35740347158E-01  0.35744000000E-01  0.51099999109E-03 0. -1.
       22    1    1    2    0    0 -0.52212512251E-02 -0.18689085177E-01 -0.19026260418E-01  0.27176128396E-01  0.00000000000E+00 0. -1.
  9000001    1    1    2    0    0  0.52212512251E-02  0.18689085177E-01  0.19026260418E-01  0.44311871604E-01  0.35000000149E-01 0.  1.
</event>
<event>
 4   0  0.4334200E-01  0.9118800E+02  0.7818609E-02  0.1379984E+01
      -11   -1    0    0    0    0  0.00000000000E+00  0.00000000000E+00  0.35740347158E-01  0.35744000000E-01  0.51099999109E-03 0. -1.
       11   -1    0    0    0    0 -0.00000000000E+00 -0.00000000000E+00 -0.35740347158E-01  0.35744000000E-01  0.51099999109E-03 0.  1.
       22    1    1    2    0    0  0.38332782753E-02 -0.68085817250E-02 -0.26028660111E-01  0.27176128396E-01  0.00000000000E+00 0.  1.
  9000001    1    1    2    0    0 -0.38332782753E-02  0.68085817250E-02  0.26028660111E-01  0.44311871604E-01  0.35000000149E-01 0. -1.
</event>
<event>
 4   0  0.4334200E-01  0.9118800E+02  0.7818609E-02  0.1379984E+01
      -11   -1    0    0    0    0  0.00000000000E+00  0.00000000000E+00  0.35740347158E-01  0.35744000000E-01  0.51099999109E-03 0.  1.
       11   -1    0    0    0    0 -0.00000000000E+00 -0.00000000000E+00 -0.35740347158E-01  0.35744000000E-01  0.51099999109E-03 0. -1.
       22    1    1    2    0    0 -0.83382254577E-03 -0.56838104839E-02  0.26562021628E-01  0.27176128396E-01  0.00000000000E+00 0.  1.
  9000001    1    1    2    0    0  0.83382254577E-03  0.56838104839E-02 -0.26562021628E-01  0.44311871604E-01  0.35000000149E-01 0. -1.
</event>
<event>
 4   0  0.4334200E-01  0.9118800E+02  0.7818609E-02  0.1379984E+01
      -11   -1    0    0    0    0  0.00000000000E+00  0.00000000000E+00  0.35740347158E-01  0.35744000000E-01  0.51099999109E-03 0. -1.
       11   -1    0    0    0    0 -0.00000000000E+00 -0.00000000000E+00 -0.35740347158E-01  0.35744000000E-01  0.51099999109E-03 0.  1.
       22    1    1    2    0    0  0.10553749572E-01 -0.10269487770E-01 -0.22840708078E-01  0.27176128396E-01  0.00000000000E+00 0.  1.
  9000001    1    1    2    0    0 -0.10553749572E-01  0.10269487770E-01  0.22840708078E-01  0.44311871604E-01  0.35000000149E-01 0. -1.
</event>
<event>
 4   0  0.4334200E-01  0.9118800E+02  0.7818609E-02  0.1379984E+01
      -11   -1    0    0    0    0  0.00000000000E+00  0.00000000000E+00  0.35740347158E-01  0.35744000000E-01  0.51099999109E-03 0. -1.
       11   -1    0    0    0    0 -0.00000000000E+00 -0.00000000000E+00 -0.35740347158E-01  0.35744000000E-01  0.51099999109E-03 0.  1.
       22    1    1    2    0    0  0.72039188462E-02  0.19376238568E-01 -0.17641056851E-01  0.27176128396E-01  0.00000000000E+00 0.  1.
  9000001    1    1    2    0    0 -0.72039188462E-02 -0.19376238568E-01  0.17641056851E-01  0.44311871604E-01  0.35000000149E-01 0. -1.
</event>
<event>
 4   0  0.4334200E-01  0.9118800E+02  0.7818609E-02  0.1379984E+01
      -11   -1    0    0    0    0  0.00000000000E+00  0.00000000000E+00  0.35740347158E-01  0.35744000000E-01  0.51099999109E-03 0. -1.
       11   -1    0    0    0    0 -0.00000000000E+00 -0.00000000000E+00 -0.35740347158E-01  0.35744000000E-01  0.51099999109E-03 0.  1.
       22    1    1    2    0    0 -0.27240313163E-02 -0.12828089942E-02 -0.27008813544E-01  0.27176128396E-01  0.00000000000E+00 0.  1.
  9000001    1    1    2    0    0  0.27240313163E-02  0.12828089942E-02  0.27008813544E-01  0.44311871604E-01  0.35000000149E-01 0. -1.
</event>
<event>
 4   0  0.4334200E-01  0.9118800E+02  0.7818609E-02  0.1379984E+01
      -11   -1    0    0    0    0  0.00000000000E+00  0.00000000000E+00  0.35740347158E-01  0.35744000000E-01  0.51099999109E-03 0. -1.
       11   -1    0    0    0    0 -0.00000000000E+00 -0.00000000000E+00 -0.35740347158E-01  0.35744000000E-01  0.51099999109E-03 0.  1.
       22    1    1    2    0    0 -0.91211438574E-02  0.89168119158E-02  0.23996607148E-01  0.27176128396E-01  0.00000000000E+00 0. -1.
  9000001    1    1    2    0    0  0.91211438574E-02 -0.89168119158E-02 -0.23996607148E-01  0.44311871604E-01  0.35000000149E-01 0.  1.
</event>
<event>
 4   0  0.4334200E-01  0.9118800E+02  0.7818609E-02  0.1379984E+01
      -11   -1    0    0    0    0  0.00000000000E+00  0.00000000000E+00  0.35740347158E-01  0.35744000000E-01  0.51099999109E-03 0. -1.
       11   -1    0    0    0    0 -0.00000000000E+00 -0.00000000000E+00 -0.35740347158E-01  0.35744000000E-01  0.51099999109E-03 0.  1.
       22    1    1    2    0    0  0.41925544057E-02 -0.11321357552E-01  0.24347305915E-01  0.27176128396E-01  0.00000000000E+00 0. -1.
  9000001    1    1    2    0    0 -0.41925544057E-02  0.11321357552E-01 -0.24347305915E-01  0.44311871604E-01  0.35000000149E-01 0.  1.
</event>
<event>
 4   0  0.4334200E-01  0.9118800E+02  0.7818609E-02  0.1379984E+01
      -11   -1    0    0    0    0  0.00000000000E+00  0.00000000000E+00  0.35740347158E-01  0.35744000000E-01  0.51099999109E-03 0.  1.
       11   -1    0    0    0    0 -0.00000000000E+00 -0.00000000000E+00 -0.35740347158E-01  0.35744000000E-01  0.51099999109E-03 0. -1.
       22    1    1    2    0    0  0.31628232872E-02 -0.25085841804E-02  0.26874625744E-01  0.27176128396E-01  0.00000000000E+00 0.  1.
  9000001    1    1    2    0    0 -0.31628232872E-02  0.25085841804E-02 -0.26874625744E-01  0.44311871604E-01  0.35000000149E-01 0. -1.
</event>
<event>
 4   0  0.4334200E-01  0.9118800E+02  0.7818609E-02  0.1379984E+01
      -11   -1    0    0    0    0  0.00000000000E+00  0.00000000000E+00  0.35740347158E-01  0.35744000000E-01  0.51099999109E-03 0. -1.
       11   -1    0    0    0    0 -0.00000000000E+00 -0.00000000000E+00 -0.35740347158E-01  0.35744000000E-01  0.51099999109E-03 0.  1.
       22    1    1    2    0    0  0.99604281616E-02  0.12690839804E-01 -0.21869485831E-01  0.27176128396E-01  0.00000000000E+00 0.  1.
  9000001    1    1    2    0    0 -0.99604281616E-02 -0.12690839804E-01  0.21869485831E-01  0.44311871604E-01  0.35000000149E-01 0. -1.
</event>
<event>
 4   0  0.4334200E-01  0.9118800E+02  0.7818609E-02  0.1379984E+01
      -11   -1    0    0    0    0  0.00000000000E+00  0.00000000000E+00  0.35740347158E-01  0.35744000000E-01  0.51099999109E-03 0.  1.
       11   -1    0    0    0    0 -0.00000000000E+00 -0.00000000000E+00 -0.35740347158E-01  0.35744000000E-01  0.51099999109E-03 0. -1.
       22    1    1    2    0    0  0.20610048274E-01  0.57262040491E-02 -0.16762411878E-01  0.27176128396E-01  0.00000000000E+00 0. -1.
  9000001    1    1    2    0    0 -0.20610048274E-01 -0.57262040491E-02  0.16762411878E-01  0.44311871604E-01  0.35000000149E-01 0.  1.
</event>
<event>
 4   0  0.4334200E-01  0.9118800E+02  0.7818609E-02  0.1379984E+01
      -11   -1    0    0    0    0  0.00000000000E+00  0.00000000000E+00  0.35740347158E-01  0.35744000000E-01  0.51099999109E-03 0. -1.
       11   -1    0    0    0    0 -0.00000000000E+00 -0.00000000000E+00 -0.35740347158E-01  0.35744000000E-01  0.51099999109E-03 0.  1.
       22    1    1    2    0    0  0.39189415151E-02  0.22707568834E-03  0.26891119141E-01  0.27176128396E-01  0.00000000000E+00 0. -1.
  9000001    1    1    2    0    0 -0.39189415151E-02 -0.22707568834E-03 -0.26891119141E-01  0.44311871604E-01  0.35000000149E-01 0.  1.
</event>
<event>
 4   0  0.4334200E-01  0.9118800E+02  0.7818609E-02  0.1379984E+01
      -11   -1    0    0    0    0  0.00000000000E+00  0.00000000000E+00  0.35740347158E-01  0.35744000000E-01  0.51099999109E-03 0.  1.
       11   -1    0    0    0    0 -0.00000000000E+00 -0.00000000000E+00 -0.35740347158E-01  0.35744000000E-01  0.51099999109E-03 0. -1.
       22    1    1    2    0    0 -0.62349697443E-02  0.14103821054E-02  0.26413593644E-01  0.27176128396E-01  0.00000000000E+00 0. -1.
  9000001    1    1    2    0    0  0.62349697443E-02 -0.14103821054E-02 -0.26413593644E-01  0.44311871604E-01  0.35000000149E-01 0. -1.
</event>
<event>
 4   0  0.4334200E-01  0.9118800E+02  0.7818609E-02  0.1379984E+01
      -11   -1    0    0    0    0  0.00000000000E+00  0.00000000000E+00  0.35740347158E-01  0.35744000000E-01  0.51099999109E-03 0.  1.
       11   -1    0    0    0    0 -0.00000000000E+00 -0.00000000000E+00 -0.35740347158E-01  0.35744000000E-01  0.51099999109E-03 0. -1.
       22    1    1    2    0    0 -0.54450464136E-02 -0.65822873152E-02 -0.25798583641E-01  0.27176128396E-01  0.00000000000E+00 0.  1.
  9000001    1    1    2    0    0  0.54450464136E-02  0.65822873152E-02  0.25798583641E-01  0.44311871604E-01  0.35000000149E-01 0.  1.
</event>
<event>
 4   0  0.4334200E-01  0.9118800E+02  0.7818609E-02  0.1379984E+01
      -11   -1    0    0    0    0  0.00000000000E+00  0.00000000000E+00  0.35740347158E-01  0.35744000000E-01  0.51099999109E-03 0. -1.
       11   -1    0    0    0    0 -0.00000000000E+00 -0.00000000000E+00 -0.35740347158E-01  0.35744000000E-01  0.51099999109E-03 0.  1.
       22    1    1    2    0    0  0.27610169984E-02 -0.14878603401E-02 -0.26994536694E-01  0.27176128396E-01  0.00000000000E+00 0.  1.
  9000001    1    1    2    0    0 -0.27610169984E-02  0.14878603401E-02  0.26994536694E-01  0.44311871604E-01  0.35000000149E-01 0. -1.
</event>
<event>
 4   0  0.4334200E-01  0.9118800E+02  0.7818609E-02  0.1379984E+01
      -11   -1    0    0    0    0  0.00000000000E+00  0.00000000000E+00  0.35740347158E-01  0.35744000000E-01  0.51099999109E-03 0.  1.
       11   -1    0    0    0    0 -0.00000000000E+00 -0.00000000000E+00 -0.35740347158E-01  0.35744000000E-01  0.51099999109E-03 0. -1.
       22    1    1    2    0    0  0.64865480038E-03  0.31836662988E-02 -0.26981205875E-01  0.27176128396E-01  0.00000000000E+00 0. -1.
  9000001    1    1    2    0    0 -0.64865480038E-03 -0.31836662988E-02  0.26981205875E-01  0.44311871604E-01  0.35000000149E-01 0.  1.
</event>
<event>
 4   0  0.4334200E-01  0.9118800E+02  0.7818609E-02  0.1379984E+01
      -11   -1    0    0    0    0  0.00000000000E+00  0.00000000000E+00  0.35740347158E-01  0.35744000000E-01  0.51099999109E-03 0. -1.
       11   -1    0    0    0    0 -0.00000000000E+00 -0.00000000000E+00 -0.35740347158E-01  0.35744000000E-01  0.51099999109E-03 0.  1.
       22    1    1    2    0    0 -0.42662644287E-02 -0.79175606229E-02 -0.25644749486E-01  0.27176128396E-01  0.00000000000E+00 0.  1.
  9000001    1    1    2    0    0  0.42662644287E-02  0.79175606229E-02  0.25644749486E-01  0.44311871604E-01  0.35000000149E-01 0. -1.
</event>
<event>
 4   0  0.4334200E-01  0.9118800E+02  0.7818609E-02  0.1379984E+01
      -11   -1    0    0    0    0  0.00000000000E+00  0.00000000000E+00  0.35740347158E-01  0.35744000000E-01  0.51099999109E-03 0. -1.
       11   -1    0    0    0    0 -0.00000000000E+00 -0.00000000000E+00 -0.35740347158E-01  0.35744000000E-01  0.51099999109E-03 0.  1.
       22    1    1    2    0    0 -0.65413083343E-02 -0.10664775868E-01  0.24125003535E-01  0.27176128396E-01  0.00000000000E+00 0. -1.
  9000001    1    1    2    0    0  0.65413083343E-02  0.10664775868E-01 -0.24125003535E-01  0.44311871604E-01  0.35000000149E-01 0.  1.
</event>
<event>
 4   0  0.4334200E-01  0.9118800E+02  0.7818609E-02  0.1379984E+01
      -11   -1    0    0    0    0  0.00000000000E+00  0.00000000000E+00  0.35740347158E-01  0.35744000000E-01  0.51099999109E-03 0.  1.
       11   -1    0    0    0    0 -0.00000000000E+00 -0.00000000000E+00 -0.35740347158E-01  0.35744000000E-01  0.51099999109E-03 0. -1.
       22    1    1    2    0    0 -0.18872671058E-01 -0.42129567043E-04  0.19554090796E-01  0.27176128396E-01  0.00000000000E+00 0.  1.
  9000001    1    1    2    0    0  0.18872671058E-01  0.42129567043E-04 -0.19554090796E-01  0.44311871604E-01  0.35000000149E-01 0.  0.
</event>
<event>
 4   0  0.4334200E-01  0.9118800E+02  0.7818609E-02  0.1379984E+01
      -11   -1    0    0    0    0  0.00000000000E+00  0.00000000000E+00  0.35740347158E-01  0.35744000000E-01  0.51099999109E-03 0. -1.
       11   -1    0    0    0    0 -0.00000000000E+00 -0.00000000000E+00 -0.35740347158E-01  0.35744000000E-01  0.51099999109E-03 0.  1.
       22    1    1    2    0    0  0.36959122097E-02  0.22117665002E-01  0.15352233792E-01  0.27176128396E-01  0.00000000000E+00 0.  1.
  9000001    1    1    2    0    0 -0.36959122097E-02 -0.22117665002E-01 -0.15352233792E-01  0.44311871604E-01  0.35000000149E-01 0.  0.
</event>
<event>
 4   0  0.4334200E-01  0.9118800E+02  0.7818609E-02  0.1379984E+01
      -11   -1    0    0    0    0  0.00000000000E+00  0.00000000000E+00  0.35740347158E-01  0.35744000000E-01  0.51099999109E-03 0.  1.
       11   -1    0    0    0    0 -0.00000000000E+00 -0.00000000000E+00 -0.35740347158E-01  0.35744000000E-01  0.51099999109E-03 0. -1.
       22    1    1    2    0    0 -0.14099729638E-02 -0.73792233549E-02 -0.26117063264E-01  0.27176128396E-01  0.00000000000E+00 0. -1.
  9000001    1    1    2    0    0  0.14099729638E-02  0.73792233549E-02  0.26117063264E-01  0.44311871604E-01  0.35000000149E-01 0.  1.
</event>
<event>
 4   0  0.4334200E-01  0.9118800E+02  0.7818609E-02  0.1379984E+01
      -11   -1    0    0    0    0  0.00000000000E+00  0.00000000000E+00  0.35740347158E-01  0.35744000000E-01  0.51099999109E-03 0. -1.
       11   -1    0    0    0    0 -0.00000000000E+00 -0.00000000000E+00 -0.35740347158E-01  0.35744000000E-01  0.51099999109E-03 0.  1.
       22    1    1    2    0    0 -0.96313657458E-02 -0.15979780955E-01 -0.19759183918E-01  0.27176128396E-01  0.00000000000E+00 0.  1.
  9000001    1    1    2    0    0  0.96313657458E-02  0.15979780955E-01  0.19759183918E-01  0.44311871604E-01  0.35000000149E-01 0. -1.
</event>
<event>
 4   0  0.4334200E-01  0.9118800E+02  0.7818609E-02  0.1379984E+01
      -11   -1    0    0    0    0  0.00000000000E+00  0.00000000000E+00  0.35740347158E-01  0.35744000000E-01  0.51099999109E-03 0.  1.
       11   -1    0    0    0    0 -0.00000000000E+00 -0.00000000000E+00 -0.35740347158E-01  0.35744000000E-01  0.51099999109E-03 0. -1.
       22    1    1    2    0    0  0.62017121820E-02  0.25823733756E-03 -0.26457778329E-01  0.27176128396E-01  0.00000000000E+00 0. -1.
  9000001    1    1    2    0    0 -0.62017121820E-02 -0.25823733756E-03  0.26457778329E-01  0.44311871604E-01  0.35000000149E-01 0.  1.
</event>
<event>
 4   0  0.4334200E-01  0.9118800E+02  0.7818609E-02  0.1379984E+01
      -11   -1    0    0    0    0  0.00000000000E+00  0.00000000000E+00  0.35740347158E-01  0.35744000000E-01  0.51099999109E-03 0. -1.
       11   -1    0    0    0    0 -0.00000000000E+00 -0.00000000000E+00 -0.35740347158E-01  0.35744000000E-01  0.51099999109E-03 0.  1.
       22    1    1    2    0    0 -0.36934738329E-02  0.79548627499E-03 -0.26912216691E-01  0.27176128396E-01  0.00000000000E+00 0.  1.
  9000001    1    1    2    0    0  0.36934738329E-02 -0.79548627499E-03  0.26912216691E-01  0.44311871604E-01  0.35000000149E-01 0. -1.
</event>
<event>
 4   0  0.4334200E-01  0.9118800E+02  0.7818609E-02  0.1379984E+01
      -11   -1    0    0    0    0  0.00000000000E+00  0.00000000000E+00  0.35740347158E-01  0.35744000000E-01  0.51099999109E-03 0.  1.
       11   -1    0    0    0    0 -0.00000000000E+00 -0.00000000000E+00 -0.35740347158E-01  0.35744000000E-01  0.51099999109E-03 0. -1.
       22    1    1    2    0    0 -0.26910079934E-01  0.89042993441E-03 -0.36873685873E-02  0.27176128396E-01  0.00000000000E+00 0. -1.
  9000001    1    1    2    0    0  0.26910079934E-01 -0.89042993441E-03  0.36873685873E-02  0.44311871604E-01  0.35000000149E-01 0.  0.
</event>
<event>
 4   0  0.4334200E-01  0.9118800E+02  0.7818609E-02  0.1379984E+01
      -11   -1    0    0    0    0  0.00000000000E+00  0.00000000000E+00  0.35740347158E-01  0.35744000000E-01  0.51099999109E-03 0. -1.
       11   -1    0    0    0    0 -0.00000000000E+00 -0.00000000000E+00 -0.35740347158E-01  0.35744000000E-01  0.51099999109E-03 0.  1.
       22    1    1    2    0    0 -0.52510350020E-02 -0.25890032038E-02 -0.26538003852E-01  0.27176128396E-01  0.00000000000E+00 0.  1.
  9000001    1    1    2    0    0  0.52510350020E-02  0.25890032038E-02  0.26538003852E-01  0.44311871604E-01  0.35000000149E-01 0. -1.
</event>
<event>
 4   0  0.4334200E-01  0.9118800E+02  0.7818609E-02  0.1379984E+01
      -11   -1    0    0    0    0  0.00000000000E+00  0.00000000000E+00  0.35740347158E-01  0.35744000000E-01  0.51099999109E-03 0.  1.
       11   -1    0    0    0    0 -0.00000000000E+00 -0.00000000000E+00 -0.35740347158E-01  0.35744000000E-01  0.51099999109E-03 0. -1.
       22    1    1    2    0    0  0.34180254088E-02 -0.79564069324E-02  0.25759554453E-01  0.27176128396E-01  0.00000000000E+00 0.  1.
  9000001    1    1    2    0    0 -0.34180254088E-02  0.79564069324E-02 -0.25759554453E-01  0.44311871604E-01  0.35000000149E-01 0. -1.
</event>
<event>
 4   0  0.4334200E-01  0.9118800E+02  0.7818609E-02  0.1379984E+01
      -11   -1    0    0    0    0  0.00000000000E+00  0.00000000000E+00  0.35740347158E-01  0.35744000000E-01  0.51099999109E-03 0. -1.
       11   -1    0    0    0    0 -0.00000000000E+00 -0.00000000000E+00 -0.35740347158E-01  0.35744000000E-01  0.51099999109E-03 0.  1.
       22    1    1    2    0    0 -0.68748504454E-02  0.26146207793E-01 -0.27666232132E-02  0.27176128396E-01  0.00000000000E+00 0.  1.
  9000001    1    1    2    0    0  0.68748504454E-02 -0.26146207793E-01  0.27666232132E-02  0.44311871604E-01  0.35000000149E-01 0.  0.
</event>
<event>
 4   0  0.4334200E-01  0.9118800E+02  0.7818609E-02  0.1379984E+01
      -11   -1    0    0    0    0  0.00000000000E+00  0.00000000000E+00  0.35740347158E-01  0.35744000000E-01  0.51099999109E-03 0. -1.
       11   -1    0    0    0    0 -0.00000000000E+00 -0.00000000000E+00 -0.35740347158E-01  0.35744000000E-01  0.51099999109E-03 0.  1.
       22    1    1    2    0    0  0.12322188462E-01  0.64398202176E-02  0.23350253568E-01  0.27176128396E-01  0.00000000000E+00 0. -1.
  9000001    1    1    2    0    0 -0.12322188462E-01 -0.64398202176E-02 -0.23350253568E-01  0.44311871604E-01  0.35000000149E-01 0.  0.
</event>
<event>
 4   0  0.4334200E-01  0.9118800E+02  0.7818609E-02  0.1379984E+01
      -11   -1    0    0    0    0  0.00000000000E+00  0.00000000000E+00  0.35740347158E-01  0.35744000000E-01  0.51099999109E-03 0. -1.
       11   -1    0    0    0    0 -0.00000000000E+00 -0.00000000000E+00 -0.35740347158E-01  0.35744000000E-01  0.51099999109E-03 0.  1.
       22    1    1    2    0    0 -0.58493096635E-03  0.31730325943E-02  0.26983915107E-01  0.27176128396E-01  0.00000000000E+00 0. -1.
  9000001    1    1    2    0    0  0.58493096635E-03 -0.31730325943E-02 -0.26983915107E-01  0.44311871604E-01  0.35000000149E-01 0.  1.
</event>
<event>
 4   0  0.4334200E-01  0.9118800E+02  0.7818609E-02  0.1379984E+01
      -11   -1    0    0    0    0  0.00000000000E+00  0.00000000000E+00  0.35740347158E-01  0.35744000000E-01  0.51099999109E-03 0. -1.
       11   -1    0    0    0    0 -0.00000000000E+00 -0.00000000000E+00 -0.35740347158E-01  0.35744000000E-01  0.51099999109E-03 0.  1.
       22    1    1    2    0    0  0.74934215567E-02 -0.11639303017E-01 -0.23386261207E-01  0.27176128396E-01  0.00000000000E+00 0.  1.
  9000001    1    1    2    0    0 -0.74934215567E-02  0.11639303017E-01  0.23386261207E-01  0.44311871604E-01  0.35000000149E-01 0. -1.
</event>
<event>
 4   0  0.4334200E-01  0.9118800E+02  0.7818609E-02  0.1379984E+01
      -11   -1    0    0    0    0  0.00000000000E+00  0.00000000000E+00  0.35740347158E-01  0.35744000000E-01  0.51099999109E-03 0.  1.
       11   -1    0    0    0    0 -0.00000000000E+00 -0.00000000000E+00 -0.35740347158E-01  0.35744000000E-01  0.51099999109E-03 0. -1.
       22    1    1    2    0    0 -0.93141024331E-02  0.21457206121E-01  0.13833934941E-01  0.27176128396E-01  0.00000000000E+00 0.  1.
  9000001    1    1    2    0    0  0.93141024331E-02 -0.21457206121E-01 -0.13833934941E-01  0.44311871604E-01  0.35000000149E-01 0.  0.
</event>
<event>
 4   0  0.4334200E-01  0.9118800E+02  0.7818609E-02  0.1379984E+01
      -11   -1    0    0    0    0  0.00000000000E+00  0.00000000000E+00  0.35740347158E-01  0.35744000000E-01  0.51099999109E-03 0.  1.
       11   -1    0    0    0    0 -0.00000000000E+00 -0.00000000000E+00 -0.35740347158E-01  0.35744000000E-01  0.51099999109E-03 0. -1.
       22    1    1    2    0    0 -0.12662989779E-01  0.15517016582E-01 -0.18368800746E-01  0.27176128396E-01  0.00000000000E+00 0.  1.
  9000001    1    1    2    0    0  0.12662989779E-01 -0.15517016582E-01  0.18368800746E-01  0.44311871604E-01  0.35000000149E-01 0.  0.
</event>
<event>
 4   0  0.4334200E-01  0.9118800E+02  0.7818609E-02  0.1379984E+01
      -11   -1    0    0    0    0  0.00000000000E+00  0.00000000000E+00  0.35740347158E-01  0.35744000000E-01  0.51099999109E-03 0. -1.
       11   -1    0    0    0    0 -0.00000000000E+00 -0.00000000000E+00 -0.35740347158E-01  0.35744000000E-01  0.51099999109E-03 0.  1.
       22    1    1    2    0    0  0.96542454504E-02  0.45682064990E-03 -0.25399386100E-01  0.27176128396E-01  0.00000000000E+00 0.  1.
  9000001    1    1    2    0    0 -0.96542454504E-02 -0.45682064990E-03  0.25399386100E-01  0.44311871604E-01  0.35000000149E-01 0. -1.
</event>
<event>
 4   0  0.4334200E-01  0.9118800E+02  0.7818609E-02  0.1379984E+01
      -11   -1    0    0    0    0  0.00000000000E+00  0.00000000000E+00  0.35740347158E-01  0.35744000000E-01  0.51099999109E-03 0.  1.
       11   -1    0    0    0    0 -0.00000000000E+00 -0.00000000000E+00 -0.35740347158E-01  0.35744000000E-01  0.51099999109E-03 0. -1.
       22    1    1    2    0    0 -0.67304046644E-02  0.23507340202E-01  0.11859534741E-01  0.27176128396E-01  0.00000000000E+00 0.  1.
  9000001    1    1    2    0    0  0.67304046644E-02 -0.23507340202E-01 -0.11859534741E-01  0.44311871604E-01  0.35000000149E-01 0. -1.
</event>
<event>
 4   0  0.4334200E-01  0.9118800E+02  0.7818609E-02  0.1379984E+01
      -11   -1    0    0    0    0  0.00000000000E+00  0.00000000000E+00  0.35740347158E-01  0.35744000000E-01  0.51099999109E-03 0. -1.
       11   -1    0    0    0    0 -0.00000000000E+00 -0.00000000000E+00 -0.35740347158E-01  0.35744000000E-01  0.51099999109E-03 0.  1.
       22    1    1    2    0    0 -0.11812750061E-01  0.24406884433E-01  0.18179336863E-02  0.27176128396E-01  0.00000000000E+00 0.  1.
  9000001    1    1    2    0    0  0.11812750061E-01 -0.24406884433E-01 -0.18179336863E-02  0.44311871604E-01  0.35000000149E-01 0. -1.
</event>
<event>
 4   0  0.4334200E-01  0.9118800E+02  0.7818609E-02  0.1379984E+01
      -11   -1    0    0    0    0  0.00000000000E+00  0.00000000000E+00  0.35740347158E-01  0.35744000000E-01  0.51099999109E-03 0. -1.
       11   -1    0    0    0    0 -0.00000000000E+00 -0.00000000000E+00 -0.35740347158E-01  0.35744000000E-01  0.51099999109E-03 0.  1.
       22    1    1    2    0    0 -0.24299097891E-01 -0.88249864018E-02  0.83794636641E-02  0.27176128396E-01  0.00000000000E+00 0.  1.
  9000001    1    1    2    0    0  0.24299097891E-01  0.88249864018E-02 -0.83794636641E-02  0.44311871604E-01  0.35000000149E-01 0. -1.
</event>
<event>
 4   0  0.4334200E-01  0.9118800E+02  0.7818609E-02  0.1379984E+01
      -11   -1    0    0    0    0  0.00000000000E+00  0.00000000000E+00  0.35740347158E-01  0.35744000000E-01  0.51099999109E-03 0. -1.
       11   -1    0    0    0    0 -0.00000000000E+00 -0.00000000000E+00 -0.35740347158E-01  0.35744000000E-01  0.51099999109E-03 0.  1.
       22    1    1    2    0    0 -0.11599305782E-01 -0.25819854973E-02  0.24440364377E-01  0.27176128396E-01  0.00000000000E+00 0.  1.
  9000001    1    1    2    0    0  0.11599305782E-01  0.25819854973E-02 -0.24440364377E-01  0.44311871604E-01  0.35000000149E-01 0.  1.
</event>
<event>
 4   0  0.4334200E-01  0.9118800E+02  0.7818609E-02  0.1379984E+01
      -11   -1    0    0    0    0  0.00000000000E+00  0.00000000000E+00  0.35740347158E-01  0.35744000000E-01  0.51099999109E-03 0. -1.
       11   -1    0    0    0    0 -0.00000000000E+00 -0.00000000000E+00 -0.35740347158E-01  0.35744000000E-01  0.51099999109E-03 0.  1.
       22    1    1    2    0    0  0.20739686252E-03  0.41121954642E-02 -0.26862404762E-01  0.27176128396E-01  0.00000000000E+00 0.  1.
  9000001    1    1    2    0    0 -0.20739686252E-03 -0.41121954642E-02  0.26862404762E-01  0.44311871604E-01  0.35000000149E-01 0. -1.
</event>
<event>
 4   0  0.4334200E-01  0.9118800E+02  0.7818609E-02  0.1379984E+01
      -11   -1    0    0    0    0  0.00000000000E+00  0.00000000000E+00  0.35740347158E-01  0.35744000000E-01  0.51099999109E-03 0. -1.
       11   -1    0    0    0    0 -0.00000000000E+00 -0.00000000000E+00 -0.35740347158E-01  0.35744000000E-01  0.51099999109E-03 0.  1.
       22    1    1    2    0    0 -0.43071796816E-02 -0.70554486638E-02  0.25888429886E-01  0.27176128396E-01  0.00000000000E+00 0. -1.
  9000001    1    1    2    0    0  0.43071796816E-02  0.70554486638E-02 -0.25888429886E-01  0.44311871604E-01  0.35000000149E-01 0.  1.
</event>
<event>
 4   0  0.4334200E-01  0.9118800E+02  0.7818609E-02  0.1379984E+01
      -11   -1    0    0    0    0  0.00000000000E+00  0.00000000000E+00  0.35740347158E-01  0.35744000000E-01  0.51099999109E-03 0.  1.
       11   -1    0    0    0    0 -0.00000000000E+00 -0.00000000000E+00 -0.35740347158E-01  0.35744000000E-01  0.51099999109E-03 0. -1.
       22    1    1    2    0    0 -0.16953764450E-02  0.34806595712E-02 -0.26898934222E-01  0.27176128396E-01  0.00000000000E+00 0. -1.
  9000001    1    1    2    0    0  0.16953764450E-02 -0.34806595712E-02  0.26898934222E-01  0.44311871604E-01  0.35000000149E-01 0.  1.
</event>
<event>
 4   0  0.4334200E-01  0.9118800E+02  0.7818609E-02  0.1379984E+01
      -11   -1    0    0    0    0  0.00000000000E+00  0.00000000000E+00  0.35740347158E-01  0.35744000000E-01  0.51099999109E-03 0.  1.
       11   -1    0    0    0    0 -0.00000000000E+00 -0.00000000000E+00 -0.35740347158E-01  0.35744000000E-01  0.51099999109E-03 0. -1.
       22    1    1    2    0    0 -0.40363223704E-02 -0.95552493956E-03 -0.26857718228E-01  0.27176128396E-01  0.00000000000E+00 0. -1.
  9000001    1    1    2    0    0  0.40363223704E-02  0.95552493956E-03  0.26857718228E-01  0.44311871604E-01  0.35000000149E-01 0.  1.
</event>
<event>
 4   0  0.4334200E-01  0.9118800E+02  0.7818609E-02  0.1379984E+01
      -11   -1    0    0    0    0  0.00000000000E+00  0.00000000000E+00  0.35740347158E-01  0.35744000000E-01  0.51099999109E-03 0.  1.
       11   -1    0    0    0    0 -0.00000000000E+00 -0.00000000000E+00 -0.35740347158E-01  0.35744000000E-01  0.51099999109E-03 0. -1.
       22    1    1    2    0    0 -0.58698153386E-02  0.51795121230E-02  0.26024217119E-01  0.27176128396E-01  0.00000000000E+00 0.  1.
  9000001    1    1    2    0    0  0.58698153386E-02 -0.51795121230E-02 -0.26024217119E-01  0.44311871604E-01  0.35000000149E-01 0. -1.
</event>
<event>
 4   0  0.4334200E-01  0.9118800E+02  0.7818609E-02  0.1379984E+01
      -11   -1    0    0    0    0  0.00000000000E+00  0.00000000000E+00  0.35740347158E-01  0.35744000000E-01  0.51099999109E-03 0.  1.
       11   -1    0    0    0    0 -0.00000000000E+00 -0.00000000000E+00 -0.35740347158E-01  0.35744000000E-01  0.51099999109E-03 0. -1.
       22    1    1    2    0    0 -0.12025468112E-02  0.40384645099E-02 -0.26847469903E-01  0.27176128396E-01  0.00000000000E+00 0.  1.
  9000001    1    1    2    0    0  0.12025468112E-02 -0.40384645099E-02  0.26847469903E-01  0.44311871604E-01  0.35000000149E-01 0.  1.
</event>
<event>
 4   0  0.4334200E-01  0.9118800E+02  0.7818609E-02  0.1379984E+01
      -11   -1    0    0    0    0  0.00000000000E+00  0.00000000000E+00  0.35740347158E-01  0.35744000000E-01  0.51099999109E-03 0. -1.
       11   -1    0    0    0    0 -0.00000000000E+00 -0.00000000000E+00 -0.35740347158E-01  0.35744000000E-01  0.51099999109E-03 0.  1.
       22    1    1    2    0    0 -0.27041463312E-02  0.20464108302E-02  0.26963711724E-01  0.27176128396E-01  0.00000000000E+00 0. -1.
  9000001    1    1    2    0    0  0.27041463312E-02 -0.20464108302E-02 -0.26963711724E-01  0.44311871604E-01  0.35000000149E-01 0.  1.
</event>
<event>
 4   0  0.4334200E-01  0.9118800E+02  0.7818609E-02  0.1379984E+01
      -11   -1    0    0    0    0  0.00000000000E+00  0.00000000000E+00  0.35740347158E-01  0.35744000000E-01  0.51099999109E-03 0. -1.
       11   -1    0    0    0    0 -0.00000000000E+00 -0.00000000000E+00 -0.35740347158E-01  0.35744000000E-01  0.51099999109E-03 0.  1.
       22    1    1    2    0    0 -0.46664588493E-02 -0.25085030233E-02  0.26654709321E-01  0.27176128396E-01  0.00000000000E+00 0. -1.
  9000001    1    1    2    0    0  0.46664588493E-02  0.25085030233E-02 -0.26654709321E-01  0.44311871604E-01  0.35000000149E-01 0.  1.
</event>
<event>
 4   0  0.4334200E-01  0.9118800E+02  0.7818609E-02  0.1379984E+01
      -11   -1    0    0    0    0  0.00000000000E+00  0.00000000000E+00  0.35740347158E-01  0.35744000000E-01  0.51099999109E-03 0.  1.
       11   -1    0    0    0    0 -0.00000000000E+00 -0.00000000000E+00 -0.35740347158E-01  0.35744000000E-01  0.51099999109E-03 0. -1.
       22    1    1    2    0    0  0.22013900259E-01 -0.74004074835E-02  0.14112551827E-01  0.27176128396E-01  0.00000000000E+00 0.  1.
  9000001    1    1    2    0    0 -0.22013900259E-01  0.74004074835E-02 -0.14112551827E-01  0.44311871604E-01  0.35000000149E-01 0.  0.
</event>
<event>
 4   0  0.4334200E-01  0.9118800E+02  0.7818609E-02  0.1379984E+01
      -11   -1    0    0    0    0  0.00000000000E+00  0.00000000000E+00  0.35740347158E-01  0.35744000000E-01  0.51099999109E-03 0.  1.
       11   -1    0    0    0    0 -0.00000000000E+00 -0.00000000000E+00 -0.35740347158E-01  0.35744000000E-01  0.51099999109E-03 0. -1.
       22    1    1    2    0    0  0.61255271230E-02  0.30504858514E-02  0.26300464029E-01  0.27176128396E-01  0.00000000000E+00 0.  1.
  9000001    1    1    2    0    0 -0.61255271230E-02 -0.30504858514E-02 -0.26300464029E-01  0.44311871604E-01  0.35000000149E-01 0. -1.
</event>
<event>
 4   0  0.4334200E-01  0.9118800E+02  0.7818609E-02  0.1379984E+01
      -11   -1    0    0    0    0  0.00000000000E+00  0.00000000000E+00  0.35740347158E-01  0.35744000000E-01  0.51099999109E-03 0. -1.
       11   -1    0    0    0    0 -0.00000000000E+00 -0.00000000000E+00 -0.35740347158E-01  0.35744000000E-01  0.51099999109E-03 0.  1.
       22    1    1    2    0    0 -0.57482526468E-02 -0.24437094374E-02  0.26448588437E-01  0.27176128396E-01  0.00000000000E+00 0. -1.
  9000001    1    1    2    0    0  0.57482526468E-02  0.24437094374E-02 -0.26448588437E-01  0.44311871604E-01  0.35000000149E-01 0.  1.
</event>
<event>
 4   0  0.4334200E-01  0.9118800E+02  0.7818609E-02  0.1379984E+01
      -11   -1    0    0    0    0  0.00000000000E+00  0.00000000000E+00  0.35740347158E-01  0.35744000000E-01  0.51099999109E-03 0.  1.
       11   -1    0    0    0    0 -0.00000000000E+00 -0.00000000000E+00 -0.35740347158E-01  0.35744000000E-01  0.51099999109E-03 0. -1.
       22    1    1    2    0    0  0.13176463142E-02  0.32802184525E-02  0.26945239463E-01  0.27176128396E-01  0.00000000000E+00 0.  1.
  9000001    1    1    2    0    0 -0.13176463142E-02 -0.32802184525E-02 -0.26945239463E-01  0.44311871604E-01  0.35000000149E-01 0. -1.
</event>
<event>
 4   0  0.4334200E-01  0.9118800E+02  0.7818609E-02  0.1379984E+01
      -11   -1    0    0    0    0  0.00000000000E+00  0.00000000000E+00  0.35740347158E-01  0.35744000000E-01  0.51099999109E-03 0. -1.
       11   -1    0    0    0    0 -0.00000000000E+00 -0.00000000000E+00 -0.35740347158E-01  0.35744000000E-01  0.51099999109E-03 0.  1.
       22    1    1    2    0    0 -0.52545035675E-02  0.18911897194E-02 -0.26596156645E-01  0.27176128396E-01  0.00000000000E+00 0.  1.
  9000001    1    1    2    0    0  0.52545035675E-02 -0.18911897194E-02  0.26596156645E-01  0.44311871604E-01  0.35000000149E-01 0. -1.
</event>
<event>
 4   0  0.4334200E-01  0.9118800E+02  0.7818609E-02  0.1379984E+01
      -11   -1    0    0    0    0  0.00000000000E+00  0.00000000000E+00  0.35740347158E-01  0.35744000000E-01  0.51099999109E-03 0.  1.
       11   -1    0    0    0    0 -0.00000000000E+00 -0.00000000000E+00 -0.35740347158E-01  0.35744000000E-01  0.51099999109E-03 0. -1.
       22    1    1    2    0    0 -0.12490118218E-01 -0.33652016653E-02  0.23900090361E-01  0.27176128396E-01  0.00000000000E+00 0.  1.
  9000001    1    1    2    0    0  0.12490118218E-01  0.33652016653E-02 -0.23900090361E-01  0.44311871604E-01  0.35000000149E-01 0. -1.
</event>
<event>
 4   0  0.4334200E-01  0.9118800E+02  0.7818609E-02  0.1379984E+01
      -11   -1    0    0    0    0  0.00000000000E+00  0.00000000000E+00  0.35740347158E-01  0.35744000000E-01  0.51099999109E-03 0. -1.
       11   -1    0    0    0    0 -0.00000000000E+00 -0.00000000000E+00 -0.35740347158E-01  0.35744000000E-01  0.51099999109E-03 0.  1.
       22    1    1    2    0    0 -0.35965439678E-02 -0.22095058894E-02 -0.26846320229E-01  0.27176128396E-01  0.00000000000E+00 0.  1.
  9000001    1    1    2    0    0  0.35965439678E-02  0.22095058894E-02  0.26846320229E-01  0.44311871604E-01  0.35000000149E-01 0. -1.
</event>
<event>
 4   0  0.4334200E-01  0.9118800E+02  0.7818609E-02  0.1379984E+01
      -11   -1    0    0    0    0  0.00000000000E+00  0.00000000000E+00  0.35740347158E-01  0.35744000000E-01  0.51099999109E-03 0.  1.
       11   -1    0    0    0    0 -0.00000000000E+00 -0.00000000000E+00 -0.35740347158E-01  0.35744000000E-01  0.51099999109E-03 0. -1.
       22    1    1    2    0    0 -0.18570345868E-03 -0.84256688646E-02 -0.25836322746E-01  0.27176128396E-01  0.00000000000E+00 0. -1.
  9000001    1    1    2    0    0  0.18570345868E-03  0.84256688646E-02  0.25836322746E-01  0.44311871604E-01  0.35000000149E-01 0.  1.
</event>
<event>
 4   0  0.4334200E-01  0.9118800E+02  0.7818609E-02  0.1379984E+01
      -11   -1    0    0    0    0  0.00000000000E+00  0.00000000000E+00  0.35740347158E-01  0.35744000000E-01  0.51099999109E-03 0. -1.
       11   -1    0    0    0    0 -0.00000000000E+00 -0.00000000000E+00 -0.35740347158E-01  0.35744000000E-01  0.51099999109E-03 0.  1.
       22    1    1    2    0    0 -0.44371861296E-02 -0.14089794907E-02 -0.26774392816E-01  0.27176128396E-01  0.00000000000E+00 0.  1.
  9000001    1    1    2    0    0  0.44371861296E-02  0.14089794907E-02  0.26774392816E-01  0.44311871604E-01  0.35000000149E-01 0. -1.
</event>
<event>
 4   0  0.4334200E-01  0.9118800E+02  0.7818609E-02  0.1379984E+01
      -11   -1    0    0    0    0  0.00000000000E+00  0.00000000000E+00  0.35740347158E-01  0.35744000000E-01  0.51099999109E-03 0.  1.
       11   -1    0    0    0    0 -0.00000000000E+00 -0.00000000000E+00 -0.35740347158E-01  0.35744000000E-01  0.51099999109E-03 0. -1.
       22    1    1    2    0    0  0.11442849275E-01  0.14213463086E-01 -0.20139032304E-01  0.27176128396E-01  0.00000000000E+00 0. -1.
  9000001    1    1    2    0    0 -0.11442849275E-01 -0.14213463086E-01  0.20139032304E-01  0.44311871604E-01  0.35000000149E-01 0.  1.
</event>
<event>
 4   0  0.4334200E-01  0.9118800E+02  0.7818609E-02  0.1379984E+01
      -11   -1    0    0    0    0  0.00000000000E+00  0.00000000000E+00  0.35740347158E-01  0.35744000000E-01  0.51099999109E-03 0. -1.
       11   -1    0    0    0    0 -0.00000000000E+00 -0.00000000000E+00 -0.35740347158E-01  0.35744000000E-01  0.51099999109E-03 0.  1.
       22    1    1    2    0    0  0.13847136701E-01 -0.50704563185E-02  0.22827379011E-01  0.27176128396E-01  0.00000000000E+00 0. -1.
  9000001    1    1    2    0    0 -0.13847136701E-01  0.50704563185E-02 -0.22827379011E-01  0.44311871604E-01  0.35000000149E-01 0.  1.
</event>
<event>
 4   0  0.4334200E-01  0.9118800E+02  0.7818609E-02  0.1379984E+01
      -11   -1    0    0    0    0  0.00000000000E+00  0.00000000000E+00  0.35740347158E-01  0.35744000000E-01  0.51099999109E-03 0. -1.
       11   -1    0    0    0    0 -0.00000000000E+00 -0.00000000000E+00 -0.35740347158E-01  0.35744000000E-01  0.51099999109E-03 0.  1.
       22    1    1    2    0    0 -0.17541462740E-01  0.12460057237E-01 -0.16600783512E-01  0.27176128396E-01  0.00000000000E+00 0.  1.
  9000001    1    1    2    0    0  0.17541462740E-01 -0.12460057237E-01  0.16600783512E-01  0.44311871604E-01  0.35000000149E-01 0.  0.
</event>
<event>
 4   0  0.4334200E-01  0.9118800E+02  0.7818609E-02  0.1379984E+01
      -11   -1    0    0    0    0  0.00000000000E+00  0.00000000000E+00  0.35740347158E-01  0.35744000000E-01  0.51099999109E-03 0. -1.
       11   -1    0    0    0    0 -0.00000000000E+00 -0.00000000000E+00 -0.35740347158E-01  0.35744000000E-01  0.51099999109E-03 0.  1.
       22    1    1    2    0    0 -0.31963388326E-02 -0.27491694897E-02 -0.26847112318E-01  0.27176128396E-01  0.00000000000E+00 0.  1.
  9000001    1    1    2    0    0  0.31963388326E-02  0.27491694897E-02  0.26847112318E-01  0.44311871604E-01  0.35000000149E-01 0. -1.
</event>
<event>
 4   0  0.4334200E-01  0.9118800E+02  0.7818609E-02  0.1379984E+01
      -11   -1    0    0    0    0  0.00000000000E+00  0.00000000000E+00  0.35740347158E-01  0.35744000000E-01  0.51099999109E-03 0. -1.
       11   -1    0    0    0    0 -0.00000000000E+00 -0.00000000000E+00 -0.35740347158E-01  0.35744000000E-01  0.51099999109E-03 0.  1.
       22    1    1    2    0    0 -0.79366307454E-02 -0.11690786668E-01 -0.23213732016E-01  0.27176128396E-01  0.00000000000E+00 0.  1.
  9000001    1    1    2    0    0  0.79366307454E-02  0.11690786668E-01  0.23213732016E-01  0.44311871604E-01  0.35000000149E-01 0. -1.
</event>
<event>
 4   0  0.4334200E-01  0.9118800E+02  0.7818609E-02  0.1379984E+01
      -11   -1    0    0    0    0  0.00000000000E+00  0.00000000000E+00  0.35740347158E-01  0.35744000000E-01  0.51099999109E-03 0. -1.
       11   -1    0    0    0    0 -0.00000000000E+00 -0.00000000000E+00 -0.35740347158E-01  0.35744000000E-01  0.51099999109E-03 0.  1.
       22    1    1    2    0    0  0.61255594266E-02  0.57017709183E-02  0.25855546498E-01  0.27176128396E-01  0.00000000000E+00 0. -1.
  9000001    1    1    2    0    0 -0.61255594266E-02 -0.57017709183E-02 -0.25855546498E-01  0.44311871604E-01  0.35000000149E-01 0.  1.
</event>
<event>
 4   0  0.4334200E-01  0.9118800E+02  0.7818609E-02  0.1379984E+01
      -11   -1    0    0    0    0  0.00000000000E+00  0.00000000000E+00  0.35740347158E-01  0.35744000000E-01  0.51099999109E-03 0.  1.
       11   -1    0    0    0    0 -0.00000000000E+00 -0.00000000000E+00 -0.35740347158E-01  0.35744000000E-01  0.51099999109E-03 0. -1.
       22    1    1    2    0    0 -0.24860653355E-01  0.98992263817E-02  0.47429090674E-02  0.27176128396E-01  0.00000000000E+00 0.  1.
  9000001    1    1    2    0    0  0.24860653355E-01 -0.98992263817E-02 -0.47429090674E-02  0.44311871604E-01  0.35000000149E-01 0. -1.
</event>
<event>
 4   0  0.4334200E-01  0.9118800E+02  0.7818609E-02  0.1379984E+01
      -11   -1    0    0    0    0  0.00000000000E+00  0.00000000000E+00  0.35740347158E-01  0.35744000000E-01  0.51099999109E-03 0.  1.
       11   -1    0    0    0    0 -0.00000000000E+00 -0.00000000000E+00 -0.35740347158E-01  0.35744000000E-01  0.51099999109E-03 0. -1.
       22    1    1    2    0    0 -0.23870155798E-01  0.45278135393E-02 -0.12176063458E-01  0.27176128396E-01  0.00000000000E+00 0. -1.
  9000001    1    1    2    0    0  0.23870155798E-01 -0.45278135393E-02  0.12176063458E-01  0.44311871604E-01  0.35000000149E-01 0.  1.
</event>
<event>
 4   0  0.4334200E-01  0.9118800E+02  0.7818609E-02  0.1379984E+01
      -11   -1    0    0    0    0  0.00000000000E+00  0.00000000000E+00  0.35740347158E-01  0.35744000000E-01  0.51099999109E-03 0. -1.
       11   -1    0    0    0    0 -0.00000000000E+00 -0.00000000000E+00 -0.35740347158E-01  0.35744000000E-01  0.51099999109E-03 0.  1.
       22    1    1    2    0    0  0.11719405573E-02 -0.37502469964E-02  0.26890596077E-01  0.27176128396E-01  0.00000000000E+00 0. -1.
  9000001    1    1    2    0    0 -0.11719405573E-02  0.37502469964E-02 -0.26890596077E-01  0.44311871604E-01  0.35000000149E-01 0.  1.
</event>
<event>
 4   0  0.4334200E-01  0.9118800E+02  0.7818609E-02  0.1379984E+01
      -11   -1    0    0    0    0  0.00000000000E+00  0.00000000000E+00  0.35740347158E-01  0.35744000000E-01  0.51099999109E-03 0.  1.
       11   -1    0    0    0    0 -0.00000000000E+00 -0.00000000000E+00 -0.35740347158E-01  0.35744000000E-01  0.51099999109E-03 0. -1.
       22    1    1    2    0    0 -0.16240264354E-02  0.36872961443E-02  0.26875794684E-01  0.27176128396E-01  0.00000000000E+00 0.  1.
  9000001    1    1    2    0    0  0.16240264354E-02 -0.36872961443E-02 -0.26875794684E-01  0.44311871604E-01  0.35000000149E-01 0. -1.
</event>
<event>
 4   0  0.4334200E-01  0.9118800E+02  0.7818609E-02  0.1379984E+01
      -11   -1    0    0    0    0  0.00000000000E+00  0.00000000000E+00  0.35740347158E-01  0.35744000000E-01  0.51099999109E-03 0. -1.
       11   -1    0    0    0    0 -0.00000000000E+00 -0.00000000000E+00 -0.35740347158E-01  0.35744000000E-01  0.51099999109E-03 0.  1.
       22    1    1    2    0    0  0.54909226519E-03  0.49755062998E-02 -0.26711136055E-01  0.27176128396E-01  0.00000000000E+00 0.  1.
  9000001    1    1    2    0    0 -0.54909226519E-03 -0.49755062998E-02  0.26711136055E-01  0.44311871604E-01  0.35000000149E-01 0. -1.
</event>
<event>
 4   0  0.4334200E-01  0.9118800E+02  0.7818609E-02  0.1379984E+01
      -11   -1    0    0    0    0  0.00000000000E+00  0.00000000000E+00  0.35740347158E-01  0.35744000000E-01  0.51099999109E-03 0. -1.
       11   -1    0    0    0    0 -0.00000000000E+00 -0.00000000000E+00 -0.35740347158E-01  0.35744000000E-01  0.51099999109E-03 0.  1.
       22    1    1    2    0    0 -0.23746478029E-02 -0.20458497197E-02  0.26994768036E-01  0.27176128396E-01  0.00000000000E+00 0. -1.
  9000001    1    1    2    0    0  0.23746478029E-02  0.20458497197E-02 -0.26994768036E-01  0.44311871604E-01  0.35000000149E-01 0.  1.
</event>
<event>
 4   0  0.4334200E-01  0.9118800E+02  0.7818609E-02  0.1379984E+01
      -11   -1    0    0    0    0  0.00000000000E+00  0.00000000000E+00  0.35740347158E-01  0.35744000000E-01  0.51099999109E-03 0.  1.
       11   -1    0    0    0    0 -0.00000000000E+00 -0.00000000000E+00 -0.35740347158E-01  0.35744000000E-01  0.51099999109E-03 0. -1.
       22    1    1    2    0    0 -0.37755395161E-02  0.16489574638E-02 -0.26862021429E-01  0.27176128396E-01  0.00000000000E+00 0. -1.
  9000001    1    1    2    0    0  0.37755395161E-02 -0.16489574638E-02  0.26862021429E-01  0.44311871604E-01  0.35000000149E-01 0.  1.
</event>
<event>
 4   0  0.4334200E-01  0.9118800E+02  0.7818609E-02  0.1379984E+01
      -11   -1    0    0    0    0  0.00000000000E+00  0.00000000000E+00  0.35740347158E-01  0.35744000000E-01  0.51099999109E-03 0. -1.
       11   -1    0    0    0    0 -0.00000000000E+00 -0.00000000000E+00 -0.35740347158E-01  0.35744000000E-01  0.51099999109E-03 0.  1.
       22    1    1    2    0    0 -0.13343043565E-01  0.71381707662E-02 -0.22573251010E-01  0.27176128396E-01  0.00000000000E+00 0.  1.
  9000001    1    1    2    0    0  0.13343043565E-01 -0.71381707662E-02  0.22573251010E-01  0.44311871604E-01  0.35000000149E-01 0. -1.
</event>
<event>
 4   0  0.4334200E-01  0.9118800E+02  0.7818609E-02  0.1379984E+01
      -11   -1    0    0    0    0  0.00000000000E+00  0.00000000000E+00  0.35740347158E-01  0.35744000000E-01  0.51099999109E-03 0. -1.
       11   -1    0    0    0    0 -0.00000000000E+00 -0.00000000000E+00 -0.35740347158E-01  0.35744000000E-01  0.51099999109E-03 0.  1.
       22    1    1    2    0    0 -0.13472799255E-01  0.11467628949E-01 -0.20628114823E-01  0.27176128396E-01  0.00000000000E+00 0.  1.
  9000001    1    1    2    0    0  0.13472799255E-01 -0.11467628949E-01  0.20628114823E-01  0.44311871604E-01  0.35000000149E-01 0. -1.
</event>
<event>
 4   0  0.4334200E-01  0.9118800E+02  0.7818609E-02  0.1379984E+01
      -11   -1    0    0    0    0  0.00000000000E+00  0.00000000000E+00  0.35740347158E-01  0.35744000000E-01  0.51099999109E-03 0.  1.
       11   -1    0    0    0    0 -0.00000000000E+00 -0.00000000000E+00 -0.35740347158E-01  0.35744000000E-01  0.51099999109E-03 0. -1.
       22    1    1    2    0    0  0.21536369560E-02 -0.48620922716E-02  0.26650775996E-01  0.27176128396E-01  0.00000000000E+00 0.  1.
  9000001    1    1    2    0    0 -0.21536369560E-02  0.48620922716E-02 -0.26650775996E-01  0.44311871604E-01  0.35000000149E-01 0. -1.
</event>
<event>
 4   0  0.4334200E-01  0.9118800E+02  0.7818609E-02  0.1379984E+01
      -11   -1    0    0    0    0  0.00000000000E+00  0.00000000000E+00  0.35740347158E-01  0.35744000000E-01  0.51099999109E-03 0. -1.
       11   -1    0    0    0    0 -0.00000000000E+00 -0.00000000000E+00 -0.35740347158E-01  0.35744000000E-01  0.51099999109E-03 0.  1.
       22    1    1    2    0    0  0.44353941387E-02  0.50852047446E-02 -0.26325081693E-01  0.27176128396E-01  0.00000000000E+00 0.  1.
  9000001    1    1    2    0    0 -0.44353941387E-02 -0.50852047446E-02  0.26325081693E-01  0.44311871604E-01  0.35000000149E-01 0. -1.
</event>
<event>
 4   0  0.4334200E-01  0.9118800E+02  0.7818609E-02  0.1379984E+01
      -11   -1    0    0    0    0  0.00000000000E+00  0.00000000000E+00  0.35740347158E-01  0.35744000000E-01  0.51099999109E-03 0. -1.
       11   -1    0    0    0    0 -0.00000000000E+00 -0.00000000000E+00 -0.35740347158E-01  0.35744000000E-01  0.51099999109E-03 0.  1.
       22    1    1    2    0    0 -0.10686166433E-01 -0.79966890852E-02 -0.23672785329E-01  0.27176128396E-01  0.00000000000E+00 0.  1.
  9000001    1    1    2    0    0  0.10686166433E-01  0.79966890852E-02  0.23672785329E-01  0.44311871604E-01  0.35000000149E-01 0. -1.
</event>
<event>
 4   0  0.4334200E-01  0.9118800E+02  0.7818609E-02  0.1379984E+01
      -11   -1    0    0    0    0  0.00000000000E+00  0.00000000000E+00  0.35740347158E-01  0.35744000000E-01  0.51099999109E-03 0.  1.
       11   -1    0    0    0    0 -0.00000000000E+00 -0.00000000000E+00 -0.35740347158E-01  0.35744000000E-01  0.51099999109E-03 0. -1.
       22    1    1    2    0    0  0.92730240027E-04  0.46538819113E-02 -0.26774516594E-01  0.27176128396E-01  0.00000000000E+00 0. -1.
  9000001    1    1    2    0    0 -0.92730240027E-04 -0.46538819113E-02  0.26774516594E-01  0.44311871604E-01  0.35000000149E-01 0.  1.
</event>
<event>
 4   0  0.4334200E-01  0.9118800E+02  0.7818609E-02  0.1379984E+01
      -11   -1    0    0    0    0  0.00000000000E+00  0.00000000000E+00  0.35740347158E-01  0.35744000000E-01  0.51099999109E-03 0.  1.
       11   -1    0    0    0    0 -0.00000000000E+00 -0.00000000000E+00 -0.35740347158E-01  0.35744000000E-01  0.51099999109E-03 0. -1.
       22    1    1    2    0    0 -0.94465282985E-02 -0.60134854343E-02  0.24761725518E-01  0.27176128396E-01  0.00000000000E+00 0.  1.
  9000001    1    1    2    0    0  0.94465282985E-02  0.60134854343E-02 -0.24761725518E-01  0.44311871604E-01  0.35000000149E-01 0. -1.
</event>
<event>
 4   0  0.4334200E-01  0.9118800E+02  0.7818609E-02  0.1379984E+01
      -11   -1    0    0    0    0  0.00000000000E+00  0.00000000000E+00  0.35740347158E-01  0.35744000000E-01  0.51099999109E-03 0.  1.
       11   -1    0    0    0    0 -0.00000000000E+00 -0.00000000000E+00 -0.35740347158E-01  0.35744000000E-01  0.51099999109E-03 0. -1.
       22    1    1    2    0    0 -0.23158006237E-01 -0.56195542866E-02 -0.13064046516E-01  0.27176128396E-01  0.00000000000E+00 0.  1.
  9000001    1    1    2    0    0  0.23158006237E-01  0.56195542866E-02  0.13064046516E-01  0.44311871604E-01  0.35000000149E-01 0.  0.
</event>
<event>
 4   0  0.4334200E-01  0.9118800E+02  0.7818609E-02  0.1379984E+01
      -11   -1    0    0    0    0  0.00000000000E+00  0.00000000000E+00  0.35740347158E-01  0.35744000000E-01  0.51099999109E-03 0.  1.
       11   -1    0    0    0    0 -0.00000000000E+00 -0.00000000000E+00 -0.35740347158E-01  0.35744000000E-01  0.51099999109E-03 0. -1.
       22    1    1    2    0    0  0.27103901313E-01 -0.28661460441E-04 -0.19798148298E-02  0.27176128396E-01  0.00000000000E+00 0. -1.
  9000001    1    1    2    0    0 -0.27103901313E-01  0.28661460441E-04  0.19798148298E-02  0.44311871604E-01  0.35000000149E-01 0.  1.
</event>
<event>
 4   0  0.4334200E-01  0.9118800E+02  0.7818609E-02  0.1379984E+01
      -11   -1    0    0    0    0  0.00000000000E+00  0.00000000000E+00  0.35740347158E-01  0.35744000000E-01  0.51099999109E-03 0. -1.
       11   -1    0    0    0    0 -0.00000000000E+00 -0.00000000000E+00 -0.35740347158E-01  0.35744000000E-01  0.51099999109E-03 0.  1.
       22    1    1    2    0    0  0.23568566470E-02 -0.29451738689E-02  0.26913066199E-01  0.27176128396E-01  0.00000000000E+00 0. -1.
  9000001    1    1    2    0    0 -0.23568566470E-02  0.29451738689E-02 -0.26913066199E-01  0.44311871604E-01  0.35000000149E-01 0.  1.
</event>
<event>
 4   0  0.4334200E-01  0.9118800E+02  0.7818609E-02  0.1379984E+01
      -11   -1    0    0    0    0  0.00000000000E+00  0.00000000000E+00  0.35740347158E-01  0.35744000000E-01  0.51099999109E-03 0.  1.
       11   -1    0    0    0    0 -0.00000000000E+00 -0.00000000000E+00 -0.35740347158E-01  0.35744000000E-01  0.51099999109E-03 0. -1.
       22    1    1    2    0    0  0.30421380396E-02 -0.79870408438E-03  0.26993507044E-01  0.27176128396E-01  0.00000000000E+00 0.  1.
  9000001    1    1    2    0    0 -0.30421380396E-02  0.79870408438E-03 -0.26993507044E-01  0.44311871604E-01  0.35000000149E-01 0. -1.
</event>
<event>
 4   0  0.4334200E-01  0.9118800E+02  0.7818609E-02  0.1379984E+01
      -11   -1    0    0    0    0  0.00000000000E+00  0.00000000000E+00  0.35740347158E-01  0.35744000000E-01  0.51099999109E-03 0. -1.
       11   -1    0    0    0    0 -0.00000000000E+00 -0.00000000000E+00 -0.35740347158E-01  0.35744000000E-01  0.51099999109E-03 0.  1.
       22    1    1    2    0    0  0.15145324493E-01  0.18690024863E-01 -0.12642945512E-01  0.27176128396E-01  0.00000000000E+00 0.  1.
  9000001    1    1    2    0    0 -0.15145324493E-01 -0.18690024863E-01  0.12642945512E-01  0.44311871604E-01  0.35000000149E-01 0. -1.
</event>
<event>
 4   0  0.4334200E-01  0.9118800E+02  0.7818609E-02  0.1379984E+01
      -11   -1    0    0    0    0  0.00000000000E+00  0.00000000000E+00  0.35740347158E-01  0.35744000000E-01  0.51099999109E-03 0.  1.
       11   -1    0    0    0    0 -0.00000000000E+00 -0.00000000000E+00 -0.35740347158E-01  0.35744000000E-01  0.51099999109E-03 0. -1.
       22    1    1    2    0    0  0.19360832446E-01 -0.34739848593E-02  0.18751841264E-01  0.27176128396E-01  0.00000000000E+00 0.  1.
  9000001    1    1    2    0    0 -0.19360832446E-01  0.34739848593E-02 -0.18751841264E-01  0.44311871604E-01  0.35000000149E-01 0. -1.
</event>
<event>
 4   0  0.4334200E-01  0.9118800E+02  0.7818609E-02  0.1379984E+01
      -11   -1    0    0    0    0  0.00000000000E+00  0.00000000000E+00  0.35740347158E-01  0.35744000000E-01  0.51099999109E-03 0. -1.
       11   -1    0    0    0    0 -0.00000000000E+00 -0.00000000000E+00 -0.35740347158E-01  0.35744000000E-01  0.51099999109E-03 0.  1.
       22    1    1    2    0    0  0.15598535647E-01  0.16881223987E-01  0.14500066102E-01  0.27176128396E-01  0.00000000000E+00 0. -1.
  9000001    1    1    2    0    0 -0.15598535647E-01 -0.16881223987E-01 -0.14500066102E-01  0.44311871604E-01  0.35000000149E-01 0.  1.
</event>
<event>
 4   0  0.4334200E-01  0.9118800E+02  0.7818609E-02  0.1379984E+01
      -11   -1    0    0    0    0  0.00000000000E+00  0.00000000000E+00  0.35740347158E-01  0.35744000000E-01  0.51099999109E-03 0.  1.
       11   -1    0    0    0    0 -0.00000000000E+00 -0.00000000000E+00 -0.35740347158E-01  0.35744000000E-01  0.51099999109E-03 0. -1.
       22    1    1    2    0    0 -0.44427074683E-02  0.75115590554E-03 -0.26800001302E-01  0.27176128396E-01  0.00000000000E+00 0. -1.
  9000001    1    1    2    0    0  0.44427074683E-02 -0.75115590554E-03  0.26800001302E-01  0.44311871604E-01  0.35000000149E-01 0.  1.
</event>
<event>
 4   0  0.4334200E-01  0.9118800E+02  0.7818609E-02  0.1379984E+01
      -11   -1    0    0    0    0  0.00000000000E+00  0.00000000000E+00  0.35740347158E-01  0.35744000000E-01  0.51099999109E-03 0. -1.
       11   -1    0    0    0    0 -0.00000000000E+00 -0.00000000000E+00 -0.35740347158E-01  0.35744000000E-01  0.51099999109E-03 0.  1.
       22    1    1    2    0    0 -0.16794043083E-02 -0.49456800237E-02  0.26669492025E-01  0.27176128396E-01  0.00000000000E+00 0. -1.
  9000001    1    1    2    0    0  0.16794043083E-02  0.49456800237E-02 -0.26669492025E-01  0.44311871604E-01  0.35000000149E-01 0.  1.
</event>
<event>
 4   0  0.4334200E-01  0.9118800E+02  0.7818609E-02  0.1379984E+01
      -11   -1    0    0    0    0  0.00000000000E+00  0.00000000000E+00  0.35740347158E-01  0.35744000000E-01  0.51099999109E-03 0.  1.
       11   -1    0    0    0    0 -0.00000000000E+00 -0.00000000000E+00 -0.35740347158E-01  0.35744000000E-01  0.51099999109E-03 0. -1.
       22    1    1    2    0    0 -0.15559284106E-01 -0.21076486101E-01 -0.72271962999E-02  0.27176128396E-01  0.00000000000E+00 0. -1.
  9000001    1    1    2    0    0  0.15559284106E-01  0.21076486101E-01  0.72271962999E-02  0.44311871604E-01  0.35000000149E-01 0.  0.
</event>
<event>
 4   0  0.4334200E-01  0.9118800E+02  0.7818609E-02  0.1379984E+01
      -11   -1    0    0    0    0  0.00000000000E+00  0.00000000000E+00  0.35740347158E-01  0.35744000000E-01  0.51099999109E-03 0.  1.
       11   -1    0    0    0    0 -0.00000000000E+00 -0.00000000000E+00 -0.35740347158E-01  0.35744000000E-01  0.51099999109E-03 0. -1.
       22    1    1    2    0    0  0.74055815534E-02  0.77164377594E-02  0.24983112392E-01  0.27176128396E-01  0.00000000000E+00 0.  1.
  9000001    1    1    2    0    0 -0.74055815534E-02 -0.77164377594E-02 -0.24983112392E-01  0.44311871604E-01  0.35000000149E-01 0. -1.
</event>
<event>
 4   0  0.4334200E-01  0.9118800E+02  0.7818609E-02  0.1379984E+01
      -11   -1    0    0    0    0  0.00000000000E+00  0.00000000000E+00  0.35740347158E-01  0.35744000000E-01  0.51099999109E-03 0.  1.
       11   -1    0    0    0    0 -0.00000000000E+00 -0.00000000000E+00 -0.35740347158E-01  0.35744000000E-01  0.51099999109E-03 0. -1.
       22    1    1    2    0    0 -0.24377560876E-01 -0.11891167871E-01  0.16960562998E-02  0.27176128396E-01  0.00000000000E+00 0.  1.
  9000001    1    1    2    0    0  0.24377560876E-01  0.11891167871E-01 -0.16960562998E-02  0.44311871604E-01  0.35000000149E-01 0. -1.
</event>
<event>
 4   0  0.4334200E-01  0.9118800E+02  0.7818609E-02  0.1379984E+01
      -11   -1    0    0    0    0  0.00000000000E+00  0.00000000000E+00  0.35740347158E-01  0.35744000000E-01  0.51099999109E-03 0.  1.
       11   -1    0    0    0    0 -0.00000000000E+00 -0.00000000000E+00 -0.35740347158E-01  0.35744000000E-01  0.51099999109E-03 0. -1.
       22    1    1    2    0    0 -0.68202359546E-02  0.39030381592E-02 -0.26015238405E-01  0.27176128396E-01  0.00000000000E+00 0. -1.
  9000001    1    1    2    0    0  0.68202359546E-02 -0.39030381592E-02  0.26015238405E-01  0.44311871604E-01  0.35000000149E-01 0.  1.
</event>
<event>
 4   0  0.4334200E-01  0.9118800E+02  0.7818609E-02  0.1379984E+01
      -11   -1    0    0    0    0  0.00000000000E+00  0.00000000000E+00  0.35740347158E-01  0.35744000000E-01  0.51099999109E-03 0. -1.
       11   -1    0    0    0    0 -0.00000000000E+00 -0.00000000000E+00 -0.35740347158E-01  0.35744000000E-01  0.51099999109E-03 0.  1.
       22    1    1    2    0    0 -0.88733139489E-02  0.10708542148E-02 -0.25664362946E-01  0.27176128396E-01  0.00000000000E+00 0.  1.
  9000001    1    1    2    0    0  0.88733139489E-02 -0.10708542148E-02  0.25664362946E-01  0.44311871604E-01  0.35000000149E-01 0. -1.
</event>
<event>
 4   0  0.4334200E-01  0.9118800E+02  0.7818609E-02  0.1379984E+01
      -11   -1    0    0    0    0  0.00000000000E+00  0.00000000000E+00  0.35740347158E-01  0.35744000000E-01  0.51099999109E-03 0. -1.
       11   -1    0    0    0    0 -0.00000000000E+00 -0.00000000000E+00 -0.35740347158E-01  0.35744000000E-01  0.51099999109E-03 0.  1.
       22    1    1    2    0    0 -0.44800153131E-02  0.26156063194E-01  0.58593323524E-02  0.27176128396E-01  0.00000000000E+00 0.  1.
  9000001    1    1    2    0    0  0.44800153131E-02 -0.26156063194E-01 -0.58593323524E-02  0.44311871604E-01  0.35000000149E-01 0. -1.
</event>
<event>
 4   0  0.4334200E-01  0.9118800E+02  0.7818609E-02  0.1379984E+01
      -11   -1    0    0    0    0  0.00000000000E+00  0.00000000000E+00  0.35740347158E-01  0.35744000000E-01  0.51099999109E-03 0.  1.
       11   -1    0    0    0    0 -0.00000000000E+00 -0.00000000000E+00 -0.35740347158E-01  0.35744000000E-01  0.51099999109E-03 0. -1.
       22    1    1    2    0    0 -0.35341809722E-02  0.82790263369E-02  0.25641943030E-01  0.27176128396E-01  0.00000000000E+00 0.  1.
  9000001    1    1    2    0    0  0.35341809722E-02 -0.82790263369E-02 -0.25641943030E-01  0.44311871604E-01  0.35000000149E-01 0. -1.
</event>
<event>
 4   0  0.4334200E-01  0.9118800E+02  0.7818609E-02  0.1379984E+01
      -11   -1    0    0    0    0  0.00000000000E+00  0.00000000000E+00  0.35740347158E-01  0.35744000000E-01  0.51099999109E-03 0.  1.
       11   -1    0    0    0    0 -0.00000000000E+00 -0.00000000000E+00 -0.35740347158E-01  0.35744000000E-01  0.51099999109E-03 0. -1.
       22    1    1    2    0    0 -0.23451640810E-02 -0.27288576794E-02 -0.26936879845E-01  0.27176128396E-01  0.00000000000E+00 0. -1.
  9000001    1    1    2    0    0  0.23451640810E-02  0.27288576794E-02  0.26936879845E-01  0.44311871604E-01  0.35000000149E-01 0.  1.
</event>
<event>
 4   0  0.4334200E-01  0.9118800E+02  0.7818609E-02  0.1379984E+01
      -11   -1    0    0    0    0  0.00000000000E+00  0.00000000000E+00  0.35740347158E-01  0.35744000000E-01  0.51099999109E-03 0.  1.
       11   -1    0    0    0    0 -0.00000000000E+00 -0.00000000000E+00 -0.35740347158E-01  0.35744000000E-01  0.51099999109E-03 0. -1.
       22    1    1    2    0    0 -0.15000459503E-01  0.10170656816E-02 -0.22638324732E-01  0.27176128396E-01  0.00000000000E+00 0.  1.
  9000001    1    1    2    0    0  0.15000459503E-01 -0.10170656816E-02  0.22638324732E-01  0.44311871604E-01  0.35000000149E-01 0.  1.
</event>
<event>
 4   0  0.4334200E-01  0.9118800E+02  0.7818609E-02  0.1379984E+01
      -11   -1    0    0    0    0  0.00000000000E+00  0.00000000000E+00  0.35740347158E-01  0.35744000000E-01  0.51099999109E-03 0. -1.
       11   -1    0    0    0    0 -0.00000000000E+00 -0.00000000000E+00 -0.35740347158E-01  0.35744000000E-01  0.51099999109E-03 0.  1.
       22    1    1    2    0    0  0.75094280004E-03 -0.29412618207E-02 -0.27006055218E-01  0.27176128396E-01  0.00000000000E+00 0.  1.
  9000001    1    1    2    0    0 -0.75094280004E-03  0.29412618207E-02  0.27006055218E-01  0.44311871604E-01  0.35000000149E-01 0. -1.
</event>
<event>
 4   0  0.4334200E-01  0.9118800E+02  0.7818609E-02  0.1379984E+01
      -11   -1    0    0    0    0  0.00000000000E+00  0.00000000000E+00  0.35740347158E-01  0.35744000000E-01  0.51099999109E-03 0.  1.
       11   -1    0    0    0    0 -0.00000000000E+00 -0.00000000000E+00 -0.35740347158E-01  0.35744000000E-01  0.51099999109E-03 0. -1.
       22    1    1    2    0    0 -0.33557976096E-02 -0.26014906866E-01  0.71067009058E-02  0.27176128396E-01  0.00000000000E+00 0. -1.
  9000001    1    1    2    0    0  0.33557976096E-02  0.26014906866E-01 -0.71067009058E-02  0.44311871604E-01  0.35000000149E-01 0.  0.
</event>
<event>
 4   0  0.4334200E-01  0.9118800E+02  0.7818609E-02  0.1379984E+01
      -11   -1    0    0    0    0  0.00000000000E+00  0.00000000000E+00  0.35740347158E-01  0.35744000000E-01  0.51099999109E-03 0. -1.
       11   -1    0    0    0    0 -0.00000000000E+00 -0.00000000000E+00 -0.35740347158E-01  0.35744000000E-01  0.51099999109E-03 0.  1.
       22    1    1    2    0    0 -0.54940576402E-02 -0.83030668037E-02 -0.25286683588E-01  0.27176128396E-01  0.00000000000E+00 0.  1.
  9000001    1    1    2    0    0  0.54940576402E-02  0.83030668037E-02  0.25286683588E-01  0.44311871604E-01  0.35000000149E-01 0. -1.
</event>
<event>
 4   0  0.4334200E-01  0.9118800E+02  0.7818609E-02  0.1379984E+01
      -11   -1    0    0    0    0  0.00000000000E+00  0.00000000000E+00  0.35740347158E-01  0.35744000000E-01  0.51099999109E-03 0. -1.
       11   -1    0    0    0    0 -0.00000000000E+00 -0.00000000000E+00 -0.35740347158E-01  0.35744000000E-01  0.51099999109E-03 0.  1.
       22    1    1    2    0    0  0.33430942944E-04 -0.19527199506E-01  0.18900511009E-01  0.27176128396E-01  0.00000000000E+00 0. -1.
  9000001    1    1    2    0    0 -0.33430942944E-04  0.19527199506E-01 -0.18900511009E-01  0.44311871604E-01  0.35000000149E-01 0.  1.
</event>
<event>
 4   0  0.4334200E-01  0.9118800E+02  0.7818609E-02  0.1379984E+01
      -11   -1    0    0    0    0  0.00000000000E+00  0.00000000000E+00  0.35740347158E-01  0.35744000000E-01  0.51099999109E-03 0. -1.
       11   -1    0    0    0    0 -0.00000000000E+00 -0.00000000000E+00 -0.35740347158E-01  0.35744000000E-01  0.51099999109E-03 0.  1.
       22    1    1    2    0    0  0.14357455486E-02  0.34588177668E-02 -0.26916856595E-01  0.27176128396E-01  0.00000000000E+00 0.  1.
  9000001    1    1    2    0    0 -0.14357455486E-02 -0.34588177668E-02  0.26916856595E-01  0.44311871604E-01  0.35000000149E-01 0. -1.
</event>
<event>
 4   0  0.4334200E-01  0.9118800E+02  0.7818609E-02  0.1379984E+01
      -11   -1    0    0    0    0  0.00000000000E+00  0.00000000000E+00  0.35740347158E-01  0.35744000000E-01  0.51099999109E-03 0.  1.
       11   -1    0    0    0    0 -0.00000000000E+00 -0.00000000000E+00 -0.35740347158E-01  0.35744000000E-01  0.51099999109E-03 0. -1.
       22    1    1    2    0    0  0.28770536336E-02 -0.63801914428E-02 -0.26259430195E-01  0.27176128396E-01  0.00000000000E+00 0. -1.
  9000001    1    1    2    0    0 -0.28770536336E-02  0.63801914428E-02  0.26259430195E-01  0.44311871604E-01  0.35000000149E-01 0.  1.
</event>
<event>
 4   0  0.4334200E-01  0.9118800E+02  0.7818609E-02  0.1379984E+01
      -11   -1    0    0    0    0  0.00000000000E+00  0.00000000000E+00  0.35740347158E-01  0.35744000000E-01  0.51099999109E-03 0. -1.
       11   -1    0    0    0    0 -0.00000000000E+00 -0.00000000000E+00 -0.35740347158E-01  0.35744000000E-01  0.51099999109E-03 0.  1.
       22    1    1    2    0    0  0.77912083344E-02 -0.46511669510E-02  0.25616511731E-01  0.27176128396E-01  0.00000000000E+00 0. -1.
  9000001    1    1    2    0    0 -0.77912083344E-02  0.46511669510E-02 -0.25616511731E-01  0.44311871604E-01  0.35000000149E-01 0.  1.
</event>
<event>
 4   0  0.4334200E-01  0.9118800E+02  0.7818609E-02  0.1379984E+01
      -11   -1    0    0    0    0  0.00000000000E+00  0.00000000000E+00  0.35740347158E-01  0.35744000000E-01  0.51099999109E-03 0. -1.
       11   -1    0    0    0    0 -0.00000000000E+00 -0.00000000000E+00 -0.35740347158E-01  0.35744000000E-01  0.51099999109E-03 0.  1.
       22    1    1    2    0    0  0.87807473428E-02  0.99125853623E-03 -0.25699374257E-01  0.27176128396E-01  0.00000000000E+00 0.  1.
  9000001    1    1    2    0    0 -0.87807473428E-02 -0.99125853623E-03  0.25699374257E-01  0.44311871604E-01  0.35000000149E-01 0. -1.
</event>
<event>
 4   0  0.4334200E-01  0.9118800E+02  0.7818609E-02  0.1379984E+01
      -11   -1    0    0    0    0  0.00000000000E+00  0.00000000000E+00  0.35740347158E-01  0.35744000000E-01  0.51099999109E-03 0.  1.
       11   -1    0    0    0    0 -0.00000000000E+00 -0.00000000000E+00 -0.35740347158E-01  0.35744000000E-01  0.51099999109E-03 0. -1.
       22    1    1    2    0    0 -0.12223057973E-01 -0.16955512030E-01 -0.17368057467E-01  0.27176128396E-01  0.00000000000E+00 0. -1.
  9000001    1    1    2    0    0  0.12223057973E-01  0.16955512030E-01  0.17368057467E-01  0.44311871604E-01  0.35000000149E-01 0.  1.
</event>
<event>
 4   0  0.4334200E-01  0.9118800E+02  0.7818609E-02  0.1379984E+01
      -11   -1    0    0    0    0  0.00000000000E+00  0.00000000000E+00  0.35740347158E-01  0.35744000000E-01  0.51099999109E-03 0.  1.
       11   -1    0    0    0    0 -0.00000000000E+00 -0.00000000000E+00 -0.35740347158E-01  0.35744000000E-01  0.51099999109E-03 0. -1.
       22    1    1    2    0    0  0.37775939537E-02 -0.10392590953E-01 -0.24824701243E-01  0.27176128396E-01  0.00000000000E+00 0. -1.
  9000001    1    1    2    0    0 -0.37775939537E-02  0.10392590953E-01  0.24824701243E-01  0.44311871604E-01  0.35000000149E-01 0.  0.
</event>
<event>
 4   0  0.4334200E-01  0.9118800E+02  0.7818609E-02  0.1379984E+01
      -11   -1    0    0    0    0  0.00000000000E+00  0.00000000000E+00  0.35740347158E-01  0.35744000000E-01  0.51099999109E-03 0.  1.
       11   -1    0    0    0    0 -0.00000000000E+00 -0.00000000000E+00 -0.35740347158E-01  0.35744000000E-01  0.51099999109E-03 0. -1.
       22    1    1    2    0    0 -0.10898910160E-01 -0.17817209787E-01 -0.17386855591E-01  0.27176128396E-01  0.00000000000E+00 0. -1.
  9000001    1    1    2    0    0  0.10898910160E-01  0.17817209787E-01  0.17386855591E-01  0.44311871604E-01  0.35000000149E-01 0.  1.
</event>
<event>
 4   0  0.4334200E-01  0.9118800E+02  0.7818609E-02  0.1379984E+01
      -11   -1    0    0    0    0  0.00000000000E+00  0.00000000000E+00  0.35740347158E-01  0.35744000000E-01  0.51099999109E-03 0. -1.
       11   -1    0    0    0    0 -0.00000000000E+00 -0.00000000000E+00 -0.35740347158E-01  0.35744000000E-01  0.51099999109E-03 0.  1.
       22    1    1    2    0    0  0.31266057503E-02  0.10292662447E-01 -0.24956509989E-01  0.27176128396E-01  0.00000000000E+00 0. -1.
  9000001    1    1    2    0    0 -0.31266057503E-02 -0.10292662447E-01  0.24956509989E-01  0.44311871604E-01  0.35000000149E-01 0.  0.
</event>
<event>
 4   0  0.4334200E-01  0.9118800E+02  0.7818609E-02  0.1379984E+01
      -11   -1    0    0    0    0  0.00000000000E+00  0.00000000000E+00  0.35740347158E-01  0.35744000000E-01  0.51099999109E-03 0. -1.
       11   -1    0    0    0    0 -0.00000000000E+00 -0.00000000000E+00 -0.35740347158E-01  0.35744000000E-01  0.51099999109E-03 0.  1.
       22    1    1    2    0    0 -0.53429885945E-02  0.35911324983E-02 -0.26402617197E-01  0.27176128396E-01  0.00000000000E+00 0.  1.
  9000001    1    1    2    0    0  0.53429885945E-02 -0.35911324983E-02  0.26402617197E-01  0.44311871604E-01  0.35000000149E-01 0. -1.
</event>
<event>
 4   0  0.4334200E-01  0.9118800E+02  0.7818609E-02  0.1379984E+01
      -11   -1    0    0    0    0  0.00000000000E+00  0.00000000000E+00  0.35740347158E-01  0.35744000000E-01  0.51099999109E-03 0.  1.
       11   -1    0    0    0    0 -0.00000000000E+00 -0.00000000000E+00 -0.35740347158E-01  0.35744000000E-01  0.51099999109E-03 0. -1.
       22    1    1    2    0    0  0.28182951861E-02  0.46880453926E-02 -0.26619943600E-01  0.27176128396E-01  0.00000000000E+00 0. -1.
  9000001    1    1    2    0    0 -0.28182951861E-02 -0.46880453926E-02  0.26619943600E-01  0.44311871604E-01  0.35000000149E-01 0.  0.
</event>
<event>
 4   0  0.4334200E-01  0.9118800E+02  0.7818609E-02  0.1379984E+01
      -11   -1    0    0    0    0  0.00000000000E+00  0.00000000000E+00  0.35740347158E-01  0.35744000000E-01  0.51099999109E-03 0.  1.
       11   -1    0    0    0    0 -0.00000000000E+00 -0.00000000000E+00 -0.35740347158E-01  0.35744000000E-01  0.51099999109E-03 0. -1.
       22    1    1    2    0    0  0.22143152088E-02 -0.52228309375E-02  0.26577449083E-01  0.27176128396E-01  0.00000000000E+00 0.  1.
  9000001    1    1    2    0    0 -0.22143152088E-02  0.52228309375E-02 -0.26577449083E-01  0.44311871604E-01  0.35000000149E-01 0. -1.
</event>
<event>
 4   0  0.4334200E-01  0.9118800E+02  0.7818609E-02  0.1379984E+01
      -11   -1    0    0    0    0  0.00000000000E+00  0.00000000000E+00  0.35740347158E-01  0.35744000000E-01  0.51099999109E-03 0. -1.
       11   -1    0    0    0    0 -0.00000000000E+00 -0.00000000000E+00 -0.35740347158E-01  0.35744000000E-01  0.51099999109E-03 0.  1.
       22    1    1    2    0    0  0.78645474223E-03 -0.89190090885E-02  0.25658813699E-01  0.27176128396E-01  0.00000000000E+00 0. -1.
  9000001    1    1    2    0    0 -0.78645474223E-03  0.89190090885E-02 -0.25658813699E-01  0.44311871604E-01  0.35000000149E-01 0.  1.
</event>
<event>
 4   0  0.4334200E-01  0.9118800E+02  0.7818609E-02  0.1379984E+01
      -11   -1    0    0    0    0  0.00000000000E+00  0.00000000000E+00  0.35740347158E-01  0.35744000000E-01  0.51099999109E-03 0. -1.
       11   -1    0    0    0    0 -0.00000000000E+00 -0.00000000000E+00 -0.35740347158E-01  0.35744000000E-01  0.51099999109E-03 0.  1.
       22    1    1    2    0    0  0.24572276786E-01 -0.11565240766E-01 -0.99517545093E-03  0.27176128396E-01  0.00000000000E+00 0.  1.
  9000001    1    1    2    0    0 -0.24572276786E-01  0.11565240766E-01  0.99517545093E-03  0.44311871604E-01  0.35000000149E-01 0.  0.
</event>
<event>
 4   0  0.4334200E-01  0.9118800E+02  0.7818609E-02  0.1379984E+01
      -11   -1    0    0    0    0  0.00000000000E+00  0.00000000000E+00  0.35740347158E-01  0.35744000000E-01  0.51099999109E-03 0.  1.
       11   -1    0    0    0    0 -0.00000000000E+00 -0.00000000000E+00 -0.35740347158E-01  0.35744000000E-01  0.51099999109E-03 0. -1.
       22    1    1    2    0    0  0.36457980592E-02  0.25310333447E-01 -0.91998441244E-02  0.27176128396E-01  0.00000000000E+00 0. -1.
  9000001    1    1    2    0    0 -0.36457980592E-02 -0.25310333447E-01  0.91998441244E-02  0.44311871604E-01  0.35000000149E-01 0.  1.
</event>
<event>
 4   0  0.4334200E-01  0.9118800E+02  0.7818609E-02  0.1379984E+01
      -11   -1    0    0    0    0  0.00000000000E+00  0.00000000000E+00  0.35740347158E-01  0.35744000000E-01  0.51099999109E-03 0. -1.
       11   -1    0    0    0    0 -0.00000000000E+00 -0.00000000000E+00 -0.35740347158E-01  0.35744000000E-01  0.51099999109E-03 0.  1.
       22    1    1    2    0    0 -0.48126296661E-02  0.99738648066E-02  0.24817384454E-01  0.27176128396E-01  0.00000000000E+00 0. -1.
  9000001    1    1    2    0    0  0.48126296661E-02 -0.99738648066E-02 -0.24817384454E-01  0.44311871604E-01  0.35000000149E-01 0.  1.
</event>
<event>
 4   0  0.4334200E-01  0.9118800E+02  0.7818609E-02  0.1379984E+01
      -11   -1    0    0    0    0  0.00000000000E+00  0.00000000000E+00  0.35740347158E-01  0.35744000000E-01  0.51099999109E-03 0. -1.
       11   -1    0    0    0    0 -0.00000000000E+00 -0.00000000000E+00 -0.35740347158E-01  0.35744000000E-01  0.51099999109E-03 0.  1.
       22    1    1    2    0    0  0.13857433963E-02  0.31990485770E-02  0.26951581736E-01  0.27176128396E-01  0.00000000000E+00 0.  1.
  9000001    1    1    2    0    0 -0.13857433963E-02 -0.31990485770E-02 -0.26951581736E-01  0.44311871604E-01  0.35000000149E-01 0.  1.
</event>
<event>
 4   0  0.4334200E-01  0.9118800E+02  0.7818609E-02  0.1379984E+01
      -11   -1    0    0    0    0  0.00000000000E+00  0.00000000000E+00  0.35740347158E-01  0.35744000000E-01  0.51099999109E-03 0. -1.
       11   -1    0    0    0    0 -0.00000000000E+00 -0.00000000000E+00 -0.35740347158E-01  0.35744000000E-01  0.51099999109E-03 0.  1.
       22    1    1    2    0    0 -0.12235677272E-01 -0.77924458687E-02 -0.22980599289E-01  0.27176128396E-01  0.00000000000E+00 0.  1.
  9000001    1    1    2    0    0  0.12235677272E-01  0.77924458687E-02  0.22980599289E-01  0.44311871604E-01  0.35000000149E-01 0. -1.
</event>
<event>
 4   0  0.4334200E-01  0.9118800E+02  0.7818609E-02  0.1379984E+01
      -11   -1    0    0    0    0  0.00000000000E+00  0.00000000000E+00  0.35740347158E-01  0.35744000000E-01  0.51099999109E-03 0.  1.
       11   -1    0    0    0    0 -0.00000000000E+00 -0.00000000000E+00 -0.35740347158E-01  0.35744000000E-01  0.51099999109E-03 0. -1.
       22    1    1    2    0    0 -0.23440645061E-01 -0.50614092010E-02 -0.12785157435E-01  0.27176128396E-01  0.00000000000E+00 0. -1.
  9000001    1    1    2    0    0  0.23440645061E-01  0.50614092010E-02  0.12785157435E-01  0.44311871604E-01  0.35000000149E-01 0.  1.
</event>
<event>
 4   0  0.4334200E-01  0.9118800E+02  0.7818609E-02  0.1379984E+01
      -11   -1    0    0    0    0  0.00000000000E+00  0.00000000000E+00  0.35740347158E-01  0.35744000000E-01  0.51099999109E-03 0. -1.
       11   -1    0    0    0    0 -0.00000000000E+00 -0.00000000000E+00 -0.35740347158E-01  0.35744000000E-01  0.51099999109E-03 0.  1.
       22    1    1    2    0    0 -0.61962262219E-02 -0.15165818758E-01 -0.21682865968E-01  0.27176128396E-01  0.00000000000E+00 0.  1.
  9000001    1    1    2    0    0  0.61962262219E-02  0.15165818758E-01  0.21682865968E-01  0.44311871604E-01  0.35000000149E-01 0. -1.
</event>
<event>
 4   0  0.4334200E-01  0.9118800E+02  0.7818609E-02  0.1379984E+01
      -11   -1    0    0    0    0  0.00000000000E+00  0.00000000000E+00  0.35740347158E-01  0.35744000000E-01  0.51099999109E-03 0.  1.
       11   -1    0    0    0    0 -0.00000000000E+00 -0.00000000000E+00 -0.35740347158E-01  0.35744000000E-01  0.51099999109E-03 0. -1.
       22    1    1    2    0    0  0.61600672657E-02  0.13024780648E-01 -0.23042365654E-01  0.27176128396E-01  0.00000000000E+00 0. -1.
  9000001    1    1    2    0    0 -0.61600672657E-02 -0.13024780648E-01  0.23042365654E-01  0.44311871604E-01  0.35000000149E-01 0.  1.
</event>
<event>
 4   0  0.4334200E-01  0.9118800E+02  0.7818609E-02  0.1379984E+01
      -11   -1    0    0    0    0  0.00000000000E+00  0.00000000000E+00  0.35740347158E-01  0.35744000000E-01  0.51099999109E-03 0. -1.
       11   -1    0    0    0    0 -0.00000000000E+00 -0.00000000000E+00 -0.35740347158E-01  0.35744000000E-01  0.51099999109E-03 0.  1.
       22    1    1    2    0    0 -0.26650812348E-01  0.15880353457E-02  0.50748694134E-02  0.27176128396E-01  0.00000000000E+00 0.  1.
  9000001    1    1    2    0    0  0.26650812348E-01 -0.15880353457E-02 -0.50748694134E-02  0.44311871604E-01  0.35000000149E-01 0. -1.
</event>
<event>
 4   0  0.4334200E-01  0.9118800E+02  0.7818609E-02  0.1379984E+01
      -11   -1    0    0    0    0  0.00000000000E+00  0.00000000000E+00  0.35740347158E-01  0.35744000000E-01  0.51099999109E-03 0. -1.
       11   -1    0    0    0    0 -0.00000000000E+00 -0.00000000000E+00 -0.35740347158E-01  0.35744000000E-01  0.51099999109E-03 0.  1.
       22    1    1    2    0    0 -0.96561336982E-03 -0.10742936947E-01  0.24943914111E-01  0.27176128396E-01  0.00000000000E+00 0. -1.
  9000001    1    1    2    0    0  0.96561336982E-03  0.10742936947E-01 -0.24943914111E-01  0.44311871604E-01  0.35000000149E-01 0.  1.
</event>
<event>
 4   0  0.4334200E-01  0.9118800E+02  0.7818609E-02  0.1379984E+01
      -11   -1    0    0    0    0  0.00000000000E+00  0.00000000000E+00  0.35740347158E-01  0.35744000000E-01  0.51099999109E-03 0.  1.
       11   -1    0    0    0    0 -0.00000000000E+00 -0.00000000000E+00 -0.35740347158E-01  0.35744000000E-01  0.51099999109E-03 0. -1.
       22    1    1    2    0    0 -0.13407225397E-01  0.20713073974E-01 -0.11391085475E-01  0.27176128396E-01  0.00000000000E+00 0. -1.
  9000001    1    1    2    0    0  0.13407225397E-01 -0.20713073974E-01  0.11391085475E-01  0.44311871604E-01  0.35000000149E-01 0.  1.
</event>
<event>
 4   0  0.4334200E-01  0.9118800E+02  0.7818609E-02  0.1379984E+01
      -11   -1    0    0    0    0  0.00000000000E+00  0.00000000000E+00  0.35740347158E-01  0.35744000000E-01  0.51099999109E-03 0.  1.
       11   -1    0    0    0    0 -0.00000000000E+00 -0.00000000000E+00 -0.35740347158E-01  0.35744000000E-01  0.51099999109E-03 0. -1.
       22    1    1    2    0    0  0.97267372931E-02  0.21468301202E-02  0.25284850339E-01  0.27176128396E-01  0.00000000000E+00 0.  1.
  9000001    1    1    2    0    0 -0.97267372931E-02 -0.21468301202E-02 -0.25284850339E-01  0.44311871604E-01  0.35000000149E-01 0. -1.
</event>
<event>
 4   0  0.4334200E-01  0.9118800E+02  0.7818609E-02  0.1379984E+01
      -11   -1    0    0    0    0  0.00000000000E+00  0.00000000000E+00  0.35740347158E-01  0.35744000000E-01  0.51099999109E-03 0. -1.
       11   -1    0    0    0    0 -0.00000000000E+00 -0.00000000000E+00 -0.35740347158E-01  0.35744000000E-01  0.51099999109E-03 0.  1.
       22    1    1    2    0    0 -0.21347299162E-02 -0.36336976763E-02  0.26847367170E-01  0.27176128396E-01  0.00000000000E+00 0. -1.
  9000001    1    1    2    0    0  0.21347299162E-02  0.36336976763E-02 -0.26847367170E-01  0.44311871604E-01  0.35000000149E-01 0.  1.
</event>
<event>
 4   0  0.4334200E-01  0.9118800E+02  0.7818609E-02  0.1379984E+01
      -11   -1    0    0    0    0  0.00000000000E+00  0.00000000000E+00  0.35740347158E-01  0.35744000000E-01  0.51099999109E-03 0. -1.
       11   -1    0    0    0    0 -0.00000000000E+00 -0.00000000000E+00 -0.35740347158E-01  0.35744000000E-01  0.51099999109E-03 0.  1.
       22    1    1    2    0    0 -0.10816726197E-01  0.16557911230E-01  0.18638024699E-01  0.27176128396E-01  0.00000000000E+00 0. -1.
  9000001    1    1    2    0    0  0.10816726197E-01 -0.16557911230E-01 -0.18638024699E-01  0.44311871604E-01  0.35000000149E-01 0.  1.
</event>
<event>
 4   0  0.4334200E-01  0.9118800E+02  0.7818609E-02  0.1379984E+01
      -11   -1    0    0    0    0  0.00000000000E+00  0.00000000000E+00  0.35740347158E-01  0.35744000000E-01  0.51099999109E-03 0.  1.
       11   -1    0    0    0    0 -0.00000000000E+00 -0.00000000000E+00 -0.35740347158E-01  0.35744000000E-01  0.51099999109E-03 0. -1.
       22    1    1    2    0    0  0.10652039764E-01 -0.21796049603E-01  0.12247784501E-01  0.27176128396E-01  0.00000000000E+00 0.  1.
  9000001    1    1    2    0    0 -0.10652039764E-01  0.21796049603E-01 -0.12247784501E-01  0.44311871604E-01  0.35000000149E-01 0. -1.
</event>
<event>
 4   0  0.4334200E-01  0.9118800E+02  0.7818609E-02  0.1379984E+01
      -11   -1    0    0    0    0  0.00000000000E+00  0.00000000000E+00  0.35740347158E-01  0.35744000000E-01  0.51099999109E-03 0.  1.
       11   -1    0    0    0    0 -0.00000000000E+00 -0.00000000000E+00 -0.35740347158E-01  0.35744000000E-01  0.51099999109E-03 0. -1.
       22    1    1    2    0    0 -0.20188026501E-01  0.79878176375E-02  0.16345651104E-01  0.27176128396E-01  0.00000000000E+00 0. -1.
  9000001    1    1    2    0    0  0.20188026501E-01 -0.79878176375E-02 -0.16345651104E-01  0.44311871604E-01  0.35000000149E-01 0.  1.
</event>
<event>
 4   0  0.4334200E-01  0.9118800E+02  0.7818609E-02  0.1379984E+01
      -11   -1    0    0    0    0  0.00000000000E+00  0.00000000000E+00  0.35740347158E-01  0.35744000000E-01  0.51099999109E-03 0. -1.
       11   -1    0    0    0    0 -0.00000000000E+00 -0.00000000000E+00 -0.35740347158E-01  0.35744000000E-01  0.51099999109E-03 0.  1.
       22    1    1    2    0    0  0.50423167350E-02 -0.85775204246E-02 -0.25289190179E-01  0.27176128396E-01  0.00000000000E+00 0.  1.
  9000001    1    1    2    0    0 -0.50423167350E-02  0.85775204246E-02  0.25289190179E-01  0.44311871604E-01  0.35000000149E-01 0. -1.
</event>
<event>
 4   0  0.4334200E-01  0.9118800E+02  0.7818609E-02  0.1379984E+01
      -11   -1    0    0    0    0  0.00000000000E+00  0.00000000000E+00  0.35740347158E-01  0.35744000000E-01  0.51099999109E-03 0. -1.
       11   -1    0    0    0    0 -0.00000000000E+00 -0.00000000000E+00 -0.35740347158E-01  0.35744000000E-01  0.51099999109E-03 0.  1.
       22    1    1    2    0    0 -0.55463896351E-02 -0.20134161653E-02 -0.26527828256E-01  0.27176128396E-01  0.00000000000E+00 0.  1.
  9000001    1    1    2    0    0  0.55463896351E-02  0.20134161653E-02  0.26527828256E-01  0.44311871604E-01  0.35000000149E-01 0. -1.
</event>
<event>
 4   0  0.4334200E-01  0.9118800E+02  0.7818609E-02  0.1379984E+01
      -11   -1    0    0    0    0  0.00000000000E+00  0.00000000000E+00  0.35740347158E-01  0.35744000000E-01  0.51099999109E-03 0. -1.
       11   -1    0    0    0    0 -0.00000000000E+00 -0.00000000000E+00 -0.35740347158E-01  0.35744000000E-01  0.51099999109E-03 0.  1.
       22    1    1    2    0    0  0.64265195585E-02 -0.22919626211E-02  0.26305678252E-01  0.27176128396E-01  0.00000000000E+00 0. -1.
  9000001    1    1    2    0    0 -0.64265195585E-02  0.22919626211E-02 -0.26305678252E-01  0.44311871604E-01  0.35000000149E-01 0.  1.
</event>
<event>
 4   0  0.4334200E-01  0.9118800E+02  0.7818609E-02  0.1379984E+01
      -11   -1    0    0    0    0  0.00000000000E+00  0.00000000000E+00  0.35740347158E-01  0.35744000000E-01  0.51099999109E-03 0. -1.
       11   -1    0    0    0    0 -0.00000000000E+00 -0.00000000000E+00 -0.35740347158E-01  0.35744000000E-01  0.51099999109E-03 0.  1.
       22    1    1    2    0    0 -0.12659807899E-01 -0.90188848328E-02  0.22291947760E-01  0.27176128396E-01  0.00000000000E+00 0. -1.
  9000001    1    1    2    0    0  0.12659807899E-01  0.90188848328E-02 -0.22291947760E-01  0.44311871604E-01  0.35000000149E-01 0.  1.
</event>
<event>
 4   0  0.4334200E-01  0.9118800E+02  0.7818609E-02  0.1379984E+01
      -11   -1    0    0    0    0  0.00000000000E+00  0.00000000000E+00  0.35740347158E-01  0.35744000000E-01  0.51099999109E-03 0. -1.
       11   -1    0    0    0    0 -0.00000000000E+00 -0.00000000000E+00 -0.35740347158E-01  0.35744000000E-01  0.51099999109E-03 0.  1.
       22    1    1    2    0    0  0.84759467748E-02  0.14422653405E-01  0.21416987408E-01  0.27176128396E-01  0.00000000000E+00 0. -1.
  9000001    1    1    2    0    0 -0.84759467748E-02 -0.14422653405E-01 -0.21416987408E-01  0.44311871604E-01  0.35000000149E-01 0.  1.
</event>
<event>
 4   0  0.4334200E-01  0.9118800E+02  0.7818609E-02  0.1379984E+01
      -11   -1    0    0    0    0  0.00000000000E+00  0.00000000000E+00  0.35740347158E-01  0.35744000000E-01  0.51099999109E-03 0.  1.
       11   -1    0    0    0    0 -0.00000000000E+00 -0.00000000000E+00 -0.35740347158E-01  0.35744000000E-01  0.51099999109E-03 0. -1.
       22    1    1    2    0    0  0.37932533525E-02 -0.15940287060E-01  0.21680877105E-01  0.27176128396E-01  0.00000000000E+00 0.  1.
  9000001    1    1    2    0    0 -0.37932533525E-02  0.15940287060E-01 -0.21680877105E-01  0.44311871604E-01  0.35000000149E-01 0. -1.
</event>
<event>
 4   0  0.4334200E-01  0.9118800E+02  0.7818609E-02  0.1379984E+01
      -11   -1    0    0    0    0  0.00000000000E+00  0.00000000000E+00  0.35740347158E-01  0.35744000000E-01  0.51099999109E-03 0. -1.
       11   -1    0    0    0    0 -0.00000000000E+00 -0.00000000000E+00 -0.35740347158E-01  0.35744000000E-01  0.51099999109E-03 0.  1.
       22    1    1    2    0    0  0.65844168527E-02 -0.23969150857E-01  0.10984863062E-01  0.27176128396E-01  0.00000000000E+00 0. -1.
  9000001    1    1    2    0    0 -0.65844168527E-02  0.23969150857E-01 -0.10984863062E-01  0.44311871604E-01  0.35000000149E-01 0.  1.
</event>
<event>
 4   0  0.4334200E-01  0.9118800E+02  0.7818609E-02  0.1379984E+01
      -11   -1    0    0    0    0  0.00000000000E+00  0.00000000000E+00  0.35740347158E-01  0.35744000000E-01  0.51099999109E-03 0. -1.
       11   -1    0    0    0    0 -0.00000000000E+00 -0.00000000000E+00 -0.35740347158E-01  0.35744000000E-01  0.51099999109E-03 0.  1.
       22    1    1    2    0    0  0.25344986141E-02  0.26494705643E-01  0.54907963254E-02  0.27176128396E-01  0.00000000000E+00 0. -1.
  9000001    1    1    2    0    0 -0.25344986141E-02 -0.26494705643E-01 -0.54907963254E-02  0.44311871604E-01  0.35000000149E-01 0.  1.
</event>
<event>
 4   0  0.4334200E-01  0.9118800E+02  0.7818609E-02  0.1379984E+01
      -11   -1    0    0    0    0  0.00000000000E+00  0.00000000000E+00  0.35740347158E-01  0.35744000000E-01  0.51099999109E-03 0. -1.
       11   -1    0    0    0    0 -0.00000000000E+00 -0.00000000000E+00 -0.35740347158E-01  0.35744000000E-01  0.51099999109E-03 0.  1.
       22    1    1    2    0    0 -0.18030702912E-02 -0.52612236763E-02  0.26600947682E-01  0.27176128396E-01  0.00000000000E+00 0. -1.
  9000001    1    1    2    0    0  0.18030702912E-02  0.52612236763E-02 -0.26600947682E-01  0.44311871604E-01  0.35000000149E-01 0.  1.
</event>
<event>
 4   0  0.4334200E-01  0.9118800E+02  0.7818609E-02  0.1379984E+01
      -11   -1    0    0    0    0  0.00000000000E+00  0.00000000000E+00  0.35740347158E-01  0.35744000000E-01  0.51099999109E-03 0.  1.
       11   -1    0    0    0    0 -0.00000000000E+00 -0.00000000000E+00 -0.35740347158E-01  0.35744000000E-01  0.51099999109E-03 0. -1.
       22    1    1    2    0    0  0.14503093902E-01  0.15436746521E-01 -0.17026716616E-01  0.27176128396E-01  0.00000000000E+00 0.  1.
  9000001    1    1    2    0    0 -0.14503093902E-01 -0.15436746521E-01  0.17026716616E-01  0.44311871604E-01  0.35000000149E-01 0.  1.
</event>
<event>
 4   0  0.4334200E-01  0.9118800E+02  0.7818609E-02  0.1379984E+01
      -11   -1    0    0    0    0  0.00000000000E+00  0.00000000000E+00  0.35740347158E-01  0.35744000000E-01  0.51099999109E-03 0. -1.
       11   -1    0    0    0    0 -0.00000000000E+00 -0.00000000000E+00 -0.35740347158E-01  0.35744000000E-01  0.51099999109E-03 0.  1.
       22    1    1    2    0    0 -0.75487896306E-02 -0.18409038739E-02  0.26041674344E-01  0.27176128396E-01  0.00000000000E+00 0. -1.
  9000001    1    1    2    0    0  0.75487896306E-02  0.18409038739E-02 -0.26041674344E-01  0.44311871604E-01  0.35000000149E-01 0.  1.
</event>
<event>
 4   0  0.4334200E-01  0.9118800E+02  0.7818609E-02  0.1379984E+01
      -11   -1    0    0    0    0  0.00000000000E+00  0.00000000000E+00  0.35740347158E-01  0.35744000000E-01  0.51099999109E-03 0. -1.
       11   -1    0    0    0    0 -0.00000000000E+00 -0.00000000000E+00 -0.35740347158E-01  0.35744000000E-01  0.51099999109E-03 0. -1.
       22    1    1    2    0    0  0.39610236959E-02  0.54291102647E-03 -0.26880429563E-01  0.27176128396E-01  0.00000000000E+00 0. -1.
  9000001    1    1    2    0    0 -0.39610236959E-02 -0.54291102647E-03  0.26880429563E-01  0.44311871604E-01  0.35000000149E-01 0. -1.
</event>
<event>
 4   0  0.4334200E-01  0.9118800E+02  0.7818609E-02  0.1379984E+01
      -11   -1    0    0    0    0  0.00000000000E+00  0.00000000000E+00  0.35740347158E-01  0.35744000000E-01  0.51099999109E-03 0. -1.
       11   -1    0    0    0    0 -0.00000000000E+00 -0.00000000000E+00 -0.35740347158E-01  0.35744000000E-01  0.51099999109E-03 0.  1.
       22    1    1    2    0    0  0.20267510252E-02  0.44930421472E-02  0.26725396295E-01  0.27176128396E-01  0.00000000000E+00 0. -1.
  9000001    1    1    2    0    0 -0.20267510252E-02 -0.44930421472E-02 -0.26725396295E-01  0.44311871604E-01  0.35000000149E-01 0.  1.
</event>
<event>
 4   0  0.4334200E-01  0.9118800E+02  0.7818609E-02  0.1379984E+01
      -11   -1    0    0    0    0  0.00000000000E+00  0.00000000000E+00  0.35740347158E-01  0.35744000000E-01  0.51099999109E-03 0. -1.
       11   -1    0    0    0    0 -0.00000000000E+00 -0.00000000000E+00 -0.35740347158E-01  0.35744000000E-01  0.51099999109E-03 0.  1.
       22    1    1    2    0    0 -0.12737900280E-01  0.11606512199E-01  0.21013727076E-01  0.27176128396E-01  0.00000000000E+00 0. -1.
  9000001    1    1    2    0    0  0.12737900280E-01 -0.11606512199E-01 -0.21013727076E-01  0.44311871604E-01  0.35000000149E-01 0.  1.
</event>
<event>
 4   0  0.4334200E-01  0.9118800E+02  0.7818609E-02  0.1379984E+01
      -11   -1    0    0    0    0  0.00000000000E+00  0.00000000000E+00  0.35740347158E-01  0.35744000000E-01  0.51099999109E-03 0. -1.
       11   -1    0    0    0    0 -0.00000000000E+00 -0.00000000000E+00 -0.35740347158E-01  0.35744000000E-01  0.51099999109E-03 0.  1.
       22    1    1    2    0    0 -0.72239042748E-02 -0.23964609218E-01  0.10585587686E-01  0.27176128396E-01  0.00000000000E+00 0. -1.
  9000001    1    1    2    0    0  0.72239042748E-02  0.23964609218E-01 -0.10585587686E-01  0.44311871604E-01  0.35000000149E-01 0.  1.
</event>
<event>
 4   0  0.4334200E-01  0.9118800E+02  0.7818609E-02  0.1379984E+01
      -11   -1    0    0    0    0  0.00000000000E+00  0.00000000000E+00  0.35740347158E-01  0.35744000000E-01  0.51099999109E-03 0. -1.
       11   -1    0    0    0    0 -0.00000000000E+00 -0.00000000000E+00 -0.35740347158E-01  0.35744000000E-01  0.51099999109E-03 0.  1.
       22    1    1    2    0    0 -0.10352108162E-02 -0.14671349983E-01 -0.22852172388E-01  0.27176128396E-01  0.00000000000E+00 0.  1.
  9000001    1    1    2    0    0  0.10352108162E-02  0.14671349983E-01  0.22852172388E-01  0.44311871604E-01  0.35000000149E-01 0. -1.
</event>
<event>
 4   0  0.4334200E-01  0.9118800E+02  0.7818609E-02  0.1379984E+01
      -11   -1    0    0    0    0  0.00000000000E+00  0.00000000000E+00  0.35740347158E-01  0.35744000000E-01  0.51099999109E-03 0. -1.
       11   -1    0    0    0    0 -0.00000000000E+00 -0.00000000000E+00 -0.35740347158E-01  0.35744000000E-01  0.51099999109E-03 0.  1.
       22    1    1    2    0    0  0.23536141473E-02 -0.49255103932E-02 -0.26622205063E-01  0.27176128396E-01  0.00000000000E+00 0.  1.
  9000001    1    1    2    0    0 -0.23536141473E-02  0.49255103932E-02  0.26622205063E-01  0.44311871604E-01  0.35000000149E-01 0. -1.
</event>
<event>
 4   0  0.4334200E-01  0.9118800E+02  0.7818609E-02  0.1379984E+01
      -11   -1    0    0    0    0  0.00000000000E+00  0.00000000000E+00  0.35740347158E-01  0.35744000000E-01  0.51099999109E-03 0. -1.
       11   -1    0    0    0    0 -0.00000000000E+00 -0.00000000000E+00 -0.35740347158E-01  0.35744000000E-01  0.51099999109E-03 0.  1.
       22    1    1    2    0    0  0.62378156912E-02 -0.16033908200E-01  0.21036763008E-01  0.27176128396E-01  0.00000000000E+00 0. -1.
  9000001    1    1    2    0    0 -0.62378156912E-02  0.16033908200E-01 -0.21036763008E-01  0.44311871604E-01  0.35000000149E-01 0.  1.
</event>
<event>
 4   0  0.4334200E-01  0.9118800E+02  0.7818609E-02  0.1379984E+01
      -11   -1    0    0    0    0  0.00000000000E+00  0.00000000000E+00  0.35740347158E-01  0.35744000000E-01  0.51099999109E-03 0. -1.
       11   -1    0    0    0    0 -0.00000000000E+00 -0.00000000000E+00 -0.35740347158E-01  0.35744000000E-01  0.51099999109E-03 0.  1.
       22    1    1    2    0    0 -0.21287084356E-01 -0.40587381460E-02  0.16399043841E-01  0.27176128396E-01  0.00000000000E+00 0. -1.
  9000001    1    1    2    0    0  0.21287084356E-01  0.40587381460E-02 -0.16399043841E-01  0.44311871604E-01  0.35000000149E-01 0.  1.
</event>
<event>
 4   0  0.4334200E-01  0.9118800E+02  0.7818609E-02  0.1379984E+01
      -11   -1    0    0    0    0  0.00000000000E+00  0.00000000000E+00  0.35740347158E-01  0.35744000000E-01  0.51099999109E-03 0. -1.
       11   -1    0    0    0    0 -0.00000000000E+00 -0.00000000000E+00 -0.35740347158E-01  0.35744000000E-01  0.51099999109E-03 0.  1.
       22    1    1    2    0    0 -0.10574600527E-02  0.44501951631E-02 -0.26788420929E-01  0.27176128396E-01  0.00000000000E+00 0.  1.
  9000001    1    1    2    0    0  0.10574600527E-02 -0.44501951631E-02  0.26788420929E-01  0.44311871604E-01  0.35000000149E-01 0. -1.
</event>
<event>
 4   0  0.4334200E-01  0.9118800E+02  0.7818609E-02  0.1379984E+01
      -11   -1    0    0    0    0  0.00000000000E+00  0.00000000000E+00  0.35740347158E-01  0.35744000000E-01  0.51099999109E-03 0. -1.
       11   -1    0    0    0    0 -0.00000000000E+00 -0.00000000000E+00 -0.35740347158E-01  0.35744000000E-01  0.51099999109E-03 0.  1.
       22    1    1    2    0    0 -0.14329711982E-01  0.16026176715E-01 -0.16624168220E-01  0.27176128396E-01  0.00000000000E+00 0.  1.
  9000001    1    1    2    0    0  0.14329711982E-01 -0.16026176715E-01  0.16624168220E-01  0.44311871604E-01  0.35000000149E-01 0. -1.
</event>
<event>
 4   0  0.4334200E-01  0.9118800E+02  0.7818609E-02  0.1379984E+01
      -11   -1    0    0    0    0  0.00000000000E+00  0.00000000000E+00  0.35740347158E-01  0.35744000000E-01  0.51099999109E-03 0.  1.
       11   -1    0    0    0    0 -0.00000000000E+00 -0.00000000000E+00 -0.35740347158E-01  0.35744000000E-01  0.51099999109E-03 0. -1.
       22    1    1    2    0    0  0.35336394692E-02  0.33485530264E-02 -0.26736539405E-01  0.27176128396E-01  0.00000000000E+00 0. -1.
  9000001    1    1    2    0    0 -0.35336394692E-02 -0.33485530264E-02  0.26736539405E-01  0.44311871604E-01  0.35000000149E-01 0.  1.
</event>
<event>
 4   0  0.4334200E-01  0.9118800E+02  0.7818609E-02  0.1379984E+01
      -11   -1    0    0    0    0  0.00000000000E+00  0.00000000000E+00  0.35740347158E-01  0.35744000000E-01  0.51099999109E-03 0. -1.
       11   -1    0    0    0    0 -0.00000000000E+00 -0.00000000000E+00 -0.35740347158E-01  0.35744000000E-01  0.51099999109E-03 0.  1.
       22    1    1    2    0    0  0.12666474410E-02  0.52895643427E-02 -0.26626266504E-01  0.27176128396E-01  0.00000000000E+00 0.  1.
  9000001    1    1    2    0    0 -0.12666474410E-02 -0.52895643427E-02  0.26626266504E-01  0.44311871604E-01  0.35000000149E-01 0. -1.
</event>
<event>
 4   0  0.4334200E-01  0.9118800E+02  0.7818609E-02  0.1379984E+01
      -11   -1    0    0    0    0  0.00000000000E+00  0.00000000000E+00  0.35740347158E-01  0.35744000000E-01  0.51099999109E-03 0.  1.
       11   -1    0    0    0    0 -0.00000000000E+00 -0.00000000000E+00 -0.35740347158E-01  0.35744000000E-01  0.51099999109E-03 0. -1.
       22    1    1    2    0    0  0.47462099251E-02  0.34578397950E-02  0.26534106164E-01  0.27176128396E-01  0.00000000000E+00 0.  1.
  9000001    1    1    2    0    0 -0.47462099251E-02 -0.34578397950E-02 -0.26534106164E-01  0.44311871604E-01  0.35000000149E-01 0. -1.
</event>
<event>
 4   0  0.4334200E-01  0.9118800E+02  0.7818609E-02  0.1379984E+01
      -11   -1    0    0    0    0  0.00000000000E+00  0.00000000000E+00  0.35740347158E-01  0.35744000000E-01  0.51099999109E-03 0. -1.
       11   -1    0    0    0    0 -0.00000000000E+00 -0.00000000000E+00 -0.35740347158E-01  0.35744000000E-01  0.51099999109E-03 0.  1.
       22    1    1    2    0    0 -0.22996862700E-02  0.32774072949E-02  0.26879583313E-01  0.27176128396E-01  0.00000000000E+00 0. -1.
  9000001    1    1    2    0    0  0.22996862700E-02 -0.32774072949E-02 -0.26879583313E-01  0.44311871604E-01  0.35000000149E-01 0.  1.
</event>
<event>
 4   0  0.4334200E-01  0.9118800E+02  0.7818609E-02  0.1379984E+01
      -11   -1    0    0    0    0  0.00000000000E+00  0.00000000000E+00  0.35740347158E-01  0.35744000000E-01  0.51099999109E-03 0. -1.
       11   -1    0    0    0    0 -0.00000000000E+00 -0.00000000000E+00 -0.35740347158E-01  0.35744000000E-01  0.51099999109E-03 0.  1.
       22    1    1    2    0    0 -0.58873279205E-02 -0.82181228572E-02 -0.25225855412E-01  0.27176128396E-01  0.00000000000E+00 0.  1.
  9000001    1    1    2    0    0  0.58873279205E-02  0.82181228572E-02  0.25225855412E-01  0.44311871604E-01  0.35000000149E-01 0. -1.
</event>
<event>
 4   0  0.4334200E-01  0.9118800E+02  0.7818609E-02  0.1379984E+01
      -11   -1    0    0    0    0  0.00000000000E+00  0.00000000000E+00  0.35740347158E-01  0.35744000000E-01  0.51099999109E-03 0.  1.
       11   -1    0    0    0    0 -0.00000000000E+00 -0.00000000000E+00 -0.35740347158E-01  0.35744000000E-01  0.51099999109E-03 0. -1.
       22    1    1    2    0    0  0.85712911938E-02  0.11600185030E-01  0.23032816353E-01  0.27176128396E-01  0.00000000000E+00 0.  1.
  9000001    1    1    2    0    0 -0.85712911938E-02 -0.11600185030E-01 -0.23032816353E-01  0.44311871604E-01  0.35000000149E-01 0. -1.
</event>
<event>
 4   0  0.4334200E-01  0.9118800E+02  0.7818609E-02  0.1379984E+01
      -11   -1    0    0    0    0  0.00000000000E+00  0.00000000000E+00  0.35740347158E-01  0.35744000000E-01  0.51099999109E-03 0. -1.
       11   -1    0    0    0    0 -0.00000000000E+00 -0.00000000000E+00 -0.35740347158E-01  0.35744000000E-01  0.51099999109E-03 0.  1.
       22    1    1    2    0    0  0.54843906277E-02  0.85692505543E-02  0.25199828551E-01  0.27176128396E-01  0.00000000000E+00 0. -1.
  9000001    1    1    2    0    0 -0.54843906277E-02 -0.85692505543E-02 -0.25199828551E-01  0.44311871604E-01  0.35000000149E-01 0.  1.
</event>
<event>
 4   0  0.4334200E-01  0.9118800E+02  0.7818609E-02  0.1379984E+01
      -11   -1    0    0    0    0  0.00000000000E+00  0.00000000000E+00  0.35740347158E-01  0.35744000000E-01  0.51099999109E-03 0. -1.
       11   -1    0    0    0    0 -0.00000000000E+00 -0.00000000000E+00 -0.35740347158E-01  0.35744000000E-01  0.51099999109E-03 0.  1.
       22    1    1    2    0    0 -0.13542450720E-02 -0.28053728097E-02  0.26996997209E-01  0.27176128396E-01  0.00000000000E+00 0. -1.
  9000001    1    1    2    0    0  0.13542450720E-02  0.28053728097E-02 -0.26996997209E-01  0.44311871604E-01  0.35000000149E-01 0.  1.
</event>
<event>
 4   0  0.4334200E-01  0.9118800E+02  0.7818609E-02  0.1379984E+01
      -11   -1    0    0    0    0  0.00000000000E+00  0.00000000000E+00  0.35740347158E-01  0.35744000000E-01  0.51099999109E-03 0.  1.
       11   -1    0    0    0    0 -0.00000000000E+00 -0.00000000000E+00 -0.35740347158E-01  0.35744000000E-01  0.51099999109E-03 0. -1.
       22    1    1    2    0    0  0.34911496708E-02  0.23582518763E-01  0.13046786476E-01  0.27176128396E-01  0.00000000000E+00 0.  1.
  9000001    1    1    2    0    0 -0.34911496708E-02 -0.23582518763E-01 -0.13046786476E-01  0.44311871604E-01  0.35000000149E-01 0. -1.
</event>
<event>
 4   0  0.4334200E-01  0.9118800E+02  0.7818609E-02  0.1379984E+01
      -11   -1    0    0    0    0  0.00000000000E+00  0.00000000000E+00  0.35740347158E-01  0.35744000000E-01  0.51099999109E-03 0.  1.
       11   -1    0    0    0    0 -0.00000000000E+00 -0.00000000000E+00 -0.35740347158E-01  0.35744000000E-01  0.51099999109E-03 0. -1.
       22    1    1    2    0    0 -0.16557172743E-01  0.21342315974E-02 -0.21444044414E-01  0.27176128396E-01  0.00000000000E+00 0. -1.
  9000001    1    1    2    0    0  0.16557172743E-01 -0.21342315974E-02  0.21444044414E-01  0.44311871604E-01  0.35000000149E-01 0.  1.
</event>
<event>
 4   0  0.4334200E-01  0.9118800E+02  0.7818609E-02  0.1379984E+01
      -11   -1    0    0    0    0  0.00000000000E+00  0.00000000000E+00  0.35740347158E-01  0.35744000000E-01  0.51099999109E-03 0. -1.
       11   -1    0    0    0    0 -0.00000000000E+00 -0.00000000000E+00 -0.35740347158E-01  0.35744000000E-01  0.51099999109E-03 0.  1.
       22    1    1    2    0    0  0.29463050471E-02  0.16230947140E-02  0.26967143058E-01  0.27176128396E-01  0.00000000000E+00 0. -1.
  9000001    1    1    2    0    0 -0.29463050471E-02 -0.16230947140E-02 -0.26967143058E-01  0.44311871604E-01  0.35000000149E-01 0.  1.
</event>
<event>
 4   0  0.4334200E-01  0.9118800E+02  0.7818609E-02  0.1379984E+01
      -11   -1    0    0    0    0  0.00000000000E+00  0.00000000000E+00  0.35740347158E-01  0.35744000000E-01  0.51099999109E-03 0. -1.
       11   -1    0    0    0    0 -0.00000000000E+00 -0.00000000000E+00 -0.35740347158E-01  0.35744000000E-01  0.51099999109E-03 0.  1.
       22    1    1    2    0    0 -0.45815758008E-02 -0.21760638292E-02 -0.26698611649E-01  0.27176128396E-01  0.00000000000E+00 0.  1.
  9000001    1    1    2    0    0  0.45815758008E-02  0.21760638292E-02  0.26698611649E-01  0.44311871604E-01  0.35000000149E-01 0. -1.
</event>
<event>
 4   0  0.4334200E-01  0.9118800E+02  0.7818609E-02  0.1379984E+01
      -11   -1    0    0    0    0  0.00000000000E+00  0.00000000000E+00  0.35740347158E-01  0.35744000000E-01  0.51099999109E-03 0. -1.
       11   -1    0    0    0    0 -0.00000000000E+00 -0.00000000000E+00 -0.35740347158E-01  0.35744000000E-01  0.51099999109E-03 0.  1.
       22    1    1    2    0    0  0.67599268997E-02  0.21503310389E-02  0.26233974524E-01  0.27176128396E-01  0.00000000000E+00 0. -1.
  9000001    1    1    2    0    0 -0.67599268997E-02 -0.21503310389E-02 -0.26233974524E-01  0.44311871604E-01  0.35000000149E-01 0.  1.
</event>
<event>
 4   0  0.4334200E-01  0.9118800E+02  0.7818609E-02  0.1379984E+01
      -11   -1    0    0    0    0  0.00000000000E+00  0.00000000000E+00  0.35740347158E-01  0.35744000000E-01  0.51099999109E-03 0. -1.
       11   -1    0    0    0    0 -0.00000000000E+00 -0.00000000000E+00 -0.35740347158E-01  0.35744000000E-01  0.51099999109E-03 0.  1.
       22    1    1    2    0    0  0.25918538277E-01  0.74012623910E-02  0.34630395877E-02  0.27176128396E-01  0.00000000000E+00 0. -1.
  9000001    1    1    2    0    0 -0.25918538277E-01 -0.74012623910E-02 -0.34630395877E-02  0.44311871604E-01  0.35000000149E-01 0.  0.
</event>
<event>
 4   0  0.4334200E-01  0.9118800E+02  0.7818609E-02  0.1379984E+01
      -11   -1    0    0    0    0  0.00000000000E+00  0.00000000000E+00  0.35740347158E-01  0.35744000000E-01  0.51099999109E-03 0.  1.
       11   -1    0    0    0    0 -0.00000000000E+00 -0.00000000000E+00 -0.35740347158E-01  0.35744000000E-01  0.51099999109E-03 0. -1.
       22    1    1    2    0    0  0.25333017591E-02 -0.23027927759E-02  0.26959626893E-01  0.27176128396E-01  0.00000000000E+00 0.  1.
  9000001    1    1    2    0    0 -0.25333017591E-02  0.23027927759E-02 -0.26959626893E-01  0.44311871604E-01  0.35000000149E-01 0. -1.
</event>
<event>
 4   0  0.4334200E-01  0.9118800E+02  0.7818609E-02  0.1379984E+01
      -11   -1    0    0    0    0  0.00000000000E+00  0.00000000000E+00  0.35740347158E-01  0.35744000000E-01  0.51099999109E-03 0. -1.
       11   -1    0    0    0    0 -0.00000000000E+00 -0.00000000000E+00 -0.35740347158E-01  0.35744000000E-01  0.51099999109E-03 0.  1.
       22    1    1    2    0    0 -0.69651323512E-02 -0.16731488475E-01 -0.20250584667E-01  0.27176128396E-01  0.00000000000E+00 0.  1.
  9000001    1    1    2    0    0  0.69651323512E-02  0.16731488475E-01  0.20250584667E-01  0.44311871604E-01  0.35000000149E-01 0. -1.
</event>
<event>
 4   0  0.4334200E-01  0.9118800E+02  0.7818609E-02  0.1379984E+01
      -11   -1    0    0    0    0  0.00000000000E+00  0.00000000000E+00  0.35740347158E-01  0.35744000000E-01  0.51099999109E-03 0. -1.
       11   -1    0    0    0    0 -0.00000000000E+00 -0.00000000000E+00 -0.35740347158E-01  0.35744000000E-01  0.51099999109E-03 0.  1.
       22    1    1    2    0    0  0.20499354068E-01  0.33356164618E-02 -0.17526896480E-01  0.27176128396E-01  0.00000000000E+00 0. -1.
  9000001    1    1    2    0    0 -0.20499354068E-01 -0.33356164618E-02  0.17526896480E-01  0.44311871604E-01  0.35000000149E-01 0.  1.
</event>
<event>
 4   0  0.4334200E-01  0.9118800E+02  0.7818609E-02  0.1379984E+01
      -11   -1    0    0    0    0  0.00000000000E+00  0.00000000000E+00  0.35740347158E-01  0.35744000000E-01  0.51099999109E-03 0. -1.
       11   -1    0    0    0    0 -0.00000000000E+00 -0.00000000000E+00 -0.35740347158E-01  0.35744000000E-01  0.51099999109E-03 0.  1.
       22    1    1    2    0    0  0.33438311689E-02  0.17663922679E-02  0.26911718750E-01  0.27176128396E-01  0.00000000000E+00 0. -1.
  9000001    1    1    2    0    0 -0.33438311689E-02 -0.17663922679E-02 -0.26911718750E-01  0.44311871604E-01  0.35000000149E-01 0.  1.
</event>
<event>
 4   0  0.4334200E-01  0.9118800E+02  0.7818609E-02  0.1379984E+01
      -11   -1    0    0    0    0  0.00000000000E+00  0.00000000000E+00  0.35740347158E-01  0.35744000000E-01  0.51099999109E-03 0.  1.
       11   -1    0    0    0    0 -0.00000000000E+00 -0.00000000000E+00 -0.35740347158E-01  0.35744000000E-01  0.51099999109E-03 0. -1.
       22    1    1    2    0    0  0.55340780653E-02 -0.14796407301E-03  0.26606278229E-01  0.27176128396E-01  0.00000000000E+00 0.  1.
  9000001    1    1    2    0    0 -0.55340780653E-02  0.14796407301E-03 -0.26606278229E-01  0.44311871604E-01  0.35000000149E-01 0. -1.
</event>
<event>
 4   0  0.4334200E-01  0.9118800E+02  0.7818609E-02  0.1379984E+01
      -11   -1    0    0    0    0  0.00000000000E+00  0.00000000000E+00  0.35740347158E-01  0.35744000000E-01  0.51099999109E-03 0.  1.
       11   -1    0    0    0    0 -0.00000000000E+00 -0.00000000000E+00 -0.35740347158E-01  0.35744000000E-01  0.51099999109E-03 0. -1.
       22    1    1    2    0    0  0.99812759100E-02 -0.19378696229E-01  0.16229054756E-01  0.27176128396E-01  0.00000000000E+00 0.  1.
  9000001    1    1    2    0    0 -0.99812759100E-02  0.19378696229E-01 -0.16229054756E-01  0.44311871604E-01  0.35000000149E-01 0. -1.
</event>
<event>
 4   0  0.4334200E-01  0.9118800E+02  0.7818609E-02  0.1379984E+01
      -11   -1    0    0    0    0  0.00000000000E+00  0.00000000000E+00  0.35740347158E-01  0.35744000000E-01  0.51099999109E-03 0. -1.
       11   -1    0    0    0    0 -0.00000000000E+00 -0.00000000000E+00 -0.35740347158E-01  0.35744000000E-01  0.51099999109E-03 0.  1.
       22    1    1    2    0    0 -0.32409088629E-02  0.39162287313E-02  0.26696471993E-01  0.27176128396E-01  0.00000000000E+00 0. -1.
  9000001    1    1    2    0    0  0.32409088629E-02 -0.39162287313E-02 -0.26696471993E-01  0.44311871604E-01  0.35000000149E-01 0.  1.
</event>
<event>
 4   0  0.4334200E-01  0.9118800E+02  0.7818609E-02  0.1379984E+01
      -11   -1    0    0    0    0  0.00000000000E+00  0.00000000000E+00  0.35740347158E-01  0.35744000000E-01  0.51099999109E-03 0. -1.
       11   -1    0    0    0    0 -0.00000000000E+00 -0.00000000000E+00 -0.35740347158E-01  0.35744000000E-01  0.51099999109E-03 0.  1.
       22    1    1    2    0    0 -0.19251067908E-02 -0.26357480209E-01 -0.63339683813E-02  0.27176128396E-01  0.00000000000E+00 0.  1.
  9000001    1    1    2    0    0  0.19251067908E-02  0.26357480209E-01  0.63339683813E-02  0.44311871604E-01  0.35000000149E-01 0. -1.
</event>
<event>
 4   0  0.4334200E-01  0.9118800E+02  0.7818609E-02  0.1379984E+01
      -11   -1    0    0    0    0  0.00000000000E+00  0.00000000000E+00  0.35740347158E-01  0.35744000000E-01  0.51099999109E-03 0. -1.
       11   -1    0    0    0    0 -0.00000000000E+00 -0.00000000000E+00 -0.35740347158E-01  0.35744000000E-01  0.51099999109E-03 0.  1.
       22    1    1    2    0    0 -0.35521807363E-02  0.11799686634E-02  0.26917125414E-01  0.27176128396E-01  0.00000000000E+00 0. -1.
  9000001    1    1    2    0    0  0.35521807363E-02 -0.11799686634E-02 -0.26917125414E-01  0.44311871604E-01  0.35000000149E-01 0.  1.
</event>
<event>
 4   0  0.4334200E-01  0.9118800E+02  0.7818609E-02  0.1379984E+01
      -11   -1    0    0    0    0  0.00000000000E+00  0.00000000000E+00  0.35740347158E-01  0.35744000000E-01  0.51099999109E-03 0.  1.
       11   -1    0    0    0    0 -0.00000000000E+00 -0.00000000000E+00 -0.35740347158E-01  0.35744000000E-01  0.51099999109E-03 0. -1.
       22    1    1    2    0    0 -0.15211157547E-02  0.29599192476E-02  0.26971596903E-01  0.27176128396E-01  0.00000000000E+00 0.  1.
  9000001    1    1    2    0    0  0.15211157547E-02 -0.29599192476E-02 -0.26971596903E-01  0.44311871604E-01  0.35000000149E-01 0. -1.
</event>
<event>
 4   0  0.4334200E-01  0.9118800E+02  0.7818609E-02  0.1379984E+01
      -11   -1    0    0    0    0  0.00000000000E+00  0.00000000000E+00  0.35740347158E-01  0.35744000000E-01  0.51099999109E-03 0. -1.
       11   -1    0    0    0    0 -0.00000000000E+00 -0.00000000000E+00 -0.35740347158E-01  0.35744000000E-01  0.51099999109E-03 0.  1.
       22    1    1    2    0    0 -0.13081138506E-01  0.12663538894E-02 -0.23787015740E-01  0.27176128396E-01  0.00000000000E+00 0.  1.
  9000001    1    1    2    0    0  0.13081138506E-01 -0.12663538894E-02  0.23787015740E-01  0.44311871604E-01  0.35000000149E-01 0. -1.
</event>
<event>
 4   0  0.4334200E-01  0.9118800E+02  0.7818609E-02  0.1379984E+01
      -11   -1    0    0    0    0  0.00000000000E+00  0.00000000000E+00  0.35740347158E-01  0.35744000000E-01  0.51099999109E-03 0. -1.
       11   -1    0    0    0    0 -0.00000000000E+00 -0.00000000000E+00 -0.35740347158E-01  0.35744000000E-01  0.51099999109E-03 0.  1.
       22    1    1    2    0    0  0.53422870489E-02 -0.61959187410E-03 -0.26638656678E-01  0.27176128396E-01  0.00000000000E+00 0.  1.
  9000001    1    1    2    0    0 -0.53422870489E-02  0.61959187410E-03  0.26638656678E-01  0.44311871604E-01  0.35000000149E-01 0. -1.
</event>
<event>
 4   0  0.4334200E-01  0.9118800E+02  0.7818609E-02  0.1379984E+01
      -11   -1    0    0    0    0  0.00000000000E+00  0.00000000000E+00  0.35740347158E-01  0.35744000000E-01  0.51099999109E-03 0. -1.
       11   -1    0    0    0    0 -0.00000000000E+00 -0.00000000000E+00 -0.35740347158E-01  0.35744000000E-01  0.51099999109E-03 0.  1.
       22    1    1    2    0    0  0.67142216260E-02 -0.59413336300E-03  0.26326947945E-01  0.27176128396E-01  0.00000000000E+00 0. -1.
  9000001    1    1    2    0    0 -0.67142216260E-02  0.59413336300E-03 -0.26326947945E-01  0.44311871604E-01  0.35000000149E-01 0.  1.
</event>
<event>
 4   0  0.4334200E-01  0.9118800E+02  0.7818609E-02  0.1379984E+01
      -11   -1    0    0    0    0  0.00000000000E+00  0.00000000000E+00  0.35740347158E-01  0.35744000000E-01  0.51099999109E-03 0.  1.
       11   -1    0    0    0    0 -0.00000000000E+00 -0.00000000000E+00 -0.35740347158E-01  0.35744000000E-01  0.51099999109E-03 0. -1.
       22    1    1    2    0    0 -0.19849847588E-01 -0.64405729371E-02  0.17408174103E-01  0.27176128396E-01  0.00000000000E+00 0.  1.
  9000001    1    1    2    0    0  0.19849847588E-01  0.64405729371E-02 -0.17408174103E-01  0.44311871604E-01  0.35000000149E-01 0. -1.
</event>
<event>
 4   0  0.4334200E-01  0.9118800E+02  0.7818609E-02  0.1379984E+01
      -11   -1    0    0    0    0  0.00000000000E+00  0.00000000000E+00  0.35740347158E-01  0.35744000000E-01  0.51099999109E-03 0.  1.
       11   -1    0    0    0    0 -0.00000000000E+00 -0.00000000000E+00 -0.35740347158E-01  0.35744000000E-01  0.51099999109E-03 0. -1.
       22    1    1    2    0    0  0.14467733243E-01 -0.45505808794E-02  0.22550362814E-01  0.27176128396E-01  0.00000000000E+00 0.  1.
  9000001    1    1    2    0    0 -0.14467733243E-01  0.45505808794E-02 -0.22550362814E-01  0.44311871604E-01  0.35000000149E-01 0. -1.
</event>
<event>
 4   0  0.4334200E-01  0.9118800E+02  0.7818609E-02  0.1379984E+01
      -11   -1    0    0    0    0  0.00000000000E+00  0.00000000000E+00  0.35740347158E-01  0.35744000000E-01  0.51099999109E-03 0. -1.
       11   -1    0    0    0    0 -0.00000000000E+00 -0.00000000000E+00 -0.35740347158E-01  0.35744000000E-01  0.51099999109E-03 0. -1.
       22    1    1    2    0    0  0.90766824354E-02 -0.24286824872E-01 -0.81428452171E-02  0.27176128396E-01  0.00000000000E+00 0. -1.
  9000001    1    1    2    0    0 -0.90766824354E-02  0.24286824872E-01  0.81428452171E-02  0.44311871604E-01  0.35000000149E-01 0. -1.
</event>
<event>
 4   0  0.4334200E-01  0.9118800E+02  0.7818609E-02  0.1379984E+01
      -11   -1    0    0    0    0  0.00000000000E+00  0.00000000000E+00  0.35740347158E-01  0.35744000000E-01  0.51099999109E-03 0. -1.
       11   -1    0    0    0    0 -0.00000000000E+00 -0.00000000000E+00 -0.35740347158E-01  0.35744000000E-01  0.51099999109E-03 0.  1.
       22    1    1    2    0    0  0.96129673514E-02 -0.23287579372E-01  0.10189281638E-01  0.27176128396E-01  0.00000000000E+00 0. -1.
  9000001    1    1    2    0    0 -0.96129673514E-02  0.23287579372E-01 -0.10189281638E-01  0.44311871604E-01  0.35000000149E-01 0.  1.
</event>
<event>
 4   0  0.4334200E-01  0.9118800E+02  0.7818609E-02  0.1379984E+01
      -11   -1    0    0    0    0  0.00000000000E+00  0.00000000000E+00  0.35740347158E-01  0.35744000000E-01  0.51099999109E-03 0.  1.
       11   -1    0    0    0    0 -0.00000000000E+00 -0.00000000000E+00 -0.35740347158E-01  0.35744000000E-01  0.51099999109E-03 0. -1.
       22    1    1    2    0    0 -0.42422619593E-02 -0.19927935614E-02 -0.26768898780E-01  0.27176128396E-01  0.00000000000E+00 0. -1.
  9000001    1    1    2    0    0  0.42422619593E-02  0.19927935614E-02  0.26768898780E-01  0.44311871604E-01  0.35000000149E-01 0.  1.
</event>
<event>
 4   0  0.4334200E-01  0.9118800E+02  0.7818609E-02  0.1379984E+01
      -11   -1    0    0    0    0  0.00000000000E+00  0.00000000000E+00  0.35740347158E-01  0.35744000000E-01  0.51099999109E-03 0. -1.
       11   -1    0    0    0    0 -0.00000000000E+00 -0.00000000000E+00 -0.35740347158E-01  0.35744000000E-01  0.51099999109E-03 0.  1.
       22    1    1    2    0    0 -0.14449690607E-01  0.11319952914E-02 -0.22988409746E-01  0.27176128396E-01  0.00000000000E+00 0.  1.
  9000001    1    1    2    0    0  0.14449690607E-01 -0.11319952914E-02  0.22988409746E-01  0.44311871604E-01  0.35000000149E-01 0. -1.
</event>
<event>
 4   0  0.4334200E-01  0.9118800E+02  0.7818609E-02  0.1379984E+01
      -11   -1    0    0    0    0  0.00000000000E+00  0.00000000000E+00  0.35740347158E-01  0.35744000000E-01  0.51099999109E-03 0. -1.
       11   -1    0    0    0    0 -0.00000000000E+00 -0.00000000000E+00 -0.35740347158E-01  0.35744000000E-01  0.51099999109E-03 0.  1.
       22    1    1    2    0    0  0.15077070384E-01 -0.15759023932E-01  0.16213484139E-01  0.27176128396E-01  0.00000000000E+00 0.  1.
  9000001    1    1    2    0    0 -0.15077070384E-01  0.15759023932E-01 -0.16213484139E-01  0.44311871604E-01  0.35000000149E-01 0.  0.
</event>
<event>
 4   0  0.4334200E-01  0.9118800E+02  0.7818609E-02  0.1379984E+01
      -11   -1    0    0    0    0  0.00000000000E+00  0.00000000000E+00  0.35740347158E-01  0.35744000000E-01  0.51099999109E-03 0.  1.
       11   -1    0    0    0    0 -0.00000000000E+00 -0.00000000000E+00 -0.35740347158E-01  0.35744000000E-01  0.51099999109E-03 0. -1.
       22    1    1    2    0    0 -0.23773176398E-02  0.35239933723E-02 -0.26841605506E-01  0.27176128396E-01  0.00000000000E+00 0. -1.
  9000001    1    1    2    0    0  0.23773176398E-02 -0.35239933723E-02  0.26841605506E-01  0.44311871604E-01  0.35000000149E-01 0.  1.
</event>
<event>
 4   0  0.4334200E-01  0.9118800E+02  0.7818609E-02  0.1379984E+01
      -11   -1    0    0    0    0  0.00000000000E+00  0.00000000000E+00  0.35740347158E-01  0.35744000000E-01  0.51099999109E-03 0.  1.
       11   -1    0    0    0    0 -0.00000000000E+00 -0.00000000000E+00 -0.35740347158E-01  0.35744000000E-01  0.51099999109E-03 0. -1.
       22    1    1    2    0    0 -0.10893310817E-01  0.21083496094E-01  0.13242504541E-01  0.27176128396E-01  0.00000000000E+00 0.  1.
  9000001    1    1    2    0    0  0.10893310817E-01 -0.21083496094E-01 -0.13242504541E-01  0.44311871604E-01  0.35000000149E-01 0. -1.
</event>
<event>
 4   0  0.4334200E-01  0.9118800E+02  0.7818609E-02  0.1379984E+01
      -11   -1    0    0    0    0  0.00000000000E+00  0.00000000000E+00  0.35740347158E-01  0.35744000000E-01  0.51099999109E-03 0.  1.
       11   -1    0    0    0    0 -0.00000000000E+00 -0.00000000000E+00 -0.35740347158E-01  0.35744000000E-01  0.51099999109E-03 0. -1.
       22    1    1    2    0    0 -0.19594050803E-03  0.33456329257E-02 -0.26968691148E-01  0.27176128396E-01  0.00000000000E+00 0. -1.
  9000001    1    1    2    0    0  0.19594050803E-03 -0.33456329257E-02  0.26968691148E-01  0.44311871604E-01  0.35000000149E-01 0.  1.
</event>
<event>
 4   0  0.4334200E-01  0.9118800E+02  0.7818609E-02  0.1379984E+01
      -11   -1    0    0    0    0  0.00000000000E+00  0.00000000000E+00  0.35740347158E-01  0.35744000000E-01  0.51099999109E-03 0. -1.
       11   -1    0    0    0    0 -0.00000000000E+00 -0.00000000000E+00 -0.35740347158E-01  0.35744000000E-01  0.51099999109E-03 0.  1.
       22    1    1    2    0    0  0.74430183097E-02  0.28604673207E-02 -0.25980014622E-01  0.27176128396E-01  0.00000000000E+00 0.  1.
  9000001    1    1    2    0    0 -0.74430183097E-02 -0.28604673207E-02  0.25980014622E-01  0.44311871604E-01  0.35000000149E-01 0. -1.
</event>
<event>
 4   0  0.4334200E-01  0.9118800E+02  0.7818609E-02  0.1379984E+01
      -11   -1    0    0    0    0  0.00000000000E+00  0.00000000000E+00  0.35740347158E-01  0.35744000000E-01  0.51099999109E-03 0.  1.
       11   -1    0    0    0    0 -0.00000000000E+00 -0.00000000000E+00 -0.35740347158E-01  0.35744000000E-01  0.51099999109E-03 0. -1.
       22    1    1    2    0    0 -0.78121866194E-03  0.57460047978E-02 -0.26550236927E-01  0.27176128396E-01  0.00000000000E+00 0. -1.
  9000001    1    1    2    0    0  0.78121866194E-03 -0.57460047978E-02  0.26550236927E-01  0.44311871604E-01  0.35000000149E-01 0.  1.
</event>
<event>
 4   0  0.4334200E-01  0.9118800E+02  0.7818609E-02  0.1379984E+01
      -11   -1    0    0    0    0  0.00000000000E+00  0.00000000000E+00  0.35740347158E-01  0.35744000000E-01  0.51099999109E-03 0.  1.
       11   -1    0    0    0    0 -0.00000000000E+00 -0.00000000000E+00 -0.35740347158E-01  0.35744000000E-01  0.51099999109E-03 0. -1.
       22    1    1    2    0    0  0.26998612404E-01  0.29872034244E-02  0.83276561580E-03  0.27176128396E-01  0.00000000000E+00 0.  1.
  9000001    1    1    2    0    0 -0.26998612404E-01 -0.29872034244E-02 -0.83276561580E-03  0.44311871604E-01  0.35000000149E-01 0. -1.
</event>
<event>
 4   0  0.4334200E-01  0.9118800E+02  0.7818609E-02  0.1379984E+01
      -11   -1    0    0    0    0  0.00000000000E+00  0.00000000000E+00  0.35740347158E-01  0.35744000000E-01  0.51099999109E-03 0.  1.
       11   -1    0    0    0    0 -0.00000000000E+00 -0.00000000000E+00 -0.35740347158E-01  0.35744000000E-01  0.51099999109E-03 0. -1.
       22    1    1    2    0    0  0.59603279204E-02 -0.24343232241E-02  0.26402471781E-01  0.27176128396E-01  0.00000000000E+00 0.  1.
  9000001    1    1    2    0    0 -0.59603279204E-02  0.24343232241E-02 -0.26402471781E-01  0.44311871604E-01  0.35000000149E-01 0. -1.
</event>
<event>
 4   0  0.4334200E-01  0.9118800E+02  0.7818609E-02  0.1379984E+01
      -11   -1    0    0    0    0  0.00000000000E+00  0.00000000000E+00  0.35740347158E-01  0.35744000000E-01  0.51099999109E-03 0. -1.
       11   -1    0    0    0    0 -0.00000000000E+00 -0.00000000000E+00 -0.35740347158E-01  0.35744000000E-01  0.51099999109E-03 0.  1.
       22    1    1    2    0    0  0.69320554691E-02 -0.55603255797E-02  0.25682121038E-01  0.27176128396E-01  0.00000000000E+00 0. -1.
  9000001    1    1    2    0    0 -0.69320554691E-02  0.55603255797E-02 -0.25682121038E-01  0.44311871604E-01  0.35000000149E-01 0.  1.
</event>
<event>
 4   0  0.4334200E-01  0.9118800E+02  0.7818609E-02  0.1379984E+01
      -11   -1    0    0    0    0  0.00000000000E+00  0.00000000000E+00  0.35740347158E-01  0.35744000000E-01  0.51099999109E-03 0.  1.
       11   -1    0    0    0    0 -0.00000000000E+00 -0.00000000000E+00 -0.35740347158E-01  0.35744000000E-01  0.51099999109E-03 0. -1.
       22    1    1    2    0    0 -0.25606909701E-01  0.19224256173E-02  0.88956399373E-02  0.27176128396E-01  0.00000000000E+00 0. -1.
  9000001    1    1    2    0    0  0.25606909701E-01 -0.19224256173E-02 -0.88956399373E-02  0.44311871604E-01  0.35000000149E-01 0.  0.
</event>
<event>
 4   0  0.4334200E-01  0.9118800E+02  0.7818609E-02  0.1379984E+01
      -11   -1    0    0    0    0  0.00000000000E+00  0.00000000000E+00  0.35740347158E-01  0.35744000000E-01  0.51099999109E-03 0.  1.
       11   -1    0    0    0    0 -0.00000000000E+00 -0.00000000000E+00 -0.35740347158E-01  0.35744000000E-01  0.51099999109E-03 0. -1.
       22    1    1    2    0    0  0.33049791018E-02  0.22122671110E-03  0.26973507864E-01  0.27176128396E-01  0.00000000000E+00 0.  1.
  9000001    1    1    2    0    0 -0.33049791018E-02 -0.22122671110E-03 -0.26973507864E-01  0.44311871604E-01  0.35000000149E-01 0. -1.
</event>
<event>
 4   0  0.4334200E-01  0.9118800E+02  0.7818609E-02  0.1379984E+01
      -11   -1    0    0    0    0  0.00000000000E+00  0.00000000000E+00  0.35740347158E-01  0.35744000000E-01  0.51099999109E-03 0.  1.
       11   -1    0    0    0    0 -0.00000000000E+00 -0.00000000000E+00 -0.35740347158E-01  0.35744000000E-01  0.51099999109E-03 0. -1.
       22    1    1    2    0    0 -0.61777871934E-02  0.43994867195E-02 -0.26096387041E-01  0.27176128396E-01  0.00000000000E+00 0. -1.
  9000001    1    1    2    0    0  0.61777871934E-02 -0.43994867195E-02  0.26096387041E-01  0.44311871604E-01  0.35000000149E-01 0.  1.
</event>
<event>
 4   0  0.4334200E-01  0.9118800E+02  0.7818609E-02  0.1379984E+01
      -11   -1    0    0    0    0  0.00000000000E+00  0.00000000000E+00  0.35740347158E-01  0.35744000000E-01  0.51099999109E-03 0. -1.
       11   -1    0    0    0    0 -0.00000000000E+00 -0.00000000000E+00 -0.35740347158E-01  0.35744000000E-01  0.51099999109E-03 0.  1.
       22    1    1    2    0    0  0.69759387077E-02  0.20371320786E-02 -0.26186414925E-01  0.27176128396E-01  0.00000000000E+00 0.  1.
  9000001    1    1    2    0    0 -0.69759387077E-02 -0.20371320786E-02  0.26186414925E-01  0.44311871604E-01  0.35000000149E-01 0. -1.
</event>
<event>
 4   0  0.4334200E-01  0.9118800E+02  0.7818609E-02  0.1379984E+01
      -11   -1    0    0    0    0  0.00000000000E+00  0.00000000000E+00  0.35740347158E-01  0.35744000000E-01  0.51099999109E-03 0. -1.
       11   -1    0    0    0    0 -0.00000000000E+00 -0.00000000000E+00 -0.35740347158E-01  0.35744000000E-01  0.51099999109E-03 0.  1.
       22    1    1    2    0    0  0.21885313779E-01  0.10865329148E-01 -0.11896201827E-01  0.27176128396E-01  0.00000000000E+00 0.  1.
  9000001    1    1    2    0    0 -0.21885313779E-01 -0.10865329148E-01  0.11896201827E-01  0.44311871604E-01  0.35000000149E-01 0. -1.
</event>
<event>
 4   0  0.4334200E-01  0.9118800E+02  0.7818609E-02  0.1379984E+01
      -11   -1    0    0    0    0  0.00000000000E+00  0.00000000000E+00  0.35740347158E-01  0.35744000000E-01  0.51099999109E-03 0.  1.
       11   -1    0    0    0    0 -0.00000000000E+00 -0.00000000000E+00 -0.35740347158E-01  0.35744000000E-01  0.51099999109E-03 0. -1.
       22    1    1    2    0    0 -0.22655700445E-02 -0.45794366210E-02  0.26691532500E-01  0.27176128396E-01  0.00000000000E+00 0.  1.
  9000001    1    1    2    0    0  0.22655700445E-02  0.45794366210E-02 -0.26691532500E-01  0.44311871604E-01  0.35000000149E-01 0. -1.
</event>
<event>
 4   0  0.4334200E-01  0.9118800E+02  0.7818609E-02  0.1379984E+01
      -11   -1    0    0    0    0  0.00000000000E+00  0.00000000000E+00  0.35740347158E-01  0.35744000000E-01  0.51099999109E-03 0.  1.
       11   -1    0    0    0    0 -0.00000000000E+00 -0.00000000000E+00 -0.35740347158E-01  0.35744000000E-01  0.51099999109E-03 0. -1.
       22    1    1    2    0    0  0.43536463937E-02  0.44223561001E-02  0.26458089202E-01  0.27176128396E-01  0.00000000000E+00 0.  1.
  9000001    1    1    2    0    0 -0.43536463937E-02 -0.44223561001E-02 -0.26458089202E-01  0.44311871604E-01  0.35000000149E-01 0. -1.
</event>
<event>
 4   0  0.4334200E-01  0.9118800E+02  0.7818609E-02  0.1379984E+01
      -11   -1    0    0    0    0  0.00000000000E+00  0.00000000000E+00  0.35740347158E-01  0.35744000000E-01  0.51099999109E-03 0. -1.
       11   -1    0    0    0    0 -0.00000000000E+00 -0.00000000000E+00 -0.35740347158E-01  0.35744000000E-01  0.51099999109E-03 0.  1.
       22    1    1    2    0    0  0.86115583098E-02  0.11935263440E-02  0.25747980755E-01  0.27176128396E-01  0.00000000000E+00 0. -1.
  9000001    1    1    2    0    0 -0.86115583098E-02 -0.11935263440E-02 -0.25747980755E-01  0.44311871604E-01  0.35000000149E-01 0.  1.
</event>
<event>
 4   0  0.4334200E-01  0.9118800E+02  0.7818609E-02  0.1379984E+01
      -11   -1    0    0    0    0  0.00000000000E+00  0.00000000000E+00  0.35740347158E-01  0.35744000000E-01  0.51099999109E-03 0. -1.
       11   -1    0    0    0    0 -0.00000000000E+00 -0.00000000000E+00 -0.35740347158E-01  0.35744000000E-01  0.51099999109E-03 0.  1.
       22    1    1    2    0    0  0.12632239991E-02 -0.85912772272E-02 -0.25751430549E-01  0.27176128396E-01  0.00000000000E+00 0.  1.
  9000001    1    1    2    0    0 -0.12632239991E-02  0.85912772272E-02  0.25751430549E-01  0.44311871604E-01  0.35000000149E-01 0. -1.
</event>
<event>
 4   0  0.4334200E-01  0.9118800E+02  0.7818609E-02  0.1379984E+01
      -11   -1    0    0    0    0  0.00000000000E+00  0.00000000000E+00  0.35740347158E-01  0.35744000000E-01  0.51099999109E-03 0. -1.
       11   -1    0    0    0    0 -0.00000000000E+00 -0.00000000000E+00 -0.35740347158E-01  0.35744000000E-01  0.51099999109E-03 0.  1.
       22    1    1    2    0    0  0.20255920188E-01 -0.17439943463E-01 -0.49079551714E-02  0.27176128396E-01  0.00000000000E+00 0.  1.
  9000001    1    1    2    0    0 -0.20255920188E-01  0.17439943463E-01  0.49079551714E-02  0.44311871604E-01  0.35000000149E-01 0. -1.
</event>
<event>
 4   0  0.4334200E-01  0.9118800E+02  0.7818609E-02  0.1379984E+01
      -11   -1    0    0    0    0  0.00000000000E+00  0.00000000000E+00  0.35740347158E-01  0.35744000000E-01  0.51099999109E-03 0.  1.
       11   -1    0    0    0    0 -0.00000000000E+00 -0.00000000000E+00 -0.35740347158E-01  0.35744000000E-01  0.51099999109E-03 0. -1.
       22    1    1    2    0    0  0.15922999681E-02 -0.50234463152E-02 -0.26660298621E-01  0.27176128396E-01  0.00000000000E+00 0. -1.
  9000001    1    1    2    0    0 -0.15922999681E-02  0.50234463152E-02  0.26660298621E-01  0.44311871604E-01  0.35000000149E-01 0.  1.
</event>
<event>
 4   0  0.4334200E-01  0.9118800E+02  0.7818609E-02  0.1379984E+01
      -11   -1    0    0    0    0  0.00000000000E+00  0.00000000000E+00  0.35740347158E-01  0.35744000000E-01  0.51099999109E-03 0.  1.
       11   -1    0    0    0    0 -0.00000000000E+00 -0.00000000000E+00 -0.35740347158E-01  0.35744000000E-01  0.51099999109E-03 0. -1.
       22    1    1    2    0    0 -0.41256007689E-02 -0.43402707939E-02 -0.26508176518E-01  0.27176128396E-01  0.00000000000E+00 0. -1.
  9000001    1    1    2    0    0  0.41256007689E-02  0.43402707939E-02  0.26508176518E-01  0.44311871604E-01  0.35000000149E-01 0.  1.
</event>
<event>
 4   0  0.4334200E-01  0.9118800E+02  0.7818609E-02  0.1379984E+01
      -11   -1    0    0    0    0  0.00000000000E+00  0.00000000000E+00  0.35740347158E-01  0.35744000000E-01  0.51099999109E-03 0.  1.
       11   -1    0    0    0    0 -0.00000000000E+00 -0.00000000000E+00 -0.35740347158E-01  0.35744000000E-01  0.51099999109E-03 0. -1.
       22    1    1    2    0    0  0.30293969793E-02  0.12307838326E-01 -0.24039172704E-01  0.27176128396E-01  0.00000000000E+00 0. -1.
  9000001    1    1    2    0    0 -0.30293969793E-02 -0.12307838326E-01  0.24039172704E-01  0.44311871604E-01  0.35000000149E-01 0.  1.
</event>
<event>
 4   0  0.4334200E-01  0.9118800E+02  0.7818609E-02  0.1379984E+01
      -11   -1    0    0    0    0  0.00000000000E+00  0.00000000000E+00  0.35740347158E-01  0.35744000000E-01  0.51099999109E-03 0. -1.
       11   -1    0    0    0    0 -0.00000000000E+00 -0.00000000000E+00 -0.35740347158E-01  0.35744000000E-01  0.51099999109E-03 0.  1.
       22    1    1    2    0    0 -0.35430929118E-02  0.41191288921E-02  0.26627452458E-01  0.27176128396E-01  0.00000000000E+00 0.  1.
  9000001    1    1    2    0    0  0.35430929118E-02 -0.41191288921E-02 -0.26627452458E-01  0.44311871604E-01  0.35000000149E-01 0.  1.
</event>
<event>
 4   0  0.4334200E-01  0.9118800E+02  0.7818609E-02  0.1379984E+01
      -11   -1    0    0    0    0  0.00000000000E+00  0.00000000000E+00  0.35740347158E-01  0.35744000000E-01  0.51099999109E-03 0. -1.
       11   -1    0    0    0    0 -0.00000000000E+00 -0.00000000000E+00 -0.35740347158E-01  0.35744000000E-01  0.51099999109E-03 0.  1.
       22    1    1    2    0    0  0.10980320712E-02 -0.38881001484E-02 -0.26874131752E-01  0.27176128396E-01  0.00000000000E+00 0.  1.
  9000001    1    1    2    0    0 -0.10980320712E-02  0.38881001484E-02  0.26874131752E-01  0.44311871604E-01  0.35000000149E-01 0. -1.
</event>
<event>
 4   0  0.4334200E-01  0.9118800E+02  0.7818609E-02  0.1379984E+01
      -11   -1    0    0    0    0  0.00000000000E+00  0.00000000000E+00  0.35740347158E-01  0.35744000000E-01  0.51099999109E-03 0. -1.
       11   -1    0    0    0    0 -0.00000000000E+00 -0.00000000000E+00 -0.35740347158E-01  0.35744000000E-01  0.51099999109E-03 0.  1.
       22    1    1    2    0    0 -0.21773505781E-01 -0.63702052004E-02 -0.14962516043E-01  0.27176128396E-01  0.00000000000E+00 0.  1.
  9000001    1    1    2    0    0  0.21773505781E-01  0.63702052004E-02  0.14962516043E-01  0.44311871604E-01  0.35000000149E-01 0. -1.
</event>
<event>
 4   0  0.4334200E-01  0.9118800E+02  0.7818609E-02  0.1379984E+01
      -11   -1    0    0    0    0  0.00000000000E+00  0.00000000000E+00  0.35740347158E-01  0.35744000000E-01  0.51099999109E-03 0. -1.
       11   -1    0    0    0    0 -0.00000000000E+00 -0.00000000000E+00 -0.35740347158E-01  0.35744000000E-01  0.51099999109E-03 0.  1.
       22    1    1    2    0    0  0.10014038566E-02 -0.57846844811E-02 -0.26534441211E-01  0.27176128396E-01  0.00000000000E+00 0.  1.
  9000001    1    1    2    0    0 -0.10014038566E-02  0.57846844811E-02  0.26534441211E-01  0.44311871604E-01  0.35000000149E-01 0. -1.
</event>
<event>
 4   0  0.4334200E-01  0.9118800E+02  0.7818609E-02  0.1379984E+01
      -11   -1    0    0    0    0  0.00000000000E+00  0.00000000000E+00  0.35740347158E-01  0.35744000000E-01  0.51099999109E-03 0. -1.
       11   -1    0    0    0    0 -0.00000000000E+00 -0.00000000000E+00 -0.35740347158E-01  0.35744000000E-01  0.51099999109E-03 0.  1.
       22    1    1    2    0    0  0.86557937412E-02  0.59839265144E-02  0.25056173147E-01  0.27176128396E-01  0.00000000000E+00 0. -1.
  9000001    1    1    2    0    0 -0.86557937412E-02 -0.59839265144E-02 -0.25056173147E-01  0.44311871604E-01  0.35000000149E-01 0.  1.
</event>
<event>
 4   0  0.4334200E-01  0.9118800E+02  0.7818609E-02  0.1379984E+01
      -11   -1    0    0    0    0  0.00000000000E+00  0.00000000000E+00  0.35740347158E-01  0.35744000000E-01  0.51099999109E-03 0.  1.
       11   -1    0    0    0    0 -0.00000000000E+00 -0.00000000000E+00 -0.35740347158E-01  0.35744000000E-01  0.51099999109E-03 0. -1.
       22    1    1    2    0    0  0.62283364697E-02  0.15812559818E-01  0.21206431370E-01  0.27176128396E-01  0.00000000000E+00 0.  1.
  9000001    1    1    2    0    0 -0.62283364697E-02 -0.15812559818E-01 -0.21206431370E-01  0.44311871604E-01  0.35000000149E-01 0. -1.
</event>
<event>
 4   0  0.4334200E-01  0.9118800E+02  0.7818609E-02  0.1379984E+01
      -11   -1    0    0    0    0  0.00000000000E+00  0.00000000000E+00  0.35740347158E-01  0.35744000000E-01  0.51099999109E-03 0. -1.
       11   -1    0    0    0    0 -0.00000000000E+00 -0.00000000000E+00 -0.35740347158E-01  0.35744000000E-01  0.51099999109E-03 0.  1.
       22    1    1    2    0    0  0.16828314425E-01  0.62335879444E-02 -0.20408139787E-01  0.27176128396E-01  0.00000000000E+00 0. -1.
  9000001    1    1    2    0    0 -0.16828314425E-01 -0.62335879444E-02  0.20408139787E-01  0.44311871604E-01  0.35000000149E-01 0. -1.
</event>
<event>
 4   0  0.4334200E-01  0.9118800E+02  0.7818609E-02  0.1379984E+01
      -11   -1    0    0    0    0  0.00000000000E+00  0.00000000000E+00  0.35740347158E-01  0.35744000000E-01  0.51099999109E-03 0. -1.
       11   -1    0    0    0    0 -0.00000000000E+00 -0.00000000000E+00 -0.35740347158E-01  0.35744000000E-01  0.51099999109E-03 0.  1.
       22    1    1    2    0    0  0.24198806700E-01  0.40656787049E-02  0.11680323864E-01  0.27176128396E-01  0.00000000000E+00 0. -1.
  9000001    1    1    2    0    0 -0.24198806700E-01 -0.40656787049E-02 -0.11680323864E-01  0.44311871604E-01  0.35000000149E-01 0.  1.
</event>
<event>
 4   0  0.4334200E-01  0.9118800E+02  0.7818609E-02  0.1379984E+01
      -11   -1    0    0    0    0  0.00000000000E+00  0.00000000000E+00  0.35740347158E-01  0.35744000000E-01  0.51099999109E-03 0.  1.
       11   -1    0    0    0    0 -0.00000000000E+00 -0.00000000000E+00 -0.35740347158E-01  0.35744000000E-01  0.51099999109E-03 0. -1.
       22    1    1    2    0    0  0.60444083351E-02  0.11855887453E-01  0.23694830980E-01  0.27176128396E-01  0.00000000000E+00 0.  1.
  9000001    1    1    2    0    0 -0.60444083351E-02 -0.11855887453E-01 -0.23694830980E-01  0.44311871604E-01  0.35000000149E-01 0. -1.
</event>
<event>
 4   0  0.4334200E-01  0.9118800E+02  0.7818609E-02  0.1379984E+01
      -11   -1    0    0    0    0  0.00000000000E+00  0.00000000000E+00  0.35740347158E-01  0.35744000000E-01  0.51099999109E-03 0.  1.
       11   -1    0    0    0    0 -0.00000000000E+00 -0.00000000000E+00 -0.35740347158E-01  0.35744000000E-01  0.51099999109E-03 0. -1.
       22    1    1    2    0    0  0.50798260548E-02  0.34099931613E-02  0.26478468016E-01  0.27176128396E-01  0.00000000000E+00 0.  1.
  9000001    1    1    2    0    0 -0.50798260548E-02 -0.34099931613E-02 -0.26478468016E-01  0.44311871604E-01  0.35000000149E-01 0. -1.
</event>
<event>
 4   0  0.4334200E-01  0.9118800E+02  0.7818609E-02  0.1379984E+01
      -11   -1    0    0    0    0  0.00000000000E+00  0.00000000000E+00  0.35740347158E-01  0.35744000000E-01  0.51099999109E-03 0. -1.
       11   -1    0    0    0    0 -0.00000000000E+00 -0.00000000000E+00 -0.35740347158E-01  0.35744000000E-01  0.51099999109E-03 0.  1.
       22    1    1    2    0    0 -0.31293685376E-02  0.26173453473E-02 -0.26868169095E-01  0.27176128396E-01  0.00000000000E+00 0.  1.
  9000001    1    1    2    0    0  0.31293685376E-02 -0.26173453473E-02  0.26868169095E-01  0.44311871604E-01  0.35000000149E-01 0. -1.
</event>
<event>
 4   0  0.4334200E-01  0.9118800E+02  0.7818609E-02  0.1379984E+01
      -11   -1    0    0    0    0  0.00000000000E+00  0.00000000000E+00  0.35740347158E-01  0.35744000000E-01  0.51099999109E-03 0. -1.
       11   -1    0    0    0    0 -0.00000000000E+00 -0.00000000000E+00 -0.35740347158E-01  0.35744000000E-01  0.51099999109E-03 0.  1.
       22    1    1    2    0    0  0.77742693728E-02  0.20362099645E-02 -0.25960672936E-01  0.27176128396E-01  0.00000000000E+00 0.  1.
  9000001    1    1    2    0    0 -0.77742693728E-02 -0.20362099645E-02  0.25960672936E-01  0.44311871604E-01  0.35000000149E-01 0. -1.
</event>
<event>
 4   0  0.4334200E-01  0.9118800E+02  0.7818609E-02  0.1379984E+01
      -11   -1    0    0    0    0  0.00000000000E+00  0.00000000000E+00  0.35740347158E-01  0.35744000000E-01  0.51099999109E-03 0.  1.
       11   -1    0    0    0    0 -0.00000000000E+00 -0.00000000000E+00 -0.35740347158E-01  0.35744000000E-01  0.51099999109E-03 0. -1.
       22    1    1    2    0    0 -0.84862294071E-02  0.46562257573E-02 -0.25393806858E-01  0.27176128396E-01  0.00000000000E+00 0. -1.
  9000001    1    1    2    0    0  0.84862294071E-02 -0.46562257573E-02  0.25393806858E-01  0.44311871604E-01  0.35000000149E-01 0.  1.
</event>
<event>
 4   0  0.4334200E-01  0.9118800E+02  0.7818609E-02  0.1379984E+01
      -11   -1    0    0    0    0  0.00000000000E+00  0.00000000000E+00  0.35740347158E-01  0.35744000000E-01  0.51099999109E-03 0.  1.
       11   -1    0    0    0    0 -0.00000000000E+00 -0.00000000000E+00 -0.35740347158E-01  0.35744000000E-01  0.51099999109E-03 0. -1.
       22    1    1    2    0    0 -0.36792182286E-02 -0.72402999003E-03 -0.26916186364E-01  0.27176128396E-01  0.00000000000E+00 0. -1.
  9000001    1    1    2    0    0  0.36792182286E-02  0.72402999003E-03  0.26916186364E-01  0.44311871604E-01  0.35000000149E-01 0.  1.
</event>
<event>
 4   0  0.4334200E-01  0.9118800E+02  0.7818609E-02  0.1379984E+01
      -11   -1    0    0    0    0  0.00000000000E+00  0.00000000000E+00  0.35740347158E-01  0.35744000000E-01  0.51099999109E-03 0. -1.
       11   -1    0    0    0    0 -0.00000000000E+00 -0.00000000000E+00 -0.35740347158E-01  0.35744000000E-01  0.51099999109E-03 0.  1.
       22    1    1    2    0    0 -0.14379426605E-01  0.51521609357E-02 -0.22477305951E-01  0.27176128396E-01  0.00000000000E+00 0.  1.
  9000001    1    1    2    0    0  0.14379426605E-01 -0.51521609357E-02  0.22477305951E-01  0.44311871604E-01  0.35000000149E-01 0. -1.
</event>
<event>
 4   0  0.4334200E-01  0.9118800E+02  0.7818609E-02  0.1379984E+01
      -11   -1    0    0    0    0  0.00000000000E+00  0.00000000000E+00  0.35740347158E-01  0.35744000000E-01  0.51099999109E-03 0. -1.
       11   -1    0    0    0    0 -0.00000000000E+00 -0.00000000000E+00 -0.35740347158E-01  0.35744000000E-01  0.51099999109E-03 0.  1.
       22    1    1    2    0    0  0.18740106171E-02  0.97671328802E-02 -0.25290969814E-01  0.27176128396E-01  0.00000000000E+00 0.  1.
  9000001    1    1    2    0    0 -0.18740106171E-02 -0.97671328802E-02  0.25290969814E-01  0.44311871604E-01  0.35000000149E-01 0. -1.
</event>
<event>
 4   0  0.4334200E-01  0.9118800E+02  0.7818609E-02  0.1379984E+01
      -11   -1    0    0    0    0  0.00000000000E+00  0.00000000000E+00  0.35740347158E-01  0.35744000000E-01  0.51099999109E-03 0. -1.
       11   -1    0    0    0    0 -0.00000000000E+00 -0.00000000000E+00 -0.35740347158E-01  0.35744000000E-01  0.51099999109E-03 0.  1.
       22    1    1    2    0    0 -0.51999521473E-02  0.25945894304E-02 -0.26547515100E-01  0.27176128396E-01  0.00000000000E+00 0.  1.
  9000001    1    1    2    0    0  0.51999521473E-02 -0.25945894304E-02  0.26547515100E-01  0.44311871604E-01  0.35000000149E-01 0. -1.
</event>
<event>
 4   0  0.4334200E-01  0.9118800E+02  0.7818609E-02  0.1379984E+01
      -11   -1    0    0    0    0  0.00000000000E+00  0.00000000000E+00  0.35740347158E-01  0.35744000000E-01  0.51099999109E-03 0.  1.
       11   -1    0    0    0    0 -0.00000000000E+00 -0.00000000000E+00 -0.35740347158E-01  0.35744000000E-01  0.51099999109E-03 0. -1.
       22    1    1    2    0    0  0.32622555993E-02 -0.56663334376E-02  0.26377875358E-01  0.27176128396E-01  0.00000000000E+00 0.  1.
  9000001    1    1    2    0    0 -0.32622555993E-02  0.56663334376E-02 -0.26377875358E-01  0.44311871604E-01  0.35000000149E-01 0. -1.
</event>
<event>
 4   0  0.4334200E-01  0.9118800E+02  0.7818609E-02  0.1379984E+01
      -11   -1    0    0    0    0  0.00000000000E+00  0.00000000000E+00  0.35740347158E-01  0.35744000000E-01  0.51099999109E-03 0.  1.
       11   -1    0    0    0    0 -0.00000000000E+00 -0.00000000000E+00 -0.35740347158E-01  0.35744000000E-01  0.51099999109E-03 0. -1.
       22    1    1    2    0    0 -0.26507330205E-02  0.90895846180E-02 -0.25473417920E-01  0.27176128396E-01  0.00000000000E+00 0. -1.
  9000001    1    1    2    0    0  0.26507330205E-02 -0.90895846180E-02  0.25473417920E-01  0.44311871604E-01  0.35000000149E-01 0.  1.
</event>
<event>
 4   0  0.4334200E-01  0.9118800E+02  0.7818609E-02  0.1379984E+01
      -11   -1    0    0    0    0  0.00000000000E+00  0.00000000000E+00  0.35740347158E-01  0.35744000000E-01  0.51099999109E-03 0. -1.
       11   -1    0    0    0    0 -0.00000000000E+00 -0.00000000000E+00 -0.35740347158E-01  0.35744000000E-01  0.51099999109E-03 0.  1.
       22    1    1    2    0    0 -0.35981390958E-02  0.22987760293E-02 -0.26838609845E-01  0.27176128396E-01  0.00000000000E+00 0.  1.
  9000001    1    1    2    0    0  0.35981390958E-02 -0.22987760293E-02  0.26838609845E-01  0.44311871604E-01  0.35000000149E-01 0. -1.
</event>
<event>
 4   0  0.4334200E-01  0.9118800E+02  0.7818609E-02  0.1379984E+01
      -11   -1    0    0    0    0  0.00000000000E+00  0.00000000000E+00  0.35740347158E-01  0.35744000000E-01  0.51099999109E-03 0.  1.
       11   -1    0    0    0    0 -0.00000000000E+00 -0.00000000000E+00 -0.35740347158E-01  0.35744000000E-01  0.51099999109E-03 0. -1.
       22    1    1    2    0    0 -0.89551842899E-02 -0.11385927568E-01 -0.22993635692E-01  0.27176128396E-01  0.00000000000E+00 0. -1.
  9000001    1    1    2    0    0  0.89551842899E-02  0.11385927568E-01  0.22993635692E-01  0.44311871604E-01  0.35000000149E-01 0.  1.
</event>
<event>
 4   0  0.4334200E-01  0.9118800E+02  0.7818609E-02  0.1379984E+01
      -11   -1    0    0    0    0  0.00000000000E+00  0.00000000000E+00  0.35740347158E-01  0.35744000000E-01  0.51099999109E-03 0. -1.
       11   -1    0    0    0    0 -0.00000000000E+00 -0.00000000000E+00 -0.35740347158E-01  0.35744000000E-01  0.51099999109E-03 0.  1.
       22    1    1    2    0    0  0.42939046080E-02  0.73197399616E-02  0.25817159889E-01  0.27176128396E-01  0.00000000000E+00 0. -1.
  9000001    1    1    2    0    0 -0.42939046080E-02 -0.73197399616E-02 -0.25817159889E-01  0.44311871604E-01  0.35000000149E-01 0.  1.
</event>
<event>
 4   0  0.4334200E-01  0.9118800E+02  0.7818609E-02  0.1379984E+01
      -11   -1    0    0    0    0  0.00000000000E+00  0.00000000000E+00  0.35740347158E-01  0.35744000000E-01  0.51099999109E-03 0.  1.
       11   -1    0    0    0    0 -0.00000000000E+00 -0.00000000000E+00 -0.35740347158E-01  0.35744000000E-01  0.51099999109E-03 0. -1.
       22    1    1    2    0    0 -0.10036553821E-01 -0.30439400803E-02 -0.25070779222E-01  0.27176128396E-01  0.00000000000E+00 0. -1.
  9000001    1    1    2    0    0  0.10036553821E-01  0.30439400803E-02  0.25070779222E-01  0.44311871604E-01  0.35000000149E-01 0.  1.
</event>
<event>
 4   0  0.4334200E-01  0.9118800E+02  0.7818609E-02  0.1379984E+01
      -11   -1    0    0    0    0  0.00000000000E+00  0.00000000000E+00  0.35740347158E-01  0.35744000000E-01  0.51099999109E-03 0.  1.
       11   -1    0    0    0    0 -0.00000000000E+00 -0.00000000000E+00 -0.35740347158E-01  0.35744000000E-01  0.51099999109E-03 0. -1.
       22    1    1    2    0    0  0.53371145489E-02 -0.38754058048E-02 -0.26363580803E-01  0.27176128396E-01  0.00000000000E+00 0. -1.
  9000001    1    1    2    0    0 -0.53371145489E-02  0.38754058048E-02  0.26363580803E-01  0.44311871604E-01  0.35000000149E-01 0.  1.
</event>
<event>
 4   0  0.4334200E-01  0.9118800E+02  0.7818609E-02  0.1379984E+01
      -11   -1    0    0    0    0  0.00000000000E+00  0.00000000000E+00  0.35740347158E-01  0.35744000000E-01  0.51099999109E-03 0. -1.
       11   -1    0    0    0    0 -0.00000000000E+00 -0.00000000000E+00 -0.35740347158E-01  0.35744000000E-01  0.51099999109E-03 0.  1.
       22    1    1    2    0    0 -0.18059959884E-02  0.22378922450E-01  0.15312222669E-01  0.27176128396E-01  0.00000000000E+00 0. -1.
  9000001    1    1    2    0    0  0.18059959884E-02 -0.22378922450E-01 -0.15312222669E-01  0.44311871604E-01  0.35000000149E-01 0.  0.
</event>
<event>
 4   0  0.4334200E-01  0.9118800E+02  0.7818609E-02  0.1379984E+01
      -11   -1    0    0    0    0  0.00000000000E+00  0.00000000000E+00  0.35740347158E-01  0.35744000000E-01  0.51099999109E-03 0. -1.
       11   -1    0    0    0    0 -0.00000000000E+00 -0.00000000000E+00 -0.35740347158E-01  0.35744000000E-01  0.51099999109E-03 0.  1.
       22    1    1    2    0    0  0.11010111251E-01  0.13847345880E-01  0.20629358132E-01  0.27176128396E-01  0.00000000000E+00 0. -1.
  9000001    1    1    2    0    0 -0.11010111251E-01 -0.13847345880E-01 -0.20629358132E-01  0.44311871604E-01  0.35000000149E-01 0.  1.
</event>
<event>
 4   0  0.4334200E-01  0.9118800E+02  0.7818609E-02  0.1379984E+01
      -11   -1    0    0    0    0  0.00000000000E+00  0.00000000000E+00  0.35740347158E-01  0.35744000000E-01  0.51099999109E-03 0.  1.
       11   -1    0    0    0    0 -0.00000000000E+00 -0.00000000000E+00 -0.35740347158E-01  0.35744000000E-01  0.51099999109E-03 0. -1.
       22    1    1    2    0    0  0.21824026731E-01  0.12420968294E-01  0.10391022976E-01  0.27176128396E-01  0.00000000000E+00 0.  1.
  9000001    1    1    2    0    0 -0.21824026731E-01 -0.12420968294E-01 -0.10391022976E-01  0.44311871604E-01  0.35000000149E-01 0. -1.
</event>
<event>
 4   0  0.4334200E-01  0.9118800E+02  0.7818609E-02  0.1379984E+01
      -11   -1    0    0    0    0  0.00000000000E+00  0.00000000000E+00  0.35740347158E-01  0.35744000000E-01  0.51099999109E-03 0.  1.
       11   -1    0    0    0    0 -0.00000000000E+00 -0.00000000000E+00 -0.35740347158E-01  0.35744000000E-01  0.51099999109E-03 0. -1.
       22    1    1    2    0    0  0.21180029720E-02 -0.28423819439E-02  0.26943958189E-01  0.27176128396E-01  0.00000000000E+00 0.  1.
  9000001    1    1    2    0    0 -0.21180029720E-02  0.28423819439E-02 -0.26943958189E-01  0.44311871604E-01  0.35000000149E-01 0. -1.
</event>
<event>
 4   0  0.4334200E-01  0.9118800E+02  0.7818609E-02  0.1379984E+01
      -11   -1    0    0    0    0  0.00000000000E+00  0.00000000000E+00  0.35740347158E-01  0.35744000000E-01  0.51099999109E-03 0. -1.
       11   -1    0    0    0    0 -0.00000000000E+00 -0.00000000000E+00 -0.35740347158E-01  0.35744000000E-01  0.51099999109E-03 0.  1.
       22    1    1    2    0    0  0.72386075171E-02 -0.18280567695E-01  0.18760739873E-01  0.27176128396E-01  0.00000000000E+00 0. -1.
  9000001    1    1    2    0    0 -0.72386075171E-02  0.18280567695E-01 -0.18760739873E-01  0.44311871604E-01  0.35000000149E-01 0.  1.
</event>
<event>
 4   0  0.4334200E-01  0.9118800E+02  0.7818609E-02  0.1379984E+01
      -11   -1    0    0    0    0  0.00000000000E+00  0.00000000000E+00  0.35740347158E-01  0.35744000000E-01  0.51099999109E-03 0. -1.
       11   -1    0    0    0    0 -0.00000000000E+00 -0.00000000000E+00 -0.35740347158E-01  0.35744000000E-01  0.51099999109E-03 0.  1.
       22    1    1    2    0    0 -0.17720204151E-02  0.24938718856E-01  0.10651863690E-01  0.27176128396E-01  0.00000000000E+00 0. -1.
  9000001    1    1    2    0    0  0.17720204151E-02 -0.24938718856E-01 -0.10651863690E-01  0.44311871604E-01  0.35000000149E-01 0.  1.
</event>
<event>
 4   0  0.4334200E-01  0.9118800E+02  0.7818609E-02  0.1379984E+01
      -11   -1    0    0    0    0  0.00000000000E+00  0.00000000000E+00  0.35740347158E-01  0.35744000000E-01  0.51099999109E-03 0. -1.
       11   -1    0    0    0    0 -0.00000000000E+00 -0.00000000000E+00 -0.35740347158E-01  0.35744000000E-01  0.51099999109E-03 0.  1.
       22    1    1    2    0    0  0.34798868714E-02  0.29390133307E-03  0.26950806370E-01  0.27176128396E-01  0.00000000000E+00 0. -1.
  9000001    1    1    2    0    0 -0.34798868714E-02 -0.29390133307E-03 -0.26950806370E-01  0.44311871604E-01  0.35000000149E-01 0.  1.
</event>
<event>
 4   0  0.4334200E-01  0.9118800E+02  0.7818609E-02  0.1379984E+01
      -11   -1    0    0    0    0  0.00000000000E+00  0.00000000000E+00  0.35740347158E-01  0.35744000000E-01  0.51099999109E-03 0.  1.
       11   -1    0    0    0    0 -0.00000000000E+00 -0.00000000000E+00 -0.35740347158E-01  0.35744000000E-01  0.51099999109E-03 0. -1.
       22    1    1    2    0    0 -0.84271497184E-02  0.25273750228E-01 -0.53630822870E-02  0.27176128396E-01  0.00000000000E+00 0.  1.
  9000001    1    1    2    0    0  0.84271497184E-02 -0.25273750228E-01  0.53630822870E-02  0.44311871604E-01  0.35000000149E-01 0. -1.
</event>
<event>
 4   0  0.4334200E-01  0.9118800E+02  0.7818609E-02  0.1379984E+01
      -11   -1    0    0    0    0  0.00000000000E+00  0.00000000000E+00  0.35740347158E-01  0.35744000000E-01  0.51099999109E-03 0. -1.
       11   -1    0    0    0    0 -0.00000000000E+00 -0.00000000000E+00 -0.35740347158E-01  0.35744000000E-01  0.51099999109E-03 0.  1.
       22    1    1    2    0    0  0.82301755604E-02  0.25755243019E-01 -0.27337925778E-02  0.27176128396E-01  0.00000000000E+00 0. -1.
  9000001    1    1    2    0    0 -0.82301755604E-02 -0.25755243019E-01  0.27337925778E-02  0.44311871604E-01  0.35000000149E-01 0.  0.
</event>
<event>
 4   0  0.4334200E-01  0.9118800E+02  0.7818609E-02  0.1379984E+01
      -11   -1    0    0    0    0  0.00000000000E+00  0.00000000000E+00  0.35740347158E-01  0.35744000000E-01  0.51099999109E-03 0.  1.
       11   -1    0    0    0    0 -0.00000000000E+00 -0.00000000000E+00 -0.35740347158E-01  0.35744000000E-01  0.51099999109E-03 0. -1.
       22    1    1    2    0    0 -0.95352187444E-02 -0.25332108589E-01  0.24301918738E-02  0.27176128396E-01  0.00000000000E+00 0. -1.
  9000001    1    1    2    0    0  0.95352187444E-02  0.25332108589E-01 -0.24301918738E-02  0.44311871604E-01  0.35000000149E-01 0.  1.
</event>
<event>
 4   0  0.4334200E-01  0.9118800E+02  0.7818609E-02  0.1379984E+01
      -11   -1    0    0    0    0  0.00000000000E+00  0.00000000000E+00  0.35740347158E-01  0.35744000000E-01  0.51099999109E-03 0.  1.
       11   -1    0    0    0    0 -0.00000000000E+00 -0.00000000000E+00 -0.35740347158E-01  0.35744000000E-01  0.51099999109E-03 0. -1.
       22    1    1    2    0    0 -0.58628263893E-02  0.64091466216E-02 -0.25750573992E-01  0.27176128396E-01  0.00000000000E+00 0. -1.
  9000001    1    1    2    0    0  0.58628263893E-02 -0.64091466216E-02  0.25750573992E-01  0.44311871604E-01  0.35000000149E-01 0.  1.
</event>
<event>
 4   0  0.4334200E-01  0.9118800E+02  0.7818609E-02  0.1379984E+01
      -11   -1    0    0    0    0  0.00000000000E+00  0.00000000000E+00  0.35740347158E-01  0.35744000000E-01  0.51099999109E-03 0.  1.
       11   -1    0    0    0    0 -0.00000000000E+00 -0.00000000000E+00 -0.35740347158E-01  0.35744000000E-01  0.51099999109E-03 0. -1.
       22    1    1    2    0    0  0.42898174216E-02 -0.13621910179E-02  0.26800818210E-01  0.27176128396E-01  0.00000000000E+00 0.  1.
  9000001    1    1    2    0    0 -0.42898174216E-02  0.13621910179E-02 -0.26800818210E-01  0.44311871604E-01  0.35000000149E-01 0. -1.
</event>
<event>
 4   0  0.4334200E-01  0.9118800E+02  0.7818609E-02  0.1379984E+01
      -11   -1    0    0    0    0  0.00000000000E+00  0.00000000000E+00  0.35740347158E-01  0.35744000000E-01  0.51099999109E-03 0.  1.
       11   -1    0    0    0    0 -0.00000000000E+00 -0.00000000000E+00 -0.35740347158E-01  0.35744000000E-01  0.51099999109E-03 0. -1.
       22    1    1    2    0    0 -0.66279249123E-02 -0.33098859637E-03 -0.26353425062E-01  0.27176128396E-01  0.00000000000E+00 0. -1.
  9000001    1    1    2    0    0  0.66279249123E-02  0.33098859637E-03  0.26353425062E-01  0.44311871604E-01  0.35000000149E-01 0.  1.
</event>
<event>
 4   0  0.4334200E-01  0.9118800E+02  0.7818609E-02  0.1379984E+01
      -11   -1    0    0    0    0  0.00000000000E+00  0.00000000000E+00  0.35740347158E-01  0.35744000000E-01  0.51099999109E-03 0. -1.
       11   -1    0    0    0    0 -0.00000000000E+00 -0.00000000000E+00 -0.35740347158E-01  0.35744000000E-01  0.51099999109E-03 0.  1.
       22    1    1    2    0    0  0.67285011700E-03 -0.47652309953E-02 -0.26746622233E-01  0.27176128396E-01  0.00000000000E+00 0.  1.
  9000001    1    1    2    0    0 -0.67285011700E-03  0.47652309953E-02  0.26746622233E-01  0.44311871604E-01  0.35000000149E-01 0. -1.
</event>
<event>
 4   0  0.4334200E-01  0.9118800E+02  0.7818609E-02  0.1379984E+01
      -11   -1    0    0    0    0  0.00000000000E+00  0.00000000000E+00  0.35740347158E-01  0.35744000000E-01  0.51099999109E-03 0.  1.
       11   -1    0    0    0    0 -0.00000000000E+00 -0.00000000000E+00 -0.35740347158E-01  0.35744000000E-01  0.51099999109E-03 0. -1.
       22    1    1    2    0    0 -0.11607446738E-01  0.33927238301E-02 -0.24337184715E-01  0.27176128396E-01  0.00000000000E+00 0. -1.
  9000001    1    1    2    0    0  0.11607446738E-01 -0.33927238301E-02  0.24337184715E-01  0.44311871604E-01  0.35000000149E-01 0.  1.
</event>
<event>
 4   0  0.4334200E-01  0.9118800E+02  0.7818609E-02  0.1379984E+01
      -11   -1    0    0    0    0  0.00000000000E+00  0.00000000000E+00  0.35740347158E-01  0.35744000000E-01  0.51099999109E-03 0.  1.
       11   -1    0    0    0    0 -0.00000000000E+00 -0.00000000000E+00 -0.35740347158E-01  0.35744000000E-01  0.51099999109E-03 0. -1.
       22    1    1    2    0    0  0.30371765089E-02  0.10111863658E-01 -0.25041320389E-01  0.27176128396E-01  0.00000000000E+00 0. -1.
  9000001    1    1    2    0    0 -0.30371765089E-02 -0.10111863658E-01  0.25041320389E-01  0.44311871604E-01  0.35000000149E-01 0.  1.
</event>
<event>
 4   0  0.4334200E-01  0.9118800E+02  0.7818609E-02  0.1379984E+01
      -11   -1    0    0    0    0  0.00000000000E+00  0.00000000000E+00  0.35740347158E-01  0.35744000000E-01  0.51099999109E-03 0. -1.
       11   -1    0    0    0    0 -0.00000000000E+00 -0.00000000000E+00 -0.35740347158E-01  0.35744000000E-01  0.51099999109E-03 0.  1.
       22    1    1    2    0    0  0.13094167966E-01  0.19309558301E-03  0.23812757799E-01  0.27176128396E-01  0.00000000000E+00 0. -1.
  9000001    1    1    2    0    0 -0.13094167966E-01 -0.19309558301E-03 -0.23812757799E-01  0.44311871604E-01  0.35000000149E-01 0.  1.
</event>
<event>
 4   0  0.4334200E-01  0.9118800E+02  0.7818609E-02  0.1379984E+01
      -11   -1    0    0    0    0  0.00000000000E+00  0.00000000000E+00  0.35740347158E-01  0.35744000000E-01  0.51099999109E-03 0.  1.
       11   -1    0    0    0    0 -0.00000000000E+00 -0.00000000000E+00 -0.35740347158E-01  0.35744000000E-01  0.51099999109E-03 0. -1.
       22    1    1    2    0    0 -0.37079354549E-02 -0.27691042147E-02  0.26779193997E-01  0.27176128396E-01  0.00000000000E+00 0.  1.
  9000001    1    1    2    0    0  0.37079354549E-02  0.27691042147E-02 -0.26779193997E-01  0.44311871604E-01  0.35000000149E-01 0. -1.
</event>
<event>
 4   0  0.4334200E-01  0.9118800E+02  0.7818609E-02  0.1379984E+01
      -11   -1    0    0    0    0  0.00000000000E+00  0.00000000000E+00  0.35740347158E-01  0.35744000000E-01  0.51099999109E-03 0.  1.
       11   -1    0    0    0    0 -0.00000000000E+00 -0.00000000000E+00 -0.35740347158E-01  0.35744000000E-01  0.51099999109E-03 0. -1.
       22    1    1    2    0    0 -0.78955573091E-02  0.10811584725E-01  0.23649773046E-01  0.27176128396E-01  0.00000000000E+00 0.  1.
  9000001    1    1    2    0    0  0.78955573091E-02 -0.10811584725E-01 -0.23649773046E-01  0.44311871604E-01  0.35000000149E-01 0. -1.
</event>
<event>
 4   0  0.4334200E-01  0.9118800E+02  0.7818609E-02  0.1379984E+01
      -11   -1    0    0    0    0  0.00000000000E+00  0.00000000000E+00  0.35740347158E-01  0.35744000000E-01  0.51099999109E-03 0. -1.
       11   -1    0    0    0    0 -0.00000000000E+00 -0.00000000000E+00 -0.35740347158E-01  0.35744000000E-01  0.51099999109E-03 0.  1.
       22    1    1    2    0    0  0.64421011008E-02 -0.31464955876E-02 -0.26213371655E-01  0.27176128396E-01  0.00000000000E+00 0.  1.
  9000001    1    1    2    0    0 -0.64421011008E-02  0.31464955876E-02  0.26213371655E-01  0.44311871604E-01  0.35000000149E-01 0. -1.
</event>
<event>
 4   0  0.4334200E-01  0.9118800E+02  0.7818609E-02  0.1379984E+01
      -11   -1    0    0    0    0  0.00000000000E+00  0.00000000000E+00  0.35740347158E-01  0.35744000000E-01  0.51099999109E-03 0. -1.
       11   -1    0    0    0    0 -0.00000000000E+00 -0.00000000000E+00 -0.35740347158E-01  0.35744000000E-01  0.51099999109E-03 0.  1.
       22    1    1    2    0    0  0.12785371042E-01  0.73099568797E-02  0.22839456481E-01  0.27176128396E-01  0.00000000000E+00 0. -1.
  9000001    1    1    2    0    0 -0.12785371042E-01 -0.73099568797E-02 -0.22839456481E-01  0.44311871604E-01  0.35000000149E-01 0.  1.
</event>
<event>
 4   0  0.4334200E-01  0.9118800E+02  0.7818609E-02  0.1379984E+01
      -11   -1    0    0    0    0  0.00000000000E+00  0.00000000000E+00  0.35740347158E-01  0.35744000000E-01  0.51099999109E-03 0.  1.
       11   -1    0    0    0    0 -0.00000000000E+00 -0.00000000000E+00 -0.35740347158E-01  0.35744000000E-01  0.51099999109E-03 0. -1.
       22    1    1    2    0    0 -0.32377261888E-02 -0.64244039756E-02  0.26206604459E-01  0.27176128396E-01  0.00000000000E+00 0.  1.
  9000001    1    1    2    0    0  0.32377261888E-02  0.64244039756E-02 -0.26206604459E-01  0.44311871604E-01  0.35000000149E-01 0. -1.
</event>
<event>
 4   0  0.4334200E-01  0.9118800E+02  0.7818609E-02  0.1379984E+01
      -11   -1    0    0    0    0  0.00000000000E+00  0.00000000000E+00  0.35740347158E-01  0.35744000000E-01  0.51099999109E-03 0. -1.
       11   -1    0    0    0    0 -0.00000000000E+00 -0.00000000000E+00 -0.35740347158E-01  0.35744000000E-01  0.51099999109E-03 0.  1.
       22    1    1    2    0    0  0.26029603519E-02 -0.25630920001E-02 -0.26929484054E-01  0.27176128396E-01  0.00000000000E+00 0.  1.
  9000001    1    1    2    0    0 -0.26029603519E-02  0.25630920001E-02  0.26929484054E-01  0.44311871604E-01  0.35000000149E-01 0. -1.
</event>
<event>
 4   0  0.4334200E-01  0.9118800E+02  0.7818609E-02  0.1379984E+01
      -11   -1    0    0    0    0  0.00000000000E+00  0.00000000000E+00  0.35740347158E-01  0.35744000000E-01  0.51099999109E-03 0.  1.
       11   -1    0    0    0    0 -0.00000000000E+00 -0.00000000000E+00 -0.35740347158E-01  0.35744000000E-01  0.51099999109E-03 0. -1.
       22    1    1    2    0    0  0.15410032951E-01  0.22296496783E-01  0.19847091111E-02  0.27176128396E-01  0.00000000000E+00 0. -1.
  9000001    1    1    2    0    0 -0.15410032951E-01 -0.22296496783E-01 -0.19847091111E-02  0.44311871604E-01  0.35000000149E-01 0.  1.
</event>
<event>
 4   0  0.4334200E-01  0.9118800E+02  0.7818609E-02  0.1379984E+01
      -11   -1    0    0    0    0  0.00000000000E+00  0.00000000000E+00  0.35740347158E-01  0.35744000000E-01  0.51099999109E-03 0. -1.
       11   -1    0    0    0    0 -0.00000000000E+00 -0.00000000000E+00 -0.35740347158E-01  0.35744000000E-01  0.51099999109E-03 0.  1.
       22    1    1    2    0    0  0.49506629387E-02  0.72970087393E-02  0.25705768896E-01  0.27176128396E-01  0.00000000000E+00 0. -1.
  9000001    1    1    2    0    0 -0.49506629387E-02 -0.72970087393E-02 -0.25705768896E-01  0.44311871604E-01  0.35000000149E-01 0.  1.
</event>
<event>
 4   0  0.4334200E-01  0.9118800E+02  0.7818609E-02  0.1379984E+01
      -11   -1    0    0    0    0  0.00000000000E+00  0.00000000000E+00  0.35740347158E-01  0.35744000000E-01  0.51099999109E-03 0.  1.
       11   -1    0    0    0    0 -0.00000000000E+00 -0.00000000000E+00 -0.35740347158E-01  0.35744000000E-01  0.51099999109E-03 0. -1.
       22    1    1    2    0    0 -0.23299047622E-02  0.11451635265E-01  0.24535149239E-01  0.27176128396E-01  0.00000000000E+00 0.  1.
  9000001    1    1    2    0    0  0.23299047622E-02 -0.11451635265E-01 -0.24535149239E-01  0.44311871604E-01  0.35000000149E-01 0. -1.
</event>
<event>
 4   0  0.4334200E-01  0.9118800E+02  0.7818609E-02  0.1379984E+01
      -11   -1    0    0    0    0  0.00000000000E+00  0.00000000000E+00  0.35740347158E-01  0.35744000000E-01  0.51099999109E-03 0. -1.
       11   -1    0    0    0    0 -0.00000000000E+00 -0.00000000000E+00 -0.35740347158E-01  0.35744000000E-01  0.51099999109E-03 0.  1.
       22    1    1    2    0    0  0.37523932458E-02 -0.67514731783E-02 -0.26055308662E-01  0.27176128396E-01  0.00000000000E+00 0.  1.
  9000001    1    1    2    0    0 -0.37523932458E-02  0.67514731783E-02  0.26055308662E-01  0.44311871604E-01  0.35000000149E-01 0. -1.
</event>
<event>
 4   0  0.4334200E-01  0.9118800E+02  0.7818609E-02  0.1379984E+01
      -11   -1    0    0    0    0  0.00000000000E+00  0.00000000000E+00  0.35740347158E-01  0.35744000000E-01  0.51099999109E-03 0.  1.
       11   -1    0    0    0    0 -0.00000000000E+00 -0.00000000000E+00 -0.35740347158E-01  0.35744000000E-01  0.51099999109E-03 0. -1.
       22    1    1    2    0    0 -0.11415903571E-02 -0.48614373505E-02 -0.26713389020E-01  0.27176128396E-01  0.00000000000E+00 0. -1.
  9000001    1    1    2    0    0  0.11415903571E-02  0.48614373505E-02  0.26713389020E-01  0.44311871604E-01  0.35000000149E-01 0.  1.
</event>
<event>
 4   0  0.4334200E-01  0.9118800E+02  0.7818609E-02  0.1379984E+01
      -11   -1    0    0    0    0  0.00000000000E+00  0.00000000000E+00  0.35740347158E-01  0.35744000000E-01  0.51099999109E-03 0.  1.
       11   -1    0    0    0    0 -0.00000000000E+00 -0.00000000000E+00 -0.35740347158E-01  0.35744000000E-01  0.51099999109E-03 0. -1.
       22    1    1    2    0    0 -0.36279411645E-02 -0.97539904657E-03 -0.26915211205E-01  0.27176128396E-01  0.00000000000E+00 0. -1.
  9000001    1    1    2    0    0  0.36279411645E-02  0.97539904657E-03  0.26915211205E-01  0.44311871604E-01  0.35000000149E-01 0.  1.
</event>
<event>
 4   0  0.4334200E-01  0.9118800E+02  0.7818609E-02  0.1379984E+01
      -11   -1    0    0    0    0  0.00000000000E+00  0.00000000000E+00  0.35740347158E-01  0.35744000000E-01  0.51099999109E-03 0. -1.
       11   -1    0    0    0    0 -0.00000000000E+00 -0.00000000000E+00 -0.35740347158E-01  0.35744000000E-01  0.51099999109E-03 0.  1.
       22    1    1    2    0    0  0.82253104315E-03 -0.62263960710E-02 -0.26440449869E-01  0.27176128396E-01  0.00000000000E+00 0.  1.
  9000001    1    1    2    0    0 -0.82253104315E-03  0.62263960710E-02  0.26440449869E-01  0.44311871604E-01  0.35000000149E-01 0. -1.
</event>
<event>
 4   0  0.4334200E-01  0.9118800E+02  0.7818609E-02  0.1379984E+01
      -11   -1    0    0    0    0  0.00000000000E+00  0.00000000000E+00  0.35740347158E-01  0.35744000000E-01  0.51099999109E-03 0.  1.
       11   -1    0    0    0    0 -0.00000000000E+00 -0.00000000000E+00 -0.35740347158E-01  0.35744000000E-01  0.51099999109E-03 0. -1.
       22    1    1    2    0    0 -0.15777708388E-01  0.19498700524E-01  0.10459758625E-01  0.27176128396E-01  0.00000000000E+00 0.  1.
  9000001    1    1    2    0    0  0.15777708388E-01 -0.19498700524E-01 -0.10459758625E-01  0.44311871604E-01  0.35000000149E-01 0. -1.
</event>
<event>
 4   0  0.4334200E-01  0.9118800E+02  0.7818609E-02  0.1379984E+01
      -11   -1    0    0    0    0  0.00000000000E+00  0.00000000000E+00  0.35740347158E-01  0.35744000000E-01  0.51099999109E-03 0.  1.
       11   -1    0    0    0    0 -0.00000000000E+00 -0.00000000000E+00 -0.35740347158E-01  0.35744000000E-01  0.51099999109E-03 0. -1.
       22    1    1    2    0    0  0.45884126304E-02 -0.24306994050E-02 -0.26675459219E-01  0.27176128396E-01  0.00000000000E+00 0. -1.
  9000001    1    1    2    0    0 -0.45884126304E-02  0.24306994050E-02  0.26675459219E-01  0.44311871604E-01  0.35000000149E-01 0.  1.
</event>
<event>
 4   0  0.4334200E-01  0.9118800E+02  0.7818609E-02  0.1379984E+01
      -11   -1    0    0    0    0  0.00000000000E+00  0.00000000000E+00  0.35740347158E-01  0.35744000000E-01  0.51099999109E-03 0. -1.
       11   -1    0    0    0    0 -0.00000000000E+00 -0.00000000000E+00 -0.35740347158E-01  0.35744000000E-01  0.51099999109E-03 0.  1.
       22    1    1    2    0    0  0.17618480309E-01  0.18674028378E-01 -0.89113282033E-02  0.27176128396E-01  0.00000000000E+00 0.  1.
  9000001    1    1    2    0    0 -0.17618480309E-01 -0.18674028378E-01  0.89113282033E-02  0.44311871604E-01  0.35000000149E-01 0. -1.
</event>
<event>
 4   0  0.4334200E-01  0.9118800E+02  0.7818609E-02  0.1379984E+01
      -11   -1    0    0    0    0  0.00000000000E+00  0.00000000000E+00  0.35740347158E-01  0.35744000000E-01  0.51099999109E-03 0.  1.
       11   -1    0    0    0    0 -0.00000000000E+00 -0.00000000000E+00 -0.35740347158E-01  0.35744000000E-01  0.51099999109E-03 0. -1.
       22    1    1    2    0    0 -0.14657382339E-01 -0.61681515587E-02  0.22037627003E-01  0.27176128396E-01  0.00000000000E+00 0.  1.
  9000001    1    1    2    0    0  0.14657382339E-01  0.61681515587E-02 -0.22037627003E-01  0.44311871604E-01  0.35000000149E-01 0. -1.
</event>
<event>
 4   0  0.4334200E-01  0.9118800E+02  0.7818609E-02  0.1379984E+01
      -11   -1    0    0    0    0  0.00000000000E+00  0.00000000000E+00  0.35740347158E-01  0.35744000000E-01  0.51099999109E-03 0. -1.
       11   -1    0    0    0    0 -0.00000000000E+00 -0.00000000000E+00 -0.35740347158E-01  0.35744000000E-01  0.51099999109E-03 0.  1.
       22    1    1    2    0    0 -0.60876094563E-03 -0.12193987802E-01  0.24279168565E-01  0.27176128396E-01  0.00000000000E+00 0. -1.
  9000001    1    1    2    0    0  0.60876094563E-03  0.12193987802E-01 -0.24279168565E-01  0.44311871604E-01  0.35000000149E-01 0.  1.
</event>
<event>
 4   0  0.4334200E-01  0.9118800E+02  0.7818609E-02  0.1379984E+01
      -11   -1    0    0    0    0  0.00000000000E+00  0.00000000000E+00  0.35740347158E-01  0.35744000000E-01  0.51099999109E-03 0.  1.
       11   -1    0    0    0    0 -0.00000000000E+00 -0.00000000000E+00 -0.35740347158E-01  0.35744000000E-01  0.51099999109E-03 0. -1.
       22    1    1    2    0    0 -0.89261462607E-02 -0.83944264987E-02 -0.24256946867E-01  0.27176128396E-01  0.00000000000E+00 0. -1.
  9000001    1    1    2    0    0  0.89261462607E-02  0.83944264987E-02  0.24256946867E-01  0.44311871604E-01  0.35000000149E-01 0.  1.
</event>
<event>
 4   0  0.4334200E-01  0.9118800E+02  0.7818609E-02  0.1379984E+01
      -11   -1    0    0    0    0  0.00000000000E+00  0.00000000000E+00  0.35740347158E-01  0.35744000000E-01  0.51099999109E-03 0.  1.
       11   -1    0    0    0    0 -0.00000000000E+00 -0.00000000000E+00 -0.35740347158E-01  0.35744000000E-01  0.51099999109E-03 0. -1.
       22    1    1    2    0    0 -0.74174508805E-03 -0.60617767092E-02 -0.26481061760E-01  0.27176128396E-01  0.00000000000E+00 0. -1.
  9000001    1    1    2    0    0  0.74174508805E-03  0.60617767092E-02  0.26481061760E-01  0.44311871604E-01  0.35000000149E-01 0.  1.
</event>
<event>
 4   0  0.4334200E-01  0.9118800E+02  0.7818609E-02  0.1379984E+01
      -11   -1    0    0    0    0  0.00000000000E+00  0.00000000000E+00  0.35740347158E-01  0.35744000000E-01  0.51099999109E-03 0.  1.
       11   -1    0    0    0    0 -0.00000000000E+00 -0.00000000000E+00 -0.35740347158E-01  0.35744000000E-01  0.51099999109E-03 0. -1.
       22    1    1    2    0    0 -0.46005421585E-02 -0.19790362035E-02  0.26710679178E-01  0.27176128396E-01  0.00000000000E+00 0.  1.
  9000001    1    1    2    0    0  0.46005421585E-02  0.19790362035E-02 -0.26710679178E-01  0.44311871604E-01  0.35000000149E-01 0. -1.
</event>
<event>
 4   0  0.4334200E-01  0.9118800E+02  0.7818609E-02  0.1379984E+01
      -11   -1    0    0    0    0  0.00000000000E+00  0.00000000000E+00  0.35740347158E-01  0.35744000000E-01  0.51099999109E-03 0. -1.
       11   -1    0    0    0    0 -0.00000000000E+00 -0.00000000000E+00 -0.35740347158E-01  0.35744000000E-01  0.51099999109E-03 0.  1.
       22    1    1    2    0    0 -0.15228032907E-01  0.12466934095E-01 -0.18740985104E-01  0.27176128396E-01  0.00000000000E+00 0.  1.
  9000001    1    1    2    0    0  0.15228032907E-01 -0.12466934095E-01  0.18740985104E-01  0.44311871604E-01  0.35000000149E-01 0. -1.
</event>
<event>
 4   0  0.4334200E-01  0.9118800E+02  0.7818609E-02  0.1379984E+01
      -11   -1    0    0    0    0  0.00000000000E+00  0.00000000000E+00  0.35740347158E-01  0.35744000000E-01  0.51099999109E-03 0.  1.
       11   -1    0    0    0    0 -0.00000000000E+00 -0.00000000000E+00 -0.35740347158E-01  0.35744000000E-01  0.51099999109E-03 0. -1.
       22    1    1    2    0    0 -0.30733160349E-02 -0.22103738257E-02 -0.26911167398E-01  0.27176128396E-01  0.00000000000E+00 0. -1.
  9000001    1    1    2    0    0  0.30733160349E-02  0.22103738257E-02  0.26911167398E-01  0.44311871604E-01  0.35000000149E-01 0.  1.
</event>
<event>
 4   0  0.4334200E-01  0.9118800E+02  0.7818609E-02  0.1379984E+01
      -11   -1    0    0    0    0  0.00000000000E+00  0.00000000000E+00  0.35740347158E-01  0.35744000000E-01  0.51099999109E-03 0.  1.
       11   -1    0    0    0    0 -0.00000000000E+00 -0.00000000000E+00 -0.35740347158E-01  0.35744000000E-01  0.51099999109E-03 0. -1.
       22    1    1    2    0    0 -0.11912769192E-01 -0.23452784527E-02 -0.24313114851E-01  0.27176128396E-01  0.00000000000E+00 0. -1.
  9000001    1    1    2    0    0  0.11912769192E-01  0.23452784527E-02  0.24313114851E-01  0.44311871604E-01  0.35000000149E-01 0.  1.
</event>
<event>
 4   0  0.4334200E-01  0.9118800E+02  0.7818609E-02  0.1379984E+01
      -11   -1    0    0    0    0  0.00000000000E+00  0.00000000000E+00  0.35740347158E-01  0.35744000000E-01  0.51099999109E-03 0. -1.
       11   -1    0    0    0    0 -0.00000000000E+00 -0.00000000000E+00 -0.35740347158E-01  0.35744000000E-01  0.51099999109E-03 0.  1.
       22    1    1    2    0    0  0.20088789546E-01 -0.95081624171E-02 -0.15638968529E-01  0.27176128396E-01  0.00000000000E+00 0.  1.
  9000001    1    1    2    0    0 -0.20088789546E-01  0.95081624171E-02  0.15638968529E-01  0.44311871604E-01  0.35000000149E-01 0. -1.
</event>
<event>
 4   0  0.4334200E-01  0.9118800E+02  0.7818609E-02  0.1379984E+01
      -11   -1    0    0    0    0  0.00000000000E+00  0.00000000000E+00  0.35740347158E-01  0.35744000000E-01  0.51099999109E-03 0. -1.
       11   -1    0    0    0    0 -0.00000000000E+00 -0.00000000000E+00 -0.35740347158E-01  0.35744000000E-01  0.51099999109E-03 0.  1.
       22    1    1    2    0    0  0.35469812077E-02 -0.17770125350E-01 -0.20252988026E-01  0.27176128396E-01  0.00000000000E+00 0.  1.
  9000001    1    1    2    0    0 -0.35469812077E-02  0.17770125350E-01  0.20252988026E-01  0.44311871604E-01  0.35000000149E-01 0. -1.
</event>
<event>
 4   0  0.4334200E-01  0.9118800E+02  0.7818609E-02  0.1379984E+01
      -11   -1    0    0    0    0  0.00000000000E+00  0.00000000000E+00  0.35740347158E-01  0.35744000000E-01  0.51099999109E-03 0. -1.
       11   -1    0    0    0    0 -0.00000000000E+00 -0.00000000000E+00 -0.35740347158E-01  0.35744000000E-01  0.51099999109E-03 0.  1.
       22    1    1    2    0    0 -0.52975575921E-02  0.56562179610E-02  0.26047745325E-01  0.27176128396E-01  0.00000000000E+00 0. -1.
  9000001    1    1    2    0    0  0.52975575921E-02 -0.56562179610E-02 -0.26047745325E-01  0.44311871604E-01  0.35000000149E-01 0.  1.
</event>
<event>
 4   0  0.4334200E-01  0.9118800E+02  0.7818609E-02  0.1379984E+01
      -11   -1    0    0    0    0  0.00000000000E+00  0.00000000000E+00  0.35740347158E-01  0.35744000000E-01  0.51099999109E-03 0.  1.
       11   -1    0    0    0    0 -0.00000000000E+00 -0.00000000000E+00 -0.35740347158E-01  0.35744000000E-01  0.51099999109E-03 0. -1.
       22    1    1    2    0    0  0.37366238041E-02 -0.14410015412E-01 -0.22736117808E-01  0.27176128396E-01  0.00000000000E+00 0. -1.
  9000001    1    1    2    0    0 -0.37366238041E-02  0.14410015412E-01  0.22736117808E-01  0.44311871604E-01  0.35000000149E-01 0.  1.
</event>
<event>
 4   0  0.4334200E-01  0.9118800E+02  0.7818609E-02  0.1379984E+01
      -11   -1    0    0    0    0  0.00000000000E+00  0.00000000000E+00  0.35740347158E-01  0.35744000000E-01  0.51099999109E-03 0.  1.
       11   -1    0    0    0    0 -0.00000000000E+00 -0.00000000000E+00 -0.35740347158E-01  0.35744000000E-01  0.51099999109E-03 0. -1.
       22    1    1    2    0    0  0.57414765302E-02  0.49763429267E-02 -0.26092401441E-01  0.27176128396E-01  0.00000000000E+00 0.  1.
  9000001    1    1    2    0    0 -0.57414765302E-02 -0.49763429267E-02  0.26092401441E-01  0.44311871604E-01  0.35000000149E-01 0.  1.
</event>
<event>
 4   0  0.4334200E-01  0.9118800E+02  0.7818609E-02  0.1379984E+01
      -11   -1    0    0    0    0  0.00000000000E+00  0.00000000000E+00  0.35740347158E-01  0.35744000000E-01  0.51099999109E-03 0.  1.
       11   -1    0    0    0    0 -0.00000000000E+00 -0.00000000000E+00 -0.35740347158E-01  0.35744000000E-01  0.51099999109E-03 0. -1.
       22    1    1    2    0    0  0.48480615725E-02  0.13542121228E-02 -0.26705886301E-01  0.27176128396E-01  0.00000000000E+00 0. -1.
  9000001    1    1    2    0    0 -0.48480615725E-02 -0.13542121228E-02  0.26705886301E-01  0.44311871604E-01  0.35000000149E-01 0.  1.
</event>
<event>
 4   0  0.4334200E-01  0.9118800E+02  0.7818609E-02  0.1379984E+01
      -11   -1    0    0    0    0  0.00000000000E+00  0.00000000000E+00  0.35740347158E-01  0.35744000000E-01  0.51099999109E-03 0.  1.
       11   -1    0    0    0    0 -0.00000000000E+00 -0.00000000000E+00 -0.35740347158E-01  0.35744000000E-01  0.51099999109E-03 0. -1.
       22    1    1    2    0    0  0.81075619435E-03  0.13920540009E-01 -0.23326019696E-01  0.27176128396E-01  0.00000000000E+00 0. -1.
  9000001    1    1    2    0    0 -0.81075619435E-03 -0.13920540009E-01  0.23326019696E-01  0.44311871604E-01  0.35000000149E-01 0.  1.
</event>
<event>
 4   0  0.4334200E-01  0.9118800E+02  0.7818609E-02  0.1379984E+01
      -11   -1    0    0    0    0  0.00000000000E+00  0.00000000000E+00  0.35740347158E-01  0.35744000000E-01  0.51099999109E-03 0.  1.
       11   -1    0    0    0    0 -0.00000000000E+00 -0.00000000000E+00 -0.35740347158E-01  0.35744000000E-01  0.51099999109E-03 0. -1.
       22    1    1    2    0    0  0.22165260484E-01  0.72375449645E-02  0.13959266641E-01  0.27176128396E-01  0.00000000000E+00 0.  1.
  9000001    1    1    2    0    0 -0.22165260484E-01 -0.72375449645E-02 -0.13959266641E-01  0.44311871604E-01  0.35000000149E-01 0. -1.
</event>
<event>
 4   0  0.4334200E-01  0.9118800E+02  0.7818609E-02  0.1379984E+01
      -11   -1    0    0    0    0  0.00000000000E+00  0.00000000000E+00  0.35740347158E-01  0.35744000000E-01  0.51099999109E-03 0. -1.
       11   -1    0    0    0    0 -0.00000000000E+00 -0.00000000000E+00 -0.35740347158E-01  0.35744000000E-01  0.51099999109E-03 0.  1.
       22    1    1    2    0    0  0.52037067003E-02 -0.14280446098E-01 -0.22528476434E-01  0.27176128396E-01  0.00000000000E+00 0.  1.
  9000001    1    1    2    0    0 -0.52037067003E-02  0.14280446098E-01  0.22528476434E-01  0.44311871604E-01  0.35000000149E-01 0. -1.
</event>
<event>
 4   0  0.4334200E-01  0.9118800E+02  0.7818609E-02  0.1379984E+01
      -11   -1    0    0    0    0  0.00000000000E+00  0.00000000000E+00  0.35740347158E-01  0.35744000000E-01  0.51099999109E-03 0. -1.
       11   -1    0    0    0    0 -0.00000000000E+00 -0.00000000000E+00 -0.35740347158E-01  0.35744000000E-01  0.51099999109E-03 0.  1.
       22    1    1    2    0    0  0.40268237006E-02  0.26164320341E-01  0.61445086521E-02  0.27176128396E-01  0.00000000000E+00 0.  1.
  9000001    1    1    2    0    0 -0.40268237006E-02 -0.26164320341E-01 -0.61445086521E-02  0.44311871604E-01  0.35000000149E-01 0. -1.
</event>
<event>
 4   0  0.4334200E-01  0.9118800E+02  0.7818609E-02  0.1379984E+01
      -11   -1    0    0    0    0  0.00000000000E+00  0.00000000000E+00  0.35740347158E-01  0.35744000000E-01  0.51099999109E-03 0. -1.
       11   -1    0    0    0    0 -0.00000000000E+00 -0.00000000000E+00 -0.35740347158E-01  0.35744000000E-01  0.51099999109E-03 0.  1.
       22    1    1    2    0    0 -0.10092479710E-02 -0.61475406001E-02 -0.26452431225E-01  0.27176128396E-01  0.00000000000E+00 0.  1.
  9000001    1    1    2    0    0  0.10092479710E-02  0.61475406001E-02  0.26452431225E-01  0.44311871604E-01  0.35000000149E-01 0. -1.
</event>
<event>
 4   0  0.4334200E-01  0.9118800E+02  0.7818609E-02  0.1379984E+01
      -11   -1    0    0    0    0  0.00000000000E+00  0.00000000000E+00  0.35740347158E-01  0.35744000000E-01  0.51099999109E-03 0. -1.
       11   -1    0    0    0    0 -0.00000000000E+00 -0.00000000000E+00 -0.35740347158E-01  0.35744000000E-01  0.51099999109E-03 0.  1.
       22    1    1    2    0    0  0.42725982939E-02 -0.17914293635E-02 -0.26778305384E-01  0.27176128396E-01  0.00000000000E+00 0.  1.
  9000001    1    1    2    0    0 -0.42725982939E-02  0.17914293635E-02  0.26778305384E-01  0.44311871604E-01  0.35000000149E-01 0. -1.
</event>
<event>
 4   0  0.4334200E-01  0.9118800E+02  0.7818609E-02  0.1379984E+01
      -11   -1    0    0    0    0  0.00000000000E+00  0.00000000000E+00  0.35740347158E-01  0.35744000000E-01  0.51099999109E-03 0. -1.
       11   -1    0    0    0    0 -0.00000000000E+00 -0.00000000000E+00 -0.35740347158E-01  0.35744000000E-01  0.51099999109E-03 0.  1.
       22    1    1    2    0    0 -0.21918851352E-01 -0.15158662994E-01 -0.53217333883E-02  0.27176128396E-01  0.00000000000E+00 0.  1.
  9000001    1    1    2    0    0  0.21918851352E-01  0.15158662994E-01  0.53217333883E-02  0.44311871604E-01  0.35000000149E-01 0.  0.
</event>
<event>
 4   0  0.4334200E-01  0.9118800E+02  0.7818609E-02  0.1379984E+01
      -11   -1    0    0    0    0  0.00000000000E+00  0.00000000000E+00  0.35740347158E-01  0.35744000000E-01  0.51099999109E-03 0.  1.
       11   -1    0    0    0    0 -0.00000000000E+00 -0.00000000000E+00 -0.35740347158E-01  0.35744000000E-01  0.51099999109E-03 0. -1.
       22    1    1    2    0    0 -0.40009651758E-02 -0.15095141760E-02 -0.26837578118E-01  0.27176128396E-01  0.00000000000E+00 0. -1.
  9000001    1    1    2    0    0  0.40009651758E-02  0.15095141760E-02  0.26837578118E-01  0.44311871604E-01  0.35000000149E-01 0.  1.
</event>
<event>
 4   0  0.4334200E-01  0.9118800E+02  0.7818609E-02  0.1379984E+01
      -11   -1    0    0    0    0  0.00000000000E+00  0.00000000000E+00  0.35740347158E-01  0.35744000000E-01  0.51099999109E-03 0.  1.
       11   -1    0    0    0    0 -0.00000000000E+00 -0.00000000000E+00 -0.35740347158E-01  0.35744000000E-01  0.51099999109E-03 0. -1.
       22    1    1    2    0    0 -0.10482056805E-02 -0.38969996077E-02 -0.26874832344E-01  0.27176128396E-01  0.00000000000E+00 0. -1.
  9000001    1    1    2    0    0  0.10482056805E-02  0.38969996077E-02  0.26874832344E-01  0.44311871604E-01  0.35000000149E-01 0.  1.
</event>
<event>
 4   0  0.4334200E-01  0.9118800E+02  0.7818609E-02  0.1379984E+01
      -11   -1    0    0    0    0  0.00000000000E+00  0.00000000000E+00  0.35740347158E-01  0.35744000000E-01  0.51099999109E-03 0. -1.
       11   -1    0    0    0    0 -0.00000000000E+00 -0.00000000000E+00 -0.35740347158E-01  0.35744000000E-01  0.51099999109E-03 0.  1.
       22    1    1    2    0    0 -0.56994815464E-02  0.98316660286E-02  0.24685951629E-01  0.27176128396E-01  0.00000000000E+00 0. -1.
  9000001    1    1    2    0    0  0.56994815464E-02 -0.98316660286E-02 -0.24685951629E-01  0.44311871604E-01  0.35000000149E-01 0.  1.
</event>
<event>
 4   0  0.4334200E-01  0.9118800E+02  0.7818609E-02  0.1379984E+01
      -11   -1    0    0    0    0  0.00000000000E+00  0.00000000000E+00  0.35740347158E-01  0.35744000000E-01  0.51099999109E-03 0. -1.
       11   -1    0    0    0    0 -0.00000000000E+00 -0.00000000000E+00 -0.35740347158E-01  0.35744000000E-01  0.51099999109E-03 0.  1.
       22    1    1    2    0    0 -0.62457117305E-02  0.96268041750E-03  0.26431161268E-01  0.27176128396E-01  0.00000000000E+00 0. -1.
  9000001    1    1    2    0    0  0.62457117305E-02 -0.96268041750E-03 -0.26431161268E-01  0.44311871604E-01  0.35000000149E-01 0.  1.
</event>
<event>
 4   0  0.4334200E-01  0.9118800E+02  0.7818609E-02  0.1379984E+01
      -11   -1    0    0    0    0  0.00000000000E+00  0.00000000000E+00  0.35740347158E-01  0.35744000000E-01  0.51099999109E-03 0. -1.
       11   -1    0    0    0    0 -0.00000000000E+00 -0.00000000000E+00 -0.35740347158E-01  0.35744000000E-01  0.51099999109E-03 0.  1.
       22    1    1    2    0    0  0.19040009564E-01  0.32911079992E-02 -0.19109908387E-01  0.27176128396E-01  0.00000000000E+00 0.  1.
  9000001    1    1    2    0    0 -0.19040009564E-01 -0.32911079992E-02  0.19109908387E-01  0.44311871604E-01  0.35000000149E-01 0. -1.
</event>
<event>
 4   0  0.4334200E-01  0.9118800E+02  0.7818609E-02  0.1379984E+01
      -11   -1    0    0    0    0  0.00000000000E+00  0.00000000000E+00  0.35740347158E-01  0.35744000000E-01  0.51099999109E-03 0.  1.
       11   -1    0    0    0    0 -0.00000000000E+00 -0.00000000000E+00 -0.35740347158E-01  0.35744000000E-01  0.51099999109E-03 0. -1.
       22    1    1    2    0    0 -0.17068743509E-02  0.15754062210E-01 -0.22077999421E-01  0.27176128396E-01  0.00000000000E+00 0. -1.
  9000001    1    1    2    0    0  0.17068743509E-02 -0.15754062210E-01  0.22077999421E-01  0.44311871604E-01  0.35000000149E-01 0.  1.
</event>
<event>
 4   0  0.4334200E-01  0.9118800E+02  0.7818609E-02  0.1379984E+01
      -11   -1    0    0    0    0  0.00000000000E+00  0.00000000000E+00  0.35740347158E-01  0.35744000000E-01  0.51099999109E-03 0. -1.
       11   -1    0    0    0    0 -0.00000000000E+00 -0.00000000000E+00 -0.35740347158E-01  0.35744000000E-01  0.51099999109E-03 0.  1.
       22    1    1    2    0    0 -0.64362584350E-03  0.56693166514E-02  0.26570407394E-01  0.27176128396E-01  0.00000000000E+00 0. -1.
  9000001    1    1    2    0    0  0.64362584350E-03 -0.56693166514E-02 -0.26570407394E-01  0.44311871604E-01  0.35000000149E-01 0.  1.
</event>
<event>
 4   0  0.4334200E-01  0.9118800E+02  0.7818609E-02  0.1379984E+01
      -11   -1    0    0    0    0  0.00000000000E+00  0.00000000000E+00  0.35740347158E-01  0.35744000000E-01  0.51099999109E-03 0.  1.
       11   -1    0    0    0    0 -0.00000000000E+00 -0.00000000000E+00 -0.35740347158E-01  0.35744000000E-01  0.51099999109E-03 0. -1.
       22    1    1    2    0    0  0.56204536806E-02  0.22425324677E-02 -0.26493838966E-01  0.27176128396E-01  0.00000000000E+00 0. -1.
  9000001    1    1    2    0    0 -0.56204536806E-02 -0.22425324677E-02  0.26493838966E-01  0.44311871604E-01  0.35000000149E-01 0.  1.
</event>
<event>
 4   0  0.4334200E-01  0.9118800E+02  0.7818609E-02  0.1379984E+01
      -11   -1    0    0    0    0  0.00000000000E+00  0.00000000000E+00  0.35740347158E-01  0.35744000000E-01  0.51099999109E-03 0. -1.
       11   -1    0    0    0    0 -0.00000000000E+00 -0.00000000000E+00 -0.35740347158E-01  0.35744000000E-01  0.51099999109E-03 0.  1.
       22    1    1    2    0    0  0.24999500020E-01 -0.10588819157E-01  0.12016081836E-02  0.27176128396E-01  0.00000000000E+00 0. -1.
  9000001    1    1    2    0    0 -0.24999500020E-01  0.10588819157E-01 -0.12016081836E-02  0.44311871604E-01  0.35000000149E-01 0.  0.
</event>
<event>
 4   0  0.4334200E-01  0.9118800E+02  0.7818609E-02  0.1379984E+01
      -11   -1    0    0    0    0  0.00000000000E+00  0.00000000000E+00  0.35740347158E-01  0.35744000000E-01  0.51099999109E-03 0.  1.
       11   -1    0    0    0    0 -0.00000000000E+00 -0.00000000000E+00 -0.35740347158E-01  0.35744000000E-01  0.51099999109E-03 0. -1.
       22    1    1    2    0    0 -0.27101716704E-01 -0.19521271110E-02 -0.47760446782E-03  0.27176128396E-01  0.00000000000E+00 0. -1.
  9000001    1    1    2    0    0  0.27101716704E-01  0.19521271110E-02  0.47760446782E-03  0.44311871604E-01  0.35000000149E-01 0.  1.
</event>
<event>
 4   0  0.4334200E-01  0.9118800E+02  0.7818609E-02  0.1379984E+01
      -11   -1    0    0    0    0  0.00000000000E+00  0.00000000000E+00  0.35740347158E-01  0.35744000000E-01  0.51099999109E-03 0.  1.
       11   -1    0    0    0    0 -0.00000000000E+00 -0.00000000000E+00 -0.35740347158E-01  0.35744000000E-01  0.51099999109E-03 0. -1.
       22    1    1    2    0    0  0.68535764483E-02  0.72617528099E-02 -0.25275232751E-01  0.27176128396E-01  0.00000000000E+00 0. -1.
  9000001    1    1    2    0    0 -0.68535764483E-02 -0.72617528099E-02  0.25275232751E-01  0.44311871604E-01  0.35000000149E-01 0.  1.
</event>
<event>
 4   0  0.4334200E-01  0.9118800E+02  0.7818609E-02  0.1379984E+01
      -11   -1    0    0    0    0  0.00000000000E+00  0.00000000000E+00  0.35740347158E-01  0.35744000000E-01  0.51099999109E-03 0. -1.
       11   -1    0    0    0    0 -0.00000000000E+00 -0.00000000000E+00 -0.35740347158E-01  0.35744000000E-01  0.51099999109E-03 0.  1.
       22    1    1    2    0    0 -0.38849190327E-02  0.95079266423E-02 -0.25160458853E-01  0.27176128396E-01  0.00000000000E+00 0.  1.
  9000001    1    1    2    0    0  0.38849190327E-02 -0.95079266423E-02  0.25160458853E-01  0.44311871604E-01  0.35000000149E-01 0. -1.
</event>
<event>
 4   0  0.4334200E-01  0.9118800E+02  0.7818609E-02  0.1379984E+01
      -11   -1    0    0    0    0  0.00000000000E+00  0.00000000000E+00  0.35740347158E-01  0.35744000000E-01  0.51099999109E-03 0. -1.
       11   -1    0    0    0    0 -0.00000000000E+00 -0.00000000000E+00 -0.35740347158E-01  0.35744000000E-01  0.51099999109E-03 0.  1.
       22    1    1    2    0    0 -0.99142064561E-02 -0.22021961568E-02  0.25207157655E-01  0.27176128396E-01  0.00000000000E+00 0. -1.
  9000001    1    1    2    0    0  0.99142064561E-02  0.22021961568E-02 -0.25207157655E-01  0.44311871604E-01  0.35000000149E-01 0.  1.
</event>
<event>
 4   0  0.4334200E-01  0.9118800E+02  0.7818609E-02  0.1379984E+01
      -11   -1    0    0    0    0  0.00000000000E+00  0.00000000000E+00  0.35740347158E-01  0.35744000000E-01  0.51099999109E-03 0. -1.
       11   -1    0    0    0    0 -0.00000000000E+00 -0.00000000000E+00 -0.35740347158E-01  0.35744000000E-01  0.51099999109E-03 0.  1.
       22    1    1    2    0    0 -0.94853856727E-03 -0.33360553792E-02 -0.26953904424E-01  0.27176128396E-01  0.00000000000E+00 0.  1.
  9000001    1    1    2    0    0  0.94853856727E-03  0.33360553792E-02  0.26953904424E-01  0.44311871604E-01  0.35000000149E-01 0. -1.
</event>
<event>
 4   0  0.4334200E-01  0.9118800E+02  0.7818609E-02  0.1379984E+01
      -11   -1    0    0    0    0  0.00000000000E+00  0.00000000000E+00  0.35740347158E-01  0.35744000000E-01  0.51099999109E-03 0. -1.
       11   -1    0    0    0    0 -0.00000000000E+00 -0.00000000000E+00 -0.35740347158E-01  0.35744000000E-01  0.51099999109E-03 0.  1.
       22    1    1    2    0    0  0.24119336930E-01  0.83372029042E-02 -0.93429432404E-02  0.27176128396E-01  0.00000000000E+00 0.  1.
  9000001    1    1    2    0    0 -0.24119336930E-01 -0.83372029042E-02  0.93429432404E-02  0.44311871604E-01  0.35000000149E-01 0. -1.
</event>
<event>
 4   0  0.4334200E-01  0.9118800E+02  0.7818609E-02  0.1379984E+01
      -11   -1    0    0    0    0  0.00000000000E+00  0.00000000000E+00  0.35740347158E-01  0.35744000000E-01  0.51099999109E-03 0.  1.
       11   -1    0    0    0    0 -0.00000000000E+00 -0.00000000000E+00 -0.35740347158E-01  0.35744000000E-01  0.51099999109E-03 0. -1.
       22    1    1    2    0    0 -0.36936143646E-02 -0.18185421863E-02 -0.26862465856E-01  0.27176128396E-01  0.00000000000E+00 0. -1.
  9000001    1    1    2    0    0  0.36936143646E-02  0.18185421863E-02  0.26862465856E-01  0.44311871604E-01  0.35000000149E-01 0.  1.
</event>
<event>
 4   0  0.4334200E-01  0.9118800E+02  0.7818609E-02  0.1379984E+01
      -11   -1    0    0    0    0  0.00000000000E+00  0.00000000000E+00  0.35740347158E-01  0.35744000000E-01  0.51099999109E-03 0. -1.
       11   -1    0    0    0    0 -0.00000000000E+00 -0.00000000000E+00 -0.35740347158E-01  0.35744000000E-01  0.51099999109E-03 0.  1.
       22    1    1    2    0    0  0.49698359046E-02  0.11953479109E-01 -0.23894707005E-01  0.27176128396E-01  0.00000000000E+00 0.  1.
  9000001    1    1    2    0    0 -0.49698359046E-02 -0.11953479109E-01  0.23894707005E-01  0.44311871604E-01  0.35000000149E-01 0. -1.
</event>
<event>
 4   0  0.4334200E-01  0.9118800E+02  0.7818609E-02  0.1379984E+01
      -11   -1    0    0    0    0  0.00000000000E+00  0.00000000000E+00  0.35740347158E-01  0.35744000000E-01  0.51099999109E-03 0. -1.
       11   -1    0    0    0    0 -0.00000000000E+00 -0.00000000000E+00 -0.35740347158E-01  0.35744000000E-01  0.51099999109E-03 0.  1.
       22    1    1    2    0    0 -0.30108153210E-03 -0.88195165378E-02 -0.25703451763E-01  0.27176128396E-01  0.00000000000E+00 0.  1.
  9000001    1    1    2    0    0  0.30108153210E-03  0.88195165378E-02  0.25703451763E-01  0.44311871604E-01  0.35000000149E-01 0. -1.
</event>
<event>
 4   0  0.4334200E-01  0.9118800E+02  0.7818609E-02  0.1379984E+01
      -11   -1    0    0    0    0  0.00000000000E+00  0.00000000000E+00  0.35740347158E-01  0.35744000000E-01  0.51099999109E-03 0. -1.
       11   -1    0    0    0    0 -0.00000000000E+00 -0.00000000000E+00 -0.35740347158E-01  0.35744000000E-01  0.51099999109E-03 0.  1.
       22    1    1    2    0    0 -0.20558807874E-02  0.18880727892E-01 -0.19437937727E-01  0.27176128396E-01  0.00000000000E+00 0.  1.
  9000001    1    1    2    0    0  0.20558807874E-02 -0.18880727892E-01  0.19437937727E-01  0.44311871604E-01  0.35000000149E-01 0. -1.
</event>
<event>
 4   0  0.4334200E-01  0.9118800E+02  0.7818609E-02  0.1379984E+01
      -11   -1    0    0    0    0  0.00000000000E+00  0.00000000000E+00  0.35740347158E-01  0.35744000000E-01  0.51099999109E-03 0.  1.
       11   -1    0    0    0    0 -0.00000000000E+00 -0.00000000000E+00 -0.35740347158E-01  0.35744000000E-01  0.51099999109E-03 0. -1.
       22    1    1    2    0    0  0.14845708050E-01 -0.16422003869E-01 -0.15762762957E-01  0.27176128396E-01  0.00000000000E+00 0. -1.
  9000001    1    1    2    0    0 -0.14845708050E-01  0.16422003869E-01  0.15762762957E-01  0.44311871604E-01  0.35000000149E-01 0.  1.
</event>
<event>
 4   0  0.4334200E-01  0.9118800E+02  0.7818609E-02  0.1379984E+01
      -11   -1    0    0    0    0  0.00000000000E+00  0.00000000000E+00  0.35740347158E-01  0.35744000000E-01  0.51099999109E-03 0.  1.
       11   -1    0    0    0    0 -0.00000000000E+00 -0.00000000000E+00 -0.35740347158E-01  0.35744000000E-01  0.51099999109E-03 0. -1.
       22    1    1    2    0    0 -0.25689261148E-01  0.69901871297E-02  0.54535401512E-02  0.27176128396E-01  0.00000000000E+00 0. -1.
  9000001    1    1    2    0    0  0.25689261148E-01 -0.69901871297E-02 -0.54535401512E-02  0.44311871604E-01  0.35000000149E-01 0.  1.
</event>
<event>
 4   0  0.4334200E-01  0.9118800E+02  0.7818609E-02  0.1379984E+01
      -11   -1    0    0    0    0  0.00000000000E+00  0.00000000000E+00  0.35740347158E-01  0.35744000000E-01  0.51099999109E-03 0. -1.
       11   -1    0    0    0    0 -0.00000000000E+00 -0.00000000000E+00 -0.35740347158E-01  0.35744000000E-01  0.51099999109E-03 0.  1.
       22    1    1    2    0    0 -0.14926926727E-01  0.40868072320E-02  0.22338908204E-01  0.27176128396E-01  0.00000000000E+00 0. -1.
  9000001    1    1    2    0    0  0.14926926727E-01 -0.40868072320E-02 -0.22338908204E-01  0.44311871604E-01  0.35000000149E-01 0.  1.
</event>
<event>
 4   0  0.4334200E-01  0.9118800E+02  0.7818609E-02  0.1379984E+01
      -11   -1    0    0    0    0  0.00000000000E+00  0.00000000000E+00  0.35740347158E-01  0.35744000000E-01  0.51099999109E-03 0.  1.
       11   -1    0    0    0    0 -0.00000000000E+00 -0.00000000000E+00 -0.35740347158E-01  0.35744000000E-01  0.51099999109E-03 0. -1.
       22    1    1    2    0    0  0.10852111005E-02  0.40322782509E-02 -0.26853398362E-01  0.27176128396E-01  0.00000000000E+00 0. -1.
  9000001    1    1    2    0    0 -0.10852111005E-02 -0.40322782509E-02  0.26853398362E-01  0.44311871604E-01  0.35000000149E-01 0.  1.
</event>
<event>
 4   0  0.4334200E-01  0.9118800E+02  0.7818609E-02  0.1379984E+01
      -11   -1    0    0    0    0  0.00000000000E+00  0.00000000000E+00  0.35740347158E-01  0.35744000000E-01  0.51099999109E-03 0. -1.
       11   -1    0    0    0    0 -0.00000000000E+00 -0.00000000000E+00 -0.35740347158E-01  0.35744000000E-01  0.51099999109E-03 0.  1.
       22    1    1    2    0    0  0.27648354694E-02  0.18470570288E-02 -0.26971948757E-01  0.27176128396E-01  0.00000000000E+00 0.  1.
  9000001    1    1    2    0    0 -0.27648354694E-02 -0.18470570288E-02  0.26971948757E-01  0.44311871604E-01  0.35000000149E-01 0. -1.
</event>
<event>
 4   0  0.4334200E-01  0.9118800E+02  0.7818609E-02  0.1379984E+01
      -11   -1    0    0    0    0  0.00000000000E+00  0.00000000000E+00  0.35740347158E-01  0.35744000000E-01  0.51099999109E-03 0.  1.
       11   -1    0    0    0    0 -0.00000000000E+00 -0.00000000000E+00 -0.35740347158E-01  0.35744000000E-01  0.51099999109E-03 0. -1.
       22    1    1    2    0    0 -0.51412050075E-02  0.84818005111E-02  0.25301561726E-01  0.27176128396E-01  0.00000000000E+00 0.  1.
  9000001    1    1    2    0    0  0.51412050075E-02 -0.84818005111E-02 -0.25301561726E-01  0.44311871604E-01  0.35000000149E-01 0. -1.
</event>
<event>
 4   0  0.4334200E-01  0.9118800E+02  0.7818609E-02  0.1379984E+01
      -11   -1    0    0    0    0  0.00000000000E+00  0.00000000000E+00  0.35740347158E-01  0.35744000000E-01  0.51099999109E-03 0.  1.
       11   -1    0    0    0    0 -0.00000000000E+00 -0.00000000000E+00 -0.35740347158E-01  0.35744000000E-01  0.51099999109E-03 0. -1.
       22    1    1    2    0    0  0.27432170789E-02  0.19186033018E-02  0.26969161575E-01  0.27176128396E-01  0.00000000000E+00 0.  1.
  9000001    1    1    2    0    0 -0.27432170789E-02 -0.19186033018E-02 -0.26969161575E-01  0.44311871604E-01  0.35000000149E-01 0. -1.
</event>
<event>
 4   0  0.4334200E-01  0.9118800E+02  0.7818609E-02  0.1379984E+01
      -11   -1    0    0    0    0  0.00000000000E+00  0.00000000000E+00  0.35740347158E-01  0.35744000000E-01  0.51099999109E-03 0. -1.
       11   -1    0    0    0    0 -0.00000000000E+00 -0.00000000000E+00 -0.35740347158E-01  0.35744000000E-01  0.51099999109E-03 0.  1.
       22    1    1    2    0    0  0.48733966372E-03  0.36037550545E-02 -0.26931717438E-01  0.27176128396E-01  0.00000000000E+00 0.  1.
  9000001    1    1    2    0    0 -0.48733966372E-03 -0.36037550545E-02  0.26931717438E-01  0.44311871604E-01  0.35000000149E-01 0. -1.
</event>
<event>
 4   0  0.4334200E-01  0.9118800E+02  0.7818609E-02  0.1379984E+01
      -11   -1    0    0    0    0  0.00000000000E+00  0.00000000000E+00  0.35740347158E-01  0.35744000000E-01  0.51099999109E-03 0.  1.
       11   -1    0    0    0    0 -0.00000000000E+00 -0.00000000000E+00 -0.35740347158E-01  0.35744000000E-01  0.51099999109E-03 0. -1.
       22    1    1    2    0    0 -0.13260872808E-01 -0.12744897698E-01  0.20006468695E-01  0.27176128396E-01  0.00000000000E+00 0.  1.
  9000001    1    1    2    0    0  0.13260872808E-01  0.12744897698E-01 -0.20006468695E-01  0.44311871604E-01  0.35000000149E-01 0. -1.
</event>
<event>
 4   0  0.4334200E-01  0.9118800E+02  0.7818609E-02  0.1379984E+01
      -11   -1    0    0    0    0  0.00000000000E+00  0.00000000000E+00  0.35740347158E-01  0.35744000000E-01  0.51099999109E-03 0. -1.
       11   -1    0    0    0    0 -0.00000000000E+00 -0.00000000000E+00 -0.35740347158E-01  0.35744000000E-01  0.51099999109E-03 0.  1.
       22    1    1    2    0    0 -0.20927242150E-01 -0.12390277326E-01  0.12127387121E-01  0.27176128396E-01  0.00000000000E+00 0.  1.
  9000001    1    1    2    0    0  0.20927242150E-01  0.12390277326E-01 -0.12127387121E-01  0.44311871604E-01  0.35000000149E-01 0.  0.
</event>
<event>
 4   0  0.4334200E-01  0.9118800E+02  0.7818609E-02  0.1379984E+01
      -11   -1    0    0    0    0  0.00000000000E+00  0.00000000000E+00  0.35740347158E-01  0.35744000000E-01  0.51099999109E-03 0.  1.
       11   -1    0    0    0    0 -0.00000000000E+00 -0.00000000000E+00 -0.35740347158E-01  0.35744000000E-01  0.51099999109E-03 0. -1.
       22    1    1    2    0    0  0.57932826348E-02  0.21187279312E-02  0.26466787166E-01  0.27176128396E-01  0.00000000000E+00 0.  1.
  9000001    1    1    2    0    0 -0.57932826348E-02 -0.21187279312E-02 -0.26466787166E-01  0.44311871604E-01  0.35000000149E-01 0. -1.
</event>
<event>
 4   0  0.4334200E-01  0.9118800E+02  0.7818609E-02  0.1379984E+01
      -11   -1    0    0    0    0  0.00000000000E+00  0.00000000000E+00  0.35740347158E-01  0.35744000000E-01  0.51099999109E-03 0.  1.
       11   -1    0    0    0    0 -0.00000000000E+00 -0.00000000000E+00 -0.35740347158E-01  0.35744000000E-01  0.51099999109E-03 0. -1.
       22    1    1    2    0    0  0.82314705730E-02  0.25324875372E-01 -0.54254524427E-02  0.27176128396E-01  0.00000000000E+00 0.  1.
  9000001    1    1    2    0    0 -0.82314705730E-02 -0.25324875372E-01  0.54254524427E-02  0.44311871604E-01  0.35000000149E-01 0. -1.
</event>
<event>
 4   0  0.4334200E-01  0.9118800E+02  0.7818609E-02  0.1379984E+01
      -11   -1    0    0    0    0  0.00000000000E+00  0.00000000000E+00  0.35740347158E-01  0.35744000000E-01  0.51099999109E-03 0. -1.
       11   -1    0    0    0    0 -0.00000000000E+00 -0.00000000000E+00 -0.35740347158E-01  0.35744000000E-01  0.51099999109E-03 0.  1.
       22    1    1    2    0    0  0.18901288043E-02  0.26271631539E-02  0.26982723759E-01  0.27176128396E-01  0.00000000000E+00 0. -1.
  9000001    1    1    2    0    0 -0.18901288043E-02 -0.26271631539E-02 -0.26982723759E-01  0.44311871604E-01  0.35000000149E-01 0.  1.
</event>
<event>
 4   0  0.4334200E-01  0.9118800E+02  0.7818609E-02  0.1379984E+01
      -11   -1    0    0    0    0  0.00000000000E+00  0.00000000000E+00  0.35740347158E-01  0.35744000000E-01  0.51099999109E-03 0.  1.
       11   -1    0    0    0    0 -0.00000000000E+00 -0.00000000000E+00 -0.35740347158E-01  0.35744000000E-01  0.51099999109E-03 0. -1.
       22    1    1    2    0    0 -0.95464739288E-02  0.58723226969E-02 -0.24757274007E-01  0.27176128396E-01  0.00000000000E+00 0. -1.
  9000001    1    1    2    0    0  0.95464739288E-02 -0.58723226969E-02  0.24757274007E-01  0.44311871604E-01  0.35000000149E-01 0.  1.
</event>
<event>
 4   0  0.4334200E-01  0.9118800E+02  0.7818609E-02  0.1379984E+01
      -11   -1    0    0    0    0  0.00000000000E+00  0.00000000000E+00  0.35740347158E-01  0.35744000000E-01  0.51099999109E-03 0. -1.
       11   -1    0    0    0    0 -0.00000000000E+00 -0.00000000000E+00 -0.35740347158E-01  0.35744000000E-01  0.51099999109E-03 0.  1.
       22    1    1    2    0    0 -0.51550589104E-02  0.24485029762E-01  0.10604274599E-01  0.27176128396E-01  0.00000000000E+00 0. -1.
  9000001    1    1    2    0    0  0.51550589104E-02 -0.24485029762E-01 -0.10604274599E-01  0.44311871604E-01  0.35000000149E-01 0.  1.
</event>
<event>
 4   0  0.4334200E-01  0.9118800E+02  0.7818609E-02  0.1379984E+01
      -11   -1    0    0    0    0  0.00000000000E+00  0.00000000000E+00  0.35740347158E-01  0.35744000000E-01  0.51099999109E-03 0. -1.
       11   -1    0    0    0    0 -0.00000000000E+00 -0.00000000000E+00 -0.35740347158E-01  0.35744000000E-01  0.51099999109E-03 0.  1.
       22    1    1    2    0    0 -0.23481618999E-02 -0.97004833627E-02  0.25277039242E-01  0.27176128396E-01  0.00000000000E+00 0. -1.
  9000001    1    1    2    0    0  0.23481618999E-02  0.97004833627E-02 -0.25277039242E-01  0.44311871604E-01  0.35000000149E-01 0.  1.
</event>
<event>
 4   0  0.4334200E-01  0.9118800E+02  0.7818609E-02  0.1379984E+01
      -11   -1    0    0    0    0  0.00000000000E+00  0.00000000000E+00  0.35740347158E-01  0.35744000000E-01  0.51099999109E-03 0.  1.
       11   -1    0    0    0    0 -0.00000000000E+00 -0.00000000000E+00 -0.35740347158E-01  0.35744000000E-01  0.51099999109E-03 0. -1.
       22    1    1    2    0    0  0.26357556698E-02 -0.14554984668E-01  0.22797964119E-01  0.27176128396E-01  0.00000000000E+00 0.  1.
  9000001    1    1    2    0    0 -0.26357556698E-02  0.14554984668E-01 -0.22797964119E-01  0.44311871604E-01  0.35000000149E-01 0. -1.
</event>
<event>
 4   0  0.4334200E-01  0.9118800E+02  0.7818609E-02  0.1379984E+01
      -11   -1    0    0    0    0  0.00000000000E+00  0.00000000000E+00  0.35740347158E-01  0.35744000000E-01  0.51099999109E-03 0.  1.
       11   -1    0    0    0    0 -0.00000000000E+00 -0.00000000000E+00 -0.35740347158E-01  0.35744000000E-01  0.51099999109E-03 0. -1.
       22    1    1    2    0    0 -0.78547157009E-02  0.25626895168E-02 -0.25889728046E-01  0.27176128396E-01  0.00000000000E+00 0. -1.
  9000001    1    1    2    0    0  0.78547157009E-02 -0.25626895168E-02  0.25889728046E-01  0.44311871604E-01  0.35000000149E-01 0.  1.
</event>
<event>
 4   0  0.4334200E-01  0.9118800E+02  0.7818609E-02  0.1379984E+01
      -11   -1    0    0    0    0  0.00000000000E+00  0.00000000000E+00  0.35740347158E-01  0.35744000000E-01  0.51099999109E-03 0.  1.
       11   -1    0    0    0    0 -0.00000000000E+00 -0.00000000000E+00 -0.35740347158E-01  0.35744000000E-01  0.51099999109E-03 0. -1.
       22    1    1    2    0    0  0.75483008410E-02 -0.24875397589E-01  0.79233644241E-02  0.27176128396E-01  0.00000000000E+00 0. -1.
  9000001    1    1    2    0    0 -0.75483008410E-02  0.24875397589E-01 -0.79233644241E-02  0.44311871604E-01  0.35000000149E-01 0.  1.
</event>
<event>
 4   0  0.4334200E-01  0.9118800E+02  0.7818609E-02  0.1379984E+01
      -11   -1    0    0    0    0  0.00000000000E+00  0.00000000000E+00  0.35740347158E-01  0.35744000000E-01  0.51099999109E-03 0.  1.
       11   -1    0    0    0    0 -0.00000000000E+00 -0.00000000000E+00 -0.35740347158E-01  0.35744000000E-01  0.51099999109E-03 0. -1.
       22    1    1    2    0    0 -0.40366059840E-02  0.83953088895E-02  0.25529719062E-01  0.27176128396E-01  0.00000000000E+00 0. -1.
  9000001    1    1    2    0    0  0.40366059840E-02 -0.83953088895E-02 -0.25529719062E-01  0.44311871604E-01  0.35000000149E-01 0.  0.
</event>
<event>
 4   0  0.4334200E-01  0.9118800E+02  0.7818609E-02  0.1379984E+01
      -11   -1    0    0    0    0  0.00000000000E+00  0.00000000000E+00  0.35740347158E-01  0.35744000000E-01  0.51099999109E-03 0.  1.
       11   -1    0    0    0    0 -0.00000000000E+00 -0.00000000000E+00 -0.35740347158E-01  0.35744000000E-01  0.51099999109E-03 0. -1.
       22    1    1    2    0    0 -0.17135624935E-01  0.16238892080E-01 -0.13461452252E-01  0.27176128396E-01  0.00000000000E+00 0. -1.
  9000001    1    1    2    0    0  0.17135624935E-01 -0.16238892080E-01  0.13461452252E-01  0.44311871604E-01  0.35000000149E-01 0.  1.
</event>
<event>
 4   0  0.4334200E-01  0.9118800E+02  0.7818609E-02  0.1379984E+01
      -11   -1    0    0    0    0  0.00000000000E+00  0.00000000000E+00  0.35740347158E-01  0.35744000000E-01  0.51099999109E-03 0. -1.
       11   -1    0    0    0    0 -0.00000000000E+00 -0.00000000000E+00 -0.35740347158E-01  0.35744000000E-01  0.51099999109E-03 0.  1.
       22    1    1    2    0    0  0.53571015006E-02 -0.24541280530E-01  0.10371546078E-01  0.27176128396E-01  0.00000000000E+00 0. -1.
  9000001    1    1    2    0    0 -0.53571015006E-02  0.24541280530E-01 -0.10371546078E-01  0.44311871604E-01  0.35000000149E-01 0.  1.
</event>
<event>
 4   0  0.4334200E-01  0.9118800E+02  0.7818609E-02  0.1379984E+01
      -11   -1    0    0    0    0  0.00000000000E+00  0.00000000000E+00  0.35740347158E-01  0.35744000000E-01  0.51099999109E-03 0.  1.
       11   -1    0    0    0    0 -0.00000000000E+00 -0.00000000000E+00 -0.35740347158E-01  0.35744000000E-01  0.51099999109E-03 0. -1.
       22    1    1    2    0    0 -0.39581625798E-02  0.26505676498E-02 -0.26755361981E-01  0.27176128396E-01  0.00000000000E+00 0. -1.
  9000001    1    1    2    0    0  0.39581625798E-02 -0.26505676498E-02  0.26755361981E-01  0.44311871604E-01  0.35000000149E-01 0.  1.
</event>
<event>
 4   0  0.4334200E-01  0.9118800E+02  0.7818609E-02  0.1379984E+01
      -11   -1    0    0    0    0  0.00000000000E+00  0.00000000000E+00  0.35740347158E-01  0.35744000000E-01  0.51099999109E-03 0.  1.
       11   -1    0    0    0    0 -0.00000000000E+00 -0.00000000000E+00 -0.35740347158E-01  0.35744000000E-01  0.51099999109E-03 0. -1.
       22    1    1    2    0    0 -0.64947082022E-04 -0.43166732385E-02 -0.26831028095E-01  0.27176128396E-01  0.00000000000E+00 0. -1.
  9000001    1    1    2    0    0  0.64947082022E-04  0.43166732385E-02  0.26831028095E-01  0.44311871604E-01  0.35000000149E-01 0.  1.
</event>
<event>
 4   0  0.4334200E-01  0.9118800E+02  0.7818609E-02  0.1379984E+01
      -11   -1    0    0    0    0  0.00000000000E+00  0.00000000000E+00  0.35740347158E-01  0.35744000000E-01  0.51099999109E-03 0.  1.
       11   -1    0    0    0    0 -0.00000000000E+00 -0.00000000000E+00 -0.35740347158E-01  0.35744000000E-01  0.51099999109E-03 0. -1.
       22    1    1    2    0    0 -0.38061660807E-02 -0.84461016587E-02  0.25548354568E-01  0.27176128396E-01  0.00000000000E+00 0.  1.
  9000001    1    1    2    0    0  0.38061660807E-02  0.84461016587E-02 -0.25548354568E-01  0.44311871604E-01  0.35000000149E-01 0. -1.
</event>
<event>
 4   0  0.4334200E-01  0.9118800E+02  0.7818609E-02  0.1379984E+01
      -11   -1    0    0    0    0  0.00000000000E+00  0.00000000000E+00  0.35740347158E-01  0.35744000000E-01  0.51099999109E-03 0. -1.
       11   -1    0    0    0    0 -0.00000000000E+00 -0.00000000000E+00 -0.35740347158E-01  0.35744000000E-01  0.51099999109E-03 0.  1.
       22    1    1    2    0    0  0.19817746131E-02  0.20816929186E-01 -0.17357130617E-01  0.27176128396E-01  0.00000000000E+00 0.  1.
  9000001    1    1    2    0    0 -0.19817746131E-02 -0.20816929186E-01  0.17357130617E-01  0.44311871604E-01  0.35000000149E-01 0. -1.
</event>
<event>
 4   0  0.4334200E-01  0.9118800E+02  0.7818609E-02  0.1379984E+01
      -11   -1    0    0    0    0  0.00000000000E+00  0.00000000000E+00  0.35740347158E-01  0.35744000000E-01  0.51099999109E-03 0.  1.
       11   -1    0    0    0    0 -0.00000000000E+00 -0.00000000000E+00 -0.35740347158E-01  0.35744000000E-01  0.51099999109E-03 0. -1.
       22    1    1    2    0    0 -0.14455972535E-02 -0.93369413655E-02 -0.25480850243E-01  0.27176128396E-01  0.00000000000E+00 0. -1.
  9000001    1    1    2    0    0  0.14455972535E-02  0.93369413655E-02  0.25480850243E-01  0.44311871604E-01  0.35000000149E-01 0.  1.
</event>
<event>
 4   0  0.4334200E-01  0.9118800E+02  0.7818609E-02  0.1379984E+01
      -11   -1    0    0    0    0  0.00000000000E+00  0.00000000000E+00  0.35740347158E-01  0.35744000000E-01  0.51099999109E-03 0.  1.
       11   -1    0    0    0    0 -0.00000000000E+00 -0.00000000000E+00 -0.35740347158E-01  0.35744000000E-01  0.51099999109E-03 0. -1.
       22    1    1    2    0    0  0.19752170470E-02  0.72121542173E-02  0.26127099031E-01  0.27176128396E-01  0.00000000000E+00 0.  1.
  9000001    1    1    2    0    0 -0.19752170470E-02 -0.72121542173E-02 -0.26127099031E-01  0.44311871604E-01  0.35000000149E-01 0. -1.
</event>
<event>
 4   0  0.4334200E-01  0.9118800E+02  0.7818609E-02  0.1379984E+01
      -11   -1    0    0    0    0  0.00000000000E+00  0.00000000000E+00  0.35740347158E-01  0.35744000000E-01  0.51099999109E-03 0. -1.
       11   -1    0    0    0    0 -0.00000000000E+00 -0.00000000000E+00 -0.35740347158E-01  0.35744000000E-01  0.51099999109E-03 0.  1.
       22    1    1    2    0    0 -0.38676923267E-02 -0.20767540351E-03  0.26898694794E-01  0.27176128396E-01  0.00000000000E+00 0. -1.
  9000001    1    1    2    0    0  0.38676923267E-02  0.20767540351E-03 -0.26898694794E-01  0.44311871604E-01  0.35000000149E-01 0.  1.
</event>
<event>
 4   0  0.4334200E-01  0.9118800E+02  0.7818609E-02  0.1379984E+01
      -11   -1    0    0    0    0  0.00000000000E+00  0.00000000000E+00  0.35740347158E-01  0.35744000000E-01  0.51099999109E-03 0. -1.
       11   -1    0    0    0    0 -0.00000000000E+00 -0.00000000000E+00 -0.35740347158E-01  0.35744000000E-01  0.51099999109E-03 0.  1.
       22    1    1    2    0    0  0.49911363400E-02  0.21106904140E-02 -0.26630349202E-01  0.27176128396E-01  0.00000000000E+00 0.  1.
  9000001    1    1    2    0    0 -0.49911363400E-02 -0.21106904140E-02  0.26630349202E-01  0.44311871604E-01  0.35000000149E-01 0. -1.
</event>
<event>
 4   0  0.4334200E-01  0.9118800E+02  0.7818609E-02  0.1379984E+01
      -11   -1    0    0    0    0  0.00000000000E+00  0.00000000000E+00  0.35740347158E-01  0.35744000000E-01  0.51099999109E-03 0. -1.
       11   -1    0    0    0    0 -0.00000000000E+00 -0.00000000000E+00 -0.35740347158E-01  0.35744000000E-01  0.51099999109E-03 0.  1.
       22    1    1    2    0    0 -0.14277938294E-01  0.77152906004E-02  0.21798089908E-01  0.27176128396E-01  0.00000000000E+00 0. -1.
  9000001    1    1    2    0    0  0.14277938294E-01 -0.77152906004E-02 -0.21798089908E-01  0.44311871604E-01  0.35000000149E-01 0.  1.
</event>
<event>
 4   0  0.4334200E-01  0.9118800E+02  0.7818609E-02  0.1379984E+01
      -11   -1    0    0    0    0  0.00000000000E+00  0.00000000000E+00  0.35740347158E-01  0.35744000000E-01  0.51099999109E-03 0. -1.
       11   -1    0    0    0    0 -0.00000000000E+00 -0.00000000000E+00 -0.35740347158E-01  0.35744000000E-01  0.51099999109E-03 0.  1.
       22    1    1    2    0    0  0.65649060869E-02 -0.53447515694E-02 -0.25823973229E-01  0.27176128396E-01  0.00000000000E+00 0.  1.
  9000001    1    1    2    0    0 -0.65649060869E-02  0.53447515694E-02  0.25823973229E-01  0.44311871604E-01  0.35000000149E-01 0. -1.
</event>
<event>
 4   0  0.4334200E-01  0.9118800E+02  0.7818609E-02  0.1379984E+01
      -11   -1    0    0    0    0  0.00000000000E+00  0.00000000000E+00  0.35740347158E-01  0.35744000000E-01  0.51099999109E-03 0.  1.
       11   -1    0    0    0    0 -0.00000000000E+00 -0.00000000000E+00 -0.35740347158E-01  0.35744000000E-01  0.51099999109E-03 0. -1.
       22    1    1    2    0    0 -0.33712391691E-03 -0.44349003366E-02  0.26809699011E-01  0.27176128396E-01  0.00000000000E+00 0.  1.
  9000001    1    1    2    0    0  0.33712391691E-03  0.44349003366E-02 -0.26809699011E-01  0.44311871604E-01  0.35000000149E-01 0. -1.
</event>
<event>
 4   0  0.4334200E-01  0.9118800E+02  0.7818609E-02  0.1379984E+01
      -11   -1    0    0    0    0  0.00000000000E+00  0.00000000000E+00  0.35740347158E-01  0.35744000000E-01  0.51099999109E-03 0.  1.
       11   -1    0    0    0    0 -0.00000000000E+00 -0.00000000000E+00 -0.35740347158E-01  0.35744000000E-01  0.51099999109E-03 0. -1.
       22    1    1    2    0    0 -0.25153591080E-02  0.26963177400E-02  0.26924798863E-01  0.27176128396E-01  0.00000000000E+00 0.  1.
  9000001    1    1    2    0    0  0.25153591080E-02 -0.26963177400E-02 -0.26924798863E-01  0.44311871604E-01  0.35000000149E-01 0. -1.
</event>
<event>
 4   0  0.4334200E-01  0.9118800E+02  0.7818609E-02  0.1379984E+01
      -11   -1    0    0    0    0  0.00000000000E+00  0.00000000000E+00  0.35740347158E-01  0.35744000000E-01  0.51099999109E-03 0.  1.
       11   -1    0    0    0    0 -0.00000000000E+00 -0.00000000000E+00 -0.35740347158E-01  0.35744000000E-01  0.51099999109E-03 0. -1.
       22    1    1    2    0    0 -0.16578955355E-01  0.34450127673E-02  0.21255871682E-01  0.27176128396E-01  0.00000000000E+00 0.  1.
  9000001    1    1    2    0    0  0.16578955355E-01 -0.34450127673E-02 -0.21255871682E-01  0.44311871604E-01  0.35000000149E-01 0. -1.
</event>
<event>
 4   0  0.4334200E-01  0.9118800E+02  0.7818609E-02  0.1379984E+01
      -11   -1    0    0    0    0  0.00000000000E+00  0.00000000000E+00  0.35740347158E-01  0.35744000000E-01  0.51099999109E-03 0. -1.
       11   -1    0    0    0    0 -0.00000000000E+00 -0.00000000000E+00 -0.35740347158E-01  0.35744000000E-01  0.51099999109E-03 0.  1.
       22    1    1    2    0    0 -0.77261916851E-02 -0.61091816902E-02 -0.25328359910E-01  0.27176128396E-01  0.00000000000E+00 0.  1.
  9000001    1    1    2    0    0  0.77261916851E-02  0.61091816902E-02  0.25328359910E-01  0.44311871604E-01  0.35000000149E-01 0. -1.
</event>
<event>
 4   0  0.4334200E-01  0.9118800E+02  0.7818609E-02  0.1379984E+01
      -11   -1    0    0    0    0  0.00000000000E+00  0.00000000000E+00  0.35740347158E-01  0.35744000000E-01  0.51099999109E-03 0. -1.
       11   -1    0    0    0    0 -0.00000000000E+00 -0.00000000000E+00 -0.35740347158E-01  0.35744000000E-01  0.51099999109E-03 0.  1.
       22    1    1    2    0    0 -0.78937469569E-03  0.31046498395E-02 -0.26986663217E-01  0.27176128396E-01  0.00000000000E+00 0.  1.
  9000001    1    1    2    0    0  0.78937469569E-03 -0.31046498395E-02  0.26986663217E-01  0.44311871604E-01  0.35000000149E-01 0. -1.
</event>
<event>
 4   0  0.4334200E-01  0.9118800E+02  0.7818609E-02  0.1379984E+01
      -11   -1    0    0    0    0  0.00000000000E+00  0.00000000000E+00  0.35740347158E-01  0.35744000000E-01  0.51099999109E-03 0. -1.
       11   -1    0    0    0    0 -0.00000000000E+00 -0.00000000000E+00 -0.35740347158E-01  0.35744000000E-01  0.51099999109E-03 0.  1.
       22    1    1    2    0    0 -0.34343637014E-02  0.60939591839E-02  0.26260441010E-01  0.27176128396E-01  0.00000000000E+00 0. -1.
  9000001    1    1    2    0    0  0.34343637014E-02 -0.60939591839E-02 -0.26260441010E-01  0.44311871604E-01  0.35000000149E-01 0.  1.
</event>
<event>
 4   0  0.4334200E-01  0.9118800E+02  0.7818609E-02  0.1379984E+01
      -11   -1    0    0    0    0  0.00000000000E+00  0.00000000000E+00  0.35740347158E-01  0.35744000000E-01  0.51099999109E-03 0.  1.
       11   -1    0    0    0    0 -0.00000000000E+00 -0.00000000000E+00 -0.35740347158E-01  0.35744000000E-01  0.51099999109E-03 0. -1.
       22    1    1    2    0    0  0.25113778394E-01  0.52964313483E-02  0.89324075331E-02  0.27176128396E-01  0.00000000000E+00 0.  1.
  9000001    1    1    2    0    0 -0.25113778394E-01 -0.52964313483E-02 -0.89324075331E-02  0.44311871604E-01  0.35000000149E-01 0. -1.
</event>
<event>
 4   0  0.4334200E-01  0.9118800E+02  0.7818609E-02  0.1379984E+01
      -11   -1    0    0    0    0  0.00000000000E+00  0.00000000000E+00  0.35740347158E-01  0.35744000000E-01  0.51099999109E-03 0. -1.
       11   -1    0    0    0    0 -0.00000000000E+00 -0.00000000000E+00 -0.35740347158E-01  0.35744000000E-01  0.51099999109E-03 0.  1.
       22    1    1    2    0    0  0.33463179554E-02 -0.45704947207E-02  0.26579215352E-01  0.27176128396E-01  0.00000000000E+00 0. -1.
  9000001    1    1    2    0    0 -0.33463179554E-02  0.45704947207E-02 -0.26579215352E-01  0.44311871604E-01  0.35000000149E-01 0.  1.
</event>
<event>
 4   0  0.4334200E-01  0.9118800E+02  0.7818609E-02  0.1379984E+01
      -11   -1    0    0    0    0  0.00000000000E+00  0.00000000000E+00  0.35740347158E-01  0.35744000000E-01  0.51099999109E-03 0.  1.
       11   -1    0    0    0    0 -0.00000000000E+00 -0.00000000000E+00 -0.35740347158E-01  0.35744000000E-01  0.51099999109E-03 0. -1.
       22    1    1    2    0    0  0.20406343602E-01 -0.60083303813E-02  0.16912216337E-01  0.27176128396E-01  0.00000000000E+00 0. -1.
  9000001    1    1    2    0    0 -0.20406343602E-01  0.60083303813E-02 -0.16912216337E-01  0.44311871604E-01  0.35000000149E-01 0.  0.
</event>
<event>
 4   0  0.4334200E-01  0.9118800E+02  0.7818609E-02  0.1379984E+01
      -11   -1    0    0    0    0  0.00000000000E+00  0.00000000000E+00  0.35740347158E-01  0.35744000000E-01  0.51099999109E-03 0.  1.
       11   -1    0    0    0    0 -0.00000000000E+00 -0.00000000000E+00 -0.35740347158E-01  0.35744000000E-01  0.51099999109E-03 0. -1.
       22    1    1    2    0    0 -0.54823731057E-02 -0.52405623093E-03 -0.26612232240E-01  0.27176128396E-01  0.00000000000E+00 0. -1.
  9000001    1    1    2    0    0  0.54823731057E-02  0.52405623093E-03  0.26612232240E-01  0.44311871604E-01  0.35000000149E-01 0.  1.
</event>
<event>
 4   0  0.4334200E-01  0.9118800E+02  0.7818609E-02  0.1379984E+01
      -11   -1    0    0    0    0  0.00000000000E+00  0.00000000000E+00  0.35740347158E-01  0.35744000000E-01  0.51099999109E-03 0.  1.
       11   -1    0    0    0    0 -0.00000000000E+00 -0.00000000000E+00 -0.35740347158E-01  0.35744000000E-01  0.51099999109E-03 0. -1.
       22    1    1    2    0    0  0.11794511310E-01 -0.37489358019E-02  0.24194564222E-01  0.27176128396E-01  0.00000000000E+00 0.  1.
  9000001    1    1    2    0    0 -0.11794511310E-01  0.37489358019E-02 -0.24194564222E-01  0.44311871604E-01  0.35000000149E-01 0. -1.
</event>
<event>
 4   0  0.4334200E-01  0.9118800E+02  0.7818609E-02  0.1379984E+01
      -11   -1    0    0    0    0  0.00000000000E+00  0.00000000000E+00  0.35740347158E-01  0.35744000000E-01  0.51099999109E-03 0.  1.
       11   -1    0    0    0    0 -0.00000000000E+00 -0.00000000000E+00 -0.35740347158E-01  0.35744000000E-01  0.51099999109E-03 0. -1.
       22    1    1    2    0    0 -0.43926273784E-03 -0.63708202256E-02 -0.26415178449E-01  0.27176128396E-01  0.00000000000E+00 0. -1.
  9000001    1    1    2    0    0  0.43926273784E-03  0.63708202256E-02  0.26415178449E-01  0.44311871604E-01  0.35000000149E-01 0.  1.
</event>
<event>
 4   0  0.4334200E-01  0.9118800E+02  0.7818609E-02  0.1379984E+01
      -11   -1    0    0    0    0  0.00000000000E+00  0.00000000000E+00  0.35740347158E-01  0.35744000000E-01  0.51099999109E-03 0. -1.
       11   -1    0    0    0    0 -0.00000000000E+00 -0.00000000000E+00 -0.35740347158E-01  0.35744000000E-01  0.51099999109E-03 0.  1.
       22    1    1    2    0    0 -0.45169395871E-02 -0.25174078700E-01 -0.91872179141E-02  0.27176128396E-01  0.00000000000E+00 0. -1.
  9000001    1    1    2    0    0  0.45169395871E-02  0.25174078700E-01  0.91872179141E-02  0.44311871604E-01  0.35000000149E-01 0.  0.
</event>
<event>
 4   0  0.4334200E-01  0.9118800E+02  0.7818609E-02  0.1379984E+01
      -11   -1    0    0    0    0  0.00000000000E+00  0.00000000000E+00  0.35740347158E-01  0.35744000000E-01  0.51099999109E-03 0. -1.
       11   -1    0    0    0    0 -0.00000000000E+00 -0.00000000000E+00 -0.35740347158E-01  0.35744000000E-01  0.51099999109E-03 0.  1.
       22    1    1    2    0    0  0.41105795315E-02  0.12337169341E-02 -0.26835108218E-01  0.27176128396E-01  0.00000000000E+00 0.  1.
  9000001    1    1    2    0    0 -0.41105795315E-02 -0.12337169341E-02  0.26835108218E-01  0.44311871604E-01  0.35000000149E-01 0. -1.
</event>
<event>
 4   0  0.4334200E-01  0.9118800E+02  0.7818609E-02  0.1379984E+01
      -11   -1    0    0    0    0  0.00000000000E+00  0.00000000000E+00  0.35740347158E-01  0.35744000000E-01  0.51099999109E-03 0.  1.
       11   -1    0    0    0    0 -0.00000000000E+00 -0.00000000000E+00 -0.35740347158E-01  0.35744000000E-01  0.51099999109E-03 0. -1.
       22    1    1    2    0    0  0.19171126118E-01 -0.12111230179E-01  0.14977582633E-01  0.27176128396E-01  0.00000000000E+00 0.  1.
  9000001    1    1    2    0    0 -0.19171126118E-01  0.12111230179E-01 -0.14977582633E-01  0.44311871604E-01  0.35000000149E-01 0. -1.
</event>
<event>
 4   0  0.4334200E-01  0.9118800E+02  0.7818609E-02  0.1379984E+01
      -11   -1    0    0    0    0  0.00000000000E+00  0.00000000000E+00  0.35740347158E-01  0.35744000000E-01  0.51099999109E-03 0.  1.
       11   -1    0    0    0    0 -0.00000000000E+00 -0.00000000000E+00 -0.35740347158E-01  0.35744000000E-01  0.51099999109E-03 0. -1.
       22    1    1    2    0    0 -0.17066774913E-01  0.13916333592E-01 -0.15924911555E-01  0.27176128396E-01  0.00000000000E+00 0. -1.
  9000001    1    1    2    0    0  0.17066774913E-01 -0.13916333592E-01  0.15924911555E-01  0.44311871604E-01  0.35000000149E-01 0.  1.
</event>
<event>
 4   0  0.4334200E-01  0.9118800E+02  0.7818609E-02  0.1379984E+01
      -11   -1    0    0    0    0  0.00000000000E+00  0.00000000000E+00  0.35740347158E-01  0.35744000000E-01  0.51099999109E-03 0.  1.
       11   -1    0    0    0    0 -0.00000000000E+00 -0.00000000000E+00 -0.35740347158E-01  0.35744000000E-01  0.51099999109E-03 0. -1.
       22    1    1    2    0    0 -0.17949861273E-01 -0.18927293470E-01 -0.76224665796E-02  0.27176128396E-01  0.00000000000E+00 0. -1.
  9000001    1    1    2    0    0  0.17949861273E-01  0.18927293470E-01  0.76224665796E-02  0.44311871604E-01  0.35000000149E-01 0.  0.
</event>
<event>
 4   0  0.4334200E-01  0.9118800E+02  0.7818609E-02  0.1379984E+01
      -11   -1    0    0    0    0  0.00000000000E+00  0.00000000000E+00  0.35740347158E-01  0.35744000000E-01  0.51099999109E-03 0. -1.
       11   -1    0    0    0    0 -0.00000000000E+00 -0.00000000000E+00 -0.35740347158E-01  0.35744000000E-01  0.51099999109E-03 0.  1.
       22    1    1    2    0    0  0.30175977987E-02  0.25926267656E-02 -0.26883346975E-01  0.27176128396E-01  0.00000000000E+00 0.  1.
  9000001    1    1    2    0    0 -0.30175977987E-02 -0.25926267656E-02  0.26883346975E-01  0.44311871604E-01  0.35000000149E-01 0. -1.
</event>
<event>
 4   0  0.4334200E-01  0.9118800E+02  0.7818609E-02  0.1379984E+01
      -11   -1    0    0    0    0  0.00000000000E+00  0.00000000000E+00  0.35740347158E-01  0.35744000000E-01  0.51099999109E-03 0.  1.
       11   -1    0    0    0    0 -0.00000000000E+00 -0.00000000000E+00 -0.35740347158E-01  0.35744000000E-01  0.51099999109E-03 0. -1.
       22    1    1    2    0    0 -0.72199027409E-02  0.74163706407E-02  0.25127920836E-01  0.27176128396E-01  0.00000000000E+00 0.  1.
  9000001    1    1    2    0    0  0.72199027409E-02 -0.74163706407E-02 -0.25127920836E-01  0.44311871604E-01  0.35000000149E-01 0. -1.
</event>
<event>
 4   0  0.4334200E-01  0.9118800E+02  0.7818609E-02  0.1379984E+01
      -11   -1    0    0    0    0  0.00000000000E+00  0.00000000000E+00  0.35740347158E-01  0.35744000000E-01  0.51099999109E-03 0.  1.
       11   -1    0    0    0    0 -0.00000000000E+00 -0.00000000000E+00 -0.35740347158E-01  0.35744000000E-01  0.51099999109E-03 0. -1.
       22    1    1    2    0    0  0.22898753784E-02  0.21038680821E-02  0.26997632571E-01  0.27176128396E-01  0.00000000000E+00 0.  1.
  9000001    1    1    2    0    0 -0.22898753784E-02 -0.21038680821E-02 -0.26997632571E-01  0.44311871604E-01  0.35000000149E-01 0. -1.
</event>
<event>
 4   0  0.4334200E-01  0.9118800E+02  0.7818609E-02  0.1379984E+01
      -11   -1    0    0    0    0  0.00000000000E+00  0.00000000000E+00  0.35740347158E-01  0.35744000000E-01  0.51099999109E-03 0.  1.
       11   -1    0    0    0    0 -0.00000000000E+00 -0.00000000000E+00 -0.35740347158E-01  0.35744000000E-01  0.51099999109E-03 0. -1.
       22    1    1    2    0    0  0.78923822735E-02  0.16995739194E-02  0.25949252497E-01  0.27176128396E-01  0.00000000000E+00 0.  1.
  9000001    1    1    2    0    0 -0.78923822735E-02 -0.16995739194E-02 -0.25949252497E-01  0.44311871604E-01  0.35000000149E-01 0. -1.
</event>
<event>
 4   0  0.4334200E-01  0.9118800E+02  0.7818609E-02  0.1379984E+01
      -11   -1    0    0    0    0  0.00000000000E+00  0.00000000000E+00  0.35740347158E-01  0.35744000000E-01  0.51099999109E-03 0. -1.
       11   -1    0    0    0    0 -0.00000000000E+00 -0.00000000000E+00 -0.35740347158E-01  0.35744000000E-01  0.51099999109E-03 0.  1.
       22    1    1    2    0    0 -0.47438650352E-02 -0.25145873590E-01  0.91500131447E-02  0.27176128396E-01  0.00000000000E+00 0. -1.
  9000001    1    1    2    0    0  0.47438650352E-02  0.25145873590E-01 -0.91500131447E-02  0.44311871604E-01  0.35000000149E-01 0.  1.
</event>
<event>
 4   0  0.4334200E-01  0.9118800E+02  0.7818609E-02  0.1379984E+01
      -11   -1    0    0    0    0  0.00000000000E+00  0.00000000000E+00  0.35740347158E-01  0.35744000000E-01  0.51099999109E-03 0.  1.
       11   -1    0    0    0    0 -0.00000000000E+00 -0.00000000000E+00 -0.35740347158E-01  0.35744000000E-01  0.51099999109E-03 0. -1.
       22    1    1    2    0    0 -0.47483062675E-02 -0.50678401294E-02  0.26273799471E-01  0.27176128396E-01  0.00000000000E+00 0.  1.
  9000001    1    1    2    0    0  0.47483062675E-02  0.50678401294E-02 -0.26273799471E-01  0.44311871604E-01  0.35000000149E-01 0. -1.
</event>
<event>
 4   0  0.4334200E-01  0.9118800E+02  0.7818609E-02  0.1379984E+01
      -11   -1    0    0    0    0  0.00000000000E+00  0.00000000000E+00  0.35740347158E-01  0.35744000000E-01  0.51099999109E-03 0.  1.
       11   -1    0    0    0    0 -0.00000000000E+00 -0.00000000000E+00 -0.35740347158E-01  0.35744000000E-01  0.51099999109E-03 0. -1.
       22    1    1    2    0    0  0.11749297100E-01  0.18189262323E-01  0.16420922885E-01  0.27176128396E-01  0.00000000000E+00 0.  1.
  9000001    1    1    2    0    0 -0.11749297100E-01 -0.18189262323E-01 -0.16420922885E-01  0.44311871604E-01  0.35000000149E-01 0. -1.
</event>
<event>
 4   0  0.4334200E-01  0.9118800E+02  0.7818609E-02  0.1379984E+01
      -11   -1    0    0    0    0  0.00000000000E+00  0.00000000000E+00  0.35740347158E-01  0.35744000000E-01  0.51099999109E-03 0. -1.
       11   -1    0    0    0    0 -0.00000000000E+00 -0.00000000000E+00 -0.35740347158E-01  0.35744000000E-01  0.51099999109E-03 0.  1.
       22    1    1    2    0    0  0.30275122528E-02  0.67466651475E-02 -0.26150690881E-01  0.27176128396E-01  0.00000000000E+00 0.  1.
  9000001    1    1    2    0    0 -0.30275122528E-02 -0.67466651475E-02  0.26150690881E-01  0.44311871604E-01  0.35000000149E-01 0. -1.
</event>
<event>
 4   0  0.4334200E-01  0.9118800E+02  0.7818609E-02  0.1379984E+01
      -11   -1    0    0    0    0  0.00000000000E+00  0.00000000000E+00  0.35740347158E-01  0.35744000000E-01  0.51099999109E-03 0. -1.
       11   -1    0    0    0    0 -0.00000000000E+00 -0.00000000000E+00 -0.35740347158E-01  0.35744000000E-01  0.51099999109E-03 0.  1.
       22    1    1    2    0    0 -0.67695894913E-02 -0.33589172113E-03 -0.26317328692E-01  0.27176128396E-01  0.00000000000E+00 0.  1.
  9000001    1    1    2    0    0  0.67695894913E-02  0.33589172113E-03  0.26317328692E-01  0.44311871604E-01  0.35000000149E-01 0. -1.
</event>
<event>
 4   0  0.4334200E-01  0.9118800E+02  0.7818609E-02  0.1379984E+01
      -11   -1    0    0    0    0  0.00000000000E+00  0.00000000000E+00  0.35740347158E-01  0.35744000000E-01  0.51099999109E-03 0.  1.
       11   -1    0    0    0    0 -0.00000000000E+00 -0.00000000000E+00 -0.35740347158E-01  0.35744000000E-01  0.51099999109E-03 0. -1.
       22    1    1    2    0    0 -0.40943872170E-03  0.99978990233E-02  0.25266901861E-01  0.27176128396E-01  0.00000000000E+00 0.  1.
  9000001    1    1    2    0    0  0.40943872170E-03 -0.99978990233E-02 -0.25266901861E-01  0.44311871604E-01  0.35000000149E-01 0. -1.
</event>
<event>
 4   0  0.4334200E-01  0.9118800E+02  0.7818609E-02  0.1379984E+01
      -11   -1    0    0    0    0  0.00000000000E+00  0.00000000000E+00  0.35740347158E-01  0.35744000000E-01  0.51099999109E-03 0. -1.
       11   -1    0    0    0    0 -0.00000000000E+00 -0.00000000000E+00 -0.35740347158E-01  0.35744000000E-01  0.51099999109E-03 0.  1.
       22    1    1    2    0    0  0.29608700330E-02  0.25069786682E-02  0.26897774280E-01  0.27176128396E-01  0.00000000000E+00 0. -1.
  9000001    1    1    2    0    0 -0.29608700330E-02 -0.25069786682E-02 -0.26897774280E-01  0.44311871604E-01  0.35000000149E-01 0.  1.
</event>
<event>
 4   0  0.4334200E-01  0.9118800E+02  0.7818609E-02  0.1379984E+01
      -11   -1    0    0    0    0  0.00000000000E+00  0.00000000000E+00  0.35740347158E-01  0.35744000000E-01  0.51099999109E-03 0.  1.
       11   -1    0    0    0    0 -0.00000000000E+00 -0.00000000000E+00 -0.35740347158E-01  0.35744000000E-01  0.51099999109E-03 0. -1.
       22    1    1    2    0    0  0.35174805942E-02 -0.79404199744E-02 -0.25751097365E-01  0.27176128396E-01  0.00000000000E+00 0. -1.
  9000001    1    1    2    0    0 -0.35174805942E-02  0.79404199744E-02  0.25751097365E-01  0.44311871604E-01  0.35000000149E-01 0.  1.
</event>
<event>
 4   0  0.4334200E-01  0.9118800E+02  0.7818609E-02  0.1379984E+01
      -11   -1    0    0    0    0  0.00000000000E+00  0.00000000000E+00  0.35740347158E-01  0.35744000000E-01  0.51099999109E-03 0. -1.
       11   -1    0    0    0    0 -0.00000000000E+00 -0.00000000000E+00 -0.35740347158E-01  0.35744000000E-01  0.51099999109E-03 0.  1.
       22    1    1    2    0    0  0.32401912141E-02  0.77470613249E-02  0.25846201971E-01  0.27176128396E-01  0.00000000000E+00 0. -1.
  9000001    1    1    2    0    0 -0.32401912141E-02 -0.77470613249E-02 -0.25846201971E-01  0.44311871604E-01  0.35000000149E-01 0.  1.
</event>
<event>
 4   0  0.4334200E-01  0.9118800E+02  0.7818609E-02  0.1379984E+01
      -11   -1    0    0    0    0  0.00000000000E+00  0.00000000000E+00  0.35740347158E-01  0.35744000000E-01  0.51099999109E-03 0.  1.
       11   -1    0    0    0    0 -0.00000000000E+00 -0.00000000000E+00 -0.35740347158E-01  0.35744000000E-01  0.51099999109E-03 0. -1.
       22    1    1    2    0    0  0.21556203352E-01 -0.13195539212E-01  0.99874819939E-02  0.27176128396E-01  0.00000000000E+00 0. -1.
  9000001    1    1    2    0    0 -0.21556203352E-01  0.13195539212E-01 -0.99874819939E-02  0.44311871604E-01  0.35000000149E-01 0.  1.
</event>
<event>
 4   0  0.4334200E-01  0.9118800E+02  0.7818609E-02  0.1379984E+01
      -11   -1    0    0    0    0  0.00000000000E+00  0.00000000000E+00  0.35740347158E-01  0.35744000000E-01  0.51099999109E-03 0.  1.
       11   -1    0    0    0    0 -0.00000000000E+00 -0.00000000000E+00 -0.35740347158E-01  0.35744000000E-01  0.51099999109E-03 0. -1.
       22    1    1    2    0    0  0.85177680618E-02 -0.25654404137E-01  0.28002018176E-02  0.27176128396E-01  0.00000000000E+00 0. -1.
  9000001    1    1    2    0    0 -0.85177680618E-02  0.25654404137E-01 -0.28002018176E-02  0.44311871604E-01  0.35000000149E-01 0.  1.
</event>
<event>
 4   0  0.4334200E-01  0.9118800E+02  0.7818609E-02  0.1379984E+01
      -11   -1    0    0    0    0  0.00000000000E+00  0.00000000000E+00  0.35740347158E-01  0.35744000000E-01  0.51099999109E-03 0.  1.
       11   -1    0    0    0    0 -0.00000000000E+00 -0.00000000000E+00 -0.35740347158E-01  0.35744000000E-01  0.51099999109E-03 0. -1.
       22    1    1    2    0    0 -0.94076505428E-02  0.23797051350E-01  0.91508695173E-02  0.27176128396E-01  0.00000000000E+00 0.  1.
  9000001    1    1    2    0    0  0.94076505428E-02 -0.23797051350E-01 -0.91508695173E-02  0.44311871604E-01  0.35000000149E-01 0. -1.
</event>
<event>
 4   0  0.4334200E-01  0.9118800E+02  0.7818609E-02  0.1379984E+01
      -11   -1    0    0    0    0  0.00000000000E+00  0.00000000000E+00  0.35740347158E-01  0.35744000000E-01  0.51099999109E-03 0.  1.
       11   -1    0    0    0    0 -0.00000000000E+00 -0.00000000000E+00 -0.35740347158E-01  0.35744000000E-01  0.51099999109E-03 0. -1.
       22    1    1    2    0    0 -0.13627379665E-02 -0.44958516946E-02  0.26766998662E-01  0.27176128396E-01  0.00000000000E+00 0.  1.
  9000001    1    1    2    0    0  0.13627379665E-02  0.44958516946E-02 -0.26766998662E-01  0.44311871604E-01  0.35000000149E-01 0. -1.
</event>
<event>
 4   0  0.4334200E-01  0.9118800E+02  0.7818609E-02  0.1379984E+01
      -11   -1    0    0    0    0  0.00000000000E+00  0.00000000000E+00  0.35740347158E-01  0.35744000000E-01  0.51099999109E-03 0.  1.
       11   -1    0    0    0    0 -0.00000000000E+00 -0.00000000000E+00 -0.35740347158E-01  0.35744000000E-01  0.51099999109E-03 0. -1.
       22    1    1    2    0    0  0.24822671953E-01 -0.10449481101E-01  0.36311508399E-02  0.27176128396E-01  0.00000000000E+00 0.  1.
  9000001    1    1    2    0    0 -0.24822671953E-01  0.10449481101E-01 -0.36311508399E-02  0.44311871604E-01  0.35000000149E-01 0. -1.
</event>
<event>
 4   0  0.4334200E-01  0.9118800E+02  0.7818609E-02  0.1379984E+01
      -11   -1    0    0    0    0  0.00000000000E+00  0.00000000000E+00  0.35740347158E-01  0.35744000000E-01  0.51099999109E-03 0.  1.
       11   -1    0    0    0    0 -0.00000000000E+00 -0.00000000000E+00 -0.35740347158E-01  0.35744000000E-01  0.51099999109E-03 0. -1.
       22    1    1    2    0    0 -0.16102294340E-01 -0.20211708386E-01  0.84109996859E-02  0.27176128396E-01  0.00000000000E+00 0. -1.
  9000001    1    1    2    0    0  0.16102294340E-01  0.20211708386E-01 -0.84109996859E-02  0.44311871604E-01  0.35000000149E-01 0.  0.
</event>
<event>
 4   0  0.4334200E-01  0.9118800E+02  0.7818609E-02  0.1379984E+01
      -11   -1    0    0    0    0  0.00000000000E+00  0.00000000000E+00  0.35740347158E-01  0.35744000000E-01  0.51099999109E-03 0.  1.
       11   -1    0    0    0    0 -0.00000000000E+00 -0.00000000000E+00 -0.35740347158E-01  0.35744000000E-01  0.51099999109E-03 0. -1.
       22    1    1    2    0    0 -0.52566497276E-02 -0.10584134895E-01  0.24472140829E-01  0.27176128396E-01  0.00000000000E+00 0.  1.
  9000001    1    1    2    0    0  0.52566497276E-02  0.10584134895E-01 -0.24472140829E-01  0.44311871604E-01  0.35000000149E-01 0. -1.
</event>
<event>
 4   0  0.4334200E-01  0.9118800E+02  0.7818609E-02  0.1379984E+01
      -11   -1    0    0    0    0  0.00000000000E+00  0.00000000000E+00  0.35740347158E-01  0.35744000000E-01  0.51099999109E-03 0.  1.
       11   -1    0    0    0    0 -0.00000000000E+00 -0.00000000000E+00 -0.35740347158E-01  0.35744000000E-01  0.51099999109E-03 0. -1.
       22    1    1    2    0    0  0.49122310158E-03  0.31313740496E-02 -0.26990649326E-01  0.27176128396E-01  0.00000000000E+00 0. -1.
  9000001    1    1    2    0    0 -0.49122310158E-03 -0.31313740496E-02  0.26990649326E-01  0.44311871604E-01  0.35000000149E-01 0.  1.
</event>
<event>
 4   0  0.4334200E-01  0.9118800E+02  0.7818609E-02  0.1379984E+01
      -11   -1    0    0    0    0  0.00000000000E+00  0.00000000000E+00  0.35740347158E-01  0.35744000000E-01  0.51099999109E-03 0.  1.
       11   -1    0    0    0    0 -0.00000000000E+00 -0.00000000000E+00 -0.35740347158E-01  0.35744000000E-01  0.51099999109E-03 0. -1.
       22    1    1    2    0    0  0.15777785244E-01 -0.19286306991E-01 -0.10846280931E-01  0.27176128396E-01  0.00000000000E+00 0. -1.
  9000001    1    1    2    0    0 -0.15777785244E-01  0.19286306991E-01  0.10846280931E-01  0.44311871604E-01  0.35000000149E-01 0.  1.
</event>
<event>
 4   0  0.4334200E-01  0.9118800E+02  0.7818609E-02  0.1379984E+01
      -11   -1    0    0    0    0  0.00000000000E+00  0.00000000000E+00  0.35740347158E-01  0.35744000000E-01  0.51099999109E-03 0.  1.
       11   -1    0    0    0    0 -0.00000000000E+00 -0.00000000000E+00 -0.35740347158E-01  0.35744000000E-01  0.51099999109E-03 0. -1.
       22    1    1    2    0    0 -0.12165690203E-01 -0.11032334064E-01 -0.21652379582E-01  0.27176128396E-01  0.00000000000E+00 0. -1.
  9000001    1    1    2    0    0  0.12165690203E-01  0.11032334064E-01  0.21652379582E-01  0.44311871604E-01  0.35000000149E-01 0.  1.
</event>
<event>
 4   0  0.4334200E-01  0.9118800E+02  0.7818609E-02  0.1379984E+01
      -11   -1    0    0    0    0  0.00000000000E+00  0.00000000000E+00  0.35740347158E-01  0.35744000000E-01  0.51099999109E-03 0.  1.
       11   -1    0    0    0    0 -0.00000000000E+00 -0.00000000000E+00 -0.35740347158E-01  0.35744000000E-01  0.51099999109E-03 0. -1.
       22    1    1    2    0    0 -0.78046767206E-03 -0.91790788412E-02  0.25567114355E-01  0.27176128396E-01  0.00000000000E+00 0.  1.
  9000001    1    1    2    0    0  0.78046767206E-03  0.91790788412E-02 -0.25567114355E-01  0.44311871604E-01  0.35000000149E-01 0. -1.
</event>
<event>
 4   0  0.4334200E-01  0.9118800E+02  0.7818609E-02  0.1379984E+01
      -11   -1    0    0    0    0  0.00000000000E+00  0.00000000000E+00  0.35740347158E-01  0.35744000000E-01  0.51099999109E-03 0.  1.
       11   -1    0    0    0    0 -0.00000000000E+00 -0.00000000000E+00 -0.35740347158E-01  0.35744000000E-01  0.51099999109E-03 0. -1.
       22    1    1    2    0    0  0.57641913358E-02  0.18752596076E-02  0.26491497773E-01  0.27176128396E-01  0.00000000000E+00 0.  1.
  9000001    1    1    2    0    0 -0.57641913358E-02 -0.18752596076E-02 -0.26491497773E-01  0.44311871604E-01  0.35000000149E-01 0. -1.
</event>
<event>
 4   0  0.4334200E-01  0.9118800E+02  0.7818609E-02  0.1379984E+01
      -11   -1    0    0    0    0  0.00000000000E+00  0.00000000000E+00  0.35740347158E-01  0.35744000000E-01  0.51099999109E-03 0. -1.
       11   -1    0    0    0    0 -0.00000000000E+00 -0.00000000000E+00 -0.35740347158E-01  0.35744000000E-01  0.51099999109E-03 0.  1.
       22    1    1    2    0    0  0.38060544618E-02 -0.11389581481E-02 -0.26884171521E-01  0.27176128396E-01  0.00000000000E+00 0.  1.
  9000001    1    1    2    0    0 -0.38060544618E-02  0.11389581481E-02  0.26884171521E-01  0.44311871604E-01  0.35000000149E-01 0. -1.
</event>
<event>
 4   0  0.4334200E-01  0.9118800E+02  0.7818609E-02  0.1379984E+01
      -11   -1    0    0    0    0  0.00000000000E+00  0.00000000000E+00  0.35740347158E-01  0.35744000000E-01  0.51099999109E-03 0.  1.
       11   -1    0    0    0    0 -0.00000000000E+00 -0.00000000000E+00 -0.35740347158E-01  0.35744000000E-01  0.51099999109E-03 0. -1.
       22    1    1    2    0    0  0.22526182212E-01 -0.47254641420E-02 -0.14449327257E-01  0.27176128396E-01  0.00000000000E+00 0. -1.
  9000001    1    1    2    0    0 -0.22526182212E-01  0.47254641420E-02  0.14449327257E-01  0.44311871604E-01  0.35000000149E-01 0.  1.
</event>
<event>
 4   0  0.4334200E-01  0.9118800E+02  0.7818609E-02  0.1379984E+01
      -11   -1    0    0    0    0  0.00000000000E+00  0.00000000000E+00  0.35740347158E-01  0.35744000000E-01  0.51099999109E-03 0. -1.
       11   -1    0    0    0    0 -0.00000000000E+00 -0.00000000000E+00 -0.35740347158E-01  0.35744000000E-01  0.51099999109E-03 0.  1.
       22    1    1    2    0    0 -0.30957739083E-02 -0.98670556323E-02 -0.25131640449E-01  0.27176128396E-01  0.00000000000E+00 0.  1.
  9000001    1    1    2    0    0  0.30957739083E-02  0.98670556323E-02  0.25131640449E-01  0.44311871604E-01  0.35000000149E-01 0. -1.
</event>
<event>
 4   0  0.4334200E-01  0.9118800E+02  0.7818609E-02  0.1379984E+01
      -11   -1    0    0    0    0  0.00000000000E+00  0.00000000000E+00  0.35740347158E-01  0.35744000000E-01  0.51099999109E-03 0.  1.
       11   -1    0    0    0    0 -0.00000000000E+00 -0.00000000000E+00 -0.35740347158E-01  0.35744000000E-01  0.51099999109E-03 0. -1.
       22    1    1    2    0    0 -0.10585616126E-01 -0.49690651023E-02  0.24531511936E-01  0.27176128396E-01  0.00000000000E+00 0. -1.
  9000001    1    1    2    0    0  0.10585616126E-01  0.49690651023E-02 -0.24531511936E-01  0.44311871604E-01  0.35000000149E-01 0. -1.
</event>
<event>
 4   0  0.4334200E-01  0.9118800E+02  0.7818609E-02  0.1379984E+01
      -11   -1    0    0    0    0  0.00000000000E+00  0.00000000000E+00  0.35740347158E-01  0.35744000000E-01  0.51099999109E-03 0.  1.
       11   -1    0    0    0    0 -0.00000000000E+00 -0.00000000000E+00 -0.35740347158E-01  0.35744000000E-01  0.51099999109E-03 0. -1.
       22    1    1    2    0    0 -0.20415670833E-01 -0.12718761938E-01  0.12648139540E-01  0.27176128396E-01  0.00000000000E+00 0.  1.
  9000001    1    1    2    0    0  0.20415670833E-01  0.12718761938E-01 -0.12648139540E-01  0.44311871604E-01  0.35000000149E-01 0.  0.
</event>
<event>
 4   0  0.4334200E-01  0.9118800E+02  0.7818609E-02  0.1379984E+01
      -11   -1    0    0    0    0  0.00000000000E+00  0.00000000000E+00  0.35740347158E-01  0.35744000000E-01  0.51099999109E-03 0. -1.
       11   -1    0    0    0    0 -0.00000000000E+00 -0.00000000000E+00 -0.35740347158E-01  0.35744000000E-01  0.51099999109E-03 0.  1.
       22    1    1    2    0    0 -0.30460021692E-02  0.66301615466E-02  0.26178326594E-01  0.27176128396E-01  0.00000000000E+00 0. -1.
  9000001    1    1    2    0    0  0.30460021692E-02 -0.66301615466E-02 -0.26178326594E-01  0.44311871604E-01  0.35000000149E-01 0.  1.
</event>
<event>
 4   0  0.4334200E-01  0.9118800E+02  0.7818609E-02  0.1379984E+01
      -11   -1    0    0    0    0  0.00000000000E+00  0.00000000000E+00  0.35740347158E-01  0.35744000000E-01  0.51099999109E-03 0.  1.
       11   -1    0    0    0    0 -0.00000000000E+00 -0.00000000000E+00 -0.35740347158E-01  0.35744000000E-01  0.51099999109E-03 0. -1.
       22    1    1    2    0    0  0.20813221761E-02  0.51852567370E-02  0.26595547845E-01  0.27176128396E-01  0.00000000000E+00 0.  1.
  9000001    1    1    2    0    0 -0.20813221761E-02 -0.51852567370E-02 -0.26595547845E-01  0.44311871604E-01  0.35000000149E-01 0. -1.
</event>
<event>
 4   0  0.4334200E-01  0.9118800E+02  0.7818609E-02  0.1379984E+01
      -11   -1    0    0    0    0  0.00000000000E+00  0.00000000000E+00  0.35740347158E-01  0.35744000000E-01  0.51099999109E-03 0. -1.
       11   -1    0    0    0    0 -0.00000000000E+00 -0.00000000000E+00 -0.35740347158E-01  0.35744000000E-01  0.51099999109E-03 0.  1.
       22    1    1    2    0    0 -0.72938944335E-02  0.33972786482E-02  0.25957649285E-01  0.27176128396E-01  0.00000000000E+00 0.  1.
  9000001    1    1    2    0    0  0.72938944335E-02 -0.33972786482E-02 -0.25957649285E-01  0.44311871604E-01  0.35000000149E-01 0.  1.
</event>
<event>
 4   0  0.4334200E-01  0.9118800E+02  0.7818609E-02  0.1379984E+01
      -11   -1    0    0    0    0  0.00000000000E+00  0.00000000000E+00  0.35740347158E-01  0.35744000000E-01  0.51099999109E-03 0.  1.
       11   -1    0    0    0    0 -0.00000000000E+00 -0.00000000000E+00 -0.35740347158E-01  0.35744000000E-01  0.51099999109E-03 0. -1.
       22    1    1    2    0    0 -0.51221296603E-02  0.36136458388E-02 -0.26443284707E-01  0.27176128396E-01  0.00000000000E+00 0. -1.
  9000001    1    1    2    0    0  0.51221296603E-02 -0.36136458388E-02  0.26443284707E-01  0.44311871604E-01  0.35000000149E-01 0.  1.
</event>
<event>
 4   0  0.4334200E-01  0.9118800E+02  0.7818609E-02  0.1379984E+01
      -11   -1    0    0    0    0  0.00000000000E+00  0.00000000000E+00  0.35740347158E-01  0.35744000000E-01  0.51099999109E-03 0. -1.
       11   -1    0    0    0    0 -0.00000000000E+00 -0.00000000000E+00 -0.35740347158E-01  0.35744000000E-01  0.51099999109E-03 0.  1.
       22    1    1    2    0    0 -0.12016867951E-01  0.88722638225E-02  0.22702858276E-01  0.27176128396E-01  0.00000000000E+00 0. -1.
  9000001    1    1    2    0    0  0.12016867951E-01 -0.88722638225E-02 -0.22702858276E-01  0.44311871604E-01  0.35000000149E-01 0.  1.
</event>
<event>
 4   0  0.4334200E-01  0.9118800E+02  0.7818609E-02  0.1379984E+01
      -11   -1    0    0    0    0  0.00000000000E+00  0.00000000000E+00  0.35740347158E-01  0.35744000000E-01  0.51099999109E-03 0. -1.
       11   -1    0    0    0    0 -0.00000000000E+00 -0.00000000000E+00 -0.35740347158E-01  0.35744000000E-01  0.51099999109E-03 0.  1.
       22    1    1    2    0    0  0.58296837470E-02  0.39587943502E-02 -0.26246612911E-01  0.27176128396E-01  0.00000000000E+00 0.  1.
  9000001    1    1    2    0    0 -0.58296837470E-02 -0.39587943502E-02  0.26246612911E-01  0.44311871604E-01  0.35000000149E-01 0. -1.
</event>
<event>
 4   0  0.4334200E-01  0.9118800E+02  0.7818609E-02  0.1379984E+01
      -11   -1    0    0    0    0  0.00000000000E+00  0.00000000000E+00  0.35740347158E-01  0.35744000000E-01  0.51099999109E-03 0.  1.
       11   -1    0    0    0    0 -0.00000000000E+00 -0.00000000000E+00 -0.35740347158E-01  0.35744000000E-01  0.51099999109E-03 0. -1.
       22    1    1    2    0    0 -0.85450408377E-02 -0.20732484975E-01 -0.15352143122E-01  0.27176128396E-01  0.00000000000E+00 0. -1.
  9000001    1    1    2    0    0  0.85450408377E-02  0.20732484975E-01  0.15352143122E-01  0.44311871604E-01  0.35000000149E-01 0.  1.
</event>
<event>
 4   0  0.4334200E-01  0.9118800E+02  0.7818609E-02  0.1379984E+01
      -11   -1    0    0    0    0  0.00000000000E+00  0.00000000000E+00  0.35740347158E-01  0.35744000000E-01  0.51099999109E-03 0.  1.
       11   -1    0    0    0    0 -0.00000000000E+00 -0.00000000000E+00 -0.35740347158E-01  0.35744000000E-01  0.51099999109E-03 0. -1.
       22    1    1    2    0    0 -0.20413809923E-01 -0.13334337197E-01  0.12000573758E-01  0.27176128396E-01  0.00000000000E+00 0.  1.
  9000001    1    1    2    0    0  0.20413809923E-01  0.13334337197E-01 -0.12000573758E-01  0.44311871604E-01  0.35000000149E-01 0. -1.
</event>
<event>
 4   0  0.4334200E-01  0.9118800E+02  0.7818609E-02  0.1379984E+01
      -11   -1    0    0    0    0  0.00000000000E+00  0.00000000000E+00  0.35740347158E-01  0.35744000000E-01  0.51099999109E-03 0. -1.
       11   -1    0    0    0    0 -0.00000000000E+00 -0.00000000000E+00 -0.35740347158E-01  0.35744000000E-01  0.51099999109E-03 0.  1.
       22    1    1    2    0    0  0.62060005309E-03  0.33583841519E-02 -0.26960676291E-01  0.27176128396E-01  0.00000000000E+00 0.  1.
  9000001    1    1    2    0    0 -0.62060005309E-03 -0.33583841519E-02  0.26960676291E-01  0.44311871604E-01  0.35000000149E-01 0. -1.
</event>
<event>
 4   0  0.4334200E-01  0.9118800E+02  0.7818609E-02  0.1379984E+01
      -11   -1    0    0    0    0  0.00000000000E+00  0.00000000000E+00  0.35740347158E-01  0.35744000000E-01  0.51099999109E-03 0. -1.
       11   -1    0    0    0    0 -0.00000000000E+00 -0.00000000000E+00 -0.35740347158E-01  0.35744000000E-01  0.51099999109E-03 0.  1.
       22    1    1    2    0    0  0.10837374605E-02 -0.38041043396E-02 -0.26886730145E-01  0.27176128396E-01  0.00000000000E+00 0.  1.
  9000001    1    1    2    0    0 -0.10837374605E-02  0.38041043396E-02  0.26886730145E-01  0.44311871604E-01  0.35000000149E-01 0. -1.
</event>
<event>
 4   0  0.4334200E-01  0.9118800E+02  0.7818609E-02  0.1379984E+01
      -11   -1    0    0    0    0  0.00000000000E+00  0.00000000000E+00  0.35740347158E-01  0.35744000000E-01  0.51099999109E-03 0.  1.
       11   -1    0    0    0    0 -0.00000000000E+00 -0.00000000000E+00 -0.35740347158E-01  0.35744000000E-01  0.51099999109E-03 0. -1.
       22    1    1    2    0    0 -0.17160063043E-01 -0.20938304099E-01  0.23794143014E-02  0.27176128396E-01  0.00000000000E+00 0.  1.
  9000001    1    1    2    0    0  0.17160063043E-01  0.20938304099E-01 -0.23794143014E-02  0.44311871604E-01  0.35000000149E-01 0.  0.
</event>
<event>
 4   0  0.4334200E-01  0.9118800E+02  0.7818609E-02  0.1379984E+01
      -11   -1    0    0    0    0  0.00000000000E+00  0.00000000000E+00  0.35740347158E-01  0.35744000000E-01  0.51099999109E-03 0.  1.
       11   -1    0    0    0    0 -0.00000000000E+00 -0.00000000000E+00 -0.35740347158E-01  0.35744000000E-01  0.51099999109E-03 0. -1.
       22    1    1    2    0    0  0.41193214293E-02 -0.16991174232E-01  0.20805603663E-01  0.27176128396E-01  0.00000000000E+00 0.  1.
  9000001    1    1    2    0    0 -0.41193214293E-02  0.16991174232E-01 -0.20805603663E-01  0.44311871604E-01  0.35000000149E-01 0. -1.
</event>
<event>
 4   0  0.4334200E-01  0.9118800E+02  0.7818609E-02  0.1379984E+01
      -11   -1    0    0    0    0  0.00000000000E+00  0.00000000000E+00  0.35740347158E-01  0.35744000000E-01  0.51099999109E-03 0.  1.
       11   -1    0    0    0    0 -0.00000000000E+00 -0.00000000000E+00 -0.35740347158E-01  0.35744000000E-01  0.51099999109E-03 0. -1.
       22    1    1    2    0    0  0.12378516123E-01 -0.13823859063E-01  0.19854853658E-01  0.27176128396E-01  0.00000000000E+00 0.  1.
  9000001    1    1    2    0    0 -0.12378516123E-01  0.13823859063E-01 -0.19854853658E-01  0.44311871604E-01  0.35000000149E-01 0. -1.
</event>
<event>
 4   0  0.4334200E-01  0.9118800E+02  0.7818609E-02  0.1379984E+01
      -11   -1    0    0    0    0  0.00000000000E+00  0.00000000000E+00  0.35740347158E-01  0.35744000000E-01  0.51099999109E-03 0. -1.
       11   -1    0    0    0    0 -0.00000000000E+00 -0.00000000000E+00 -0.35740347158E-01  0.35744000000E-01  0.51099999109E-03 0.  1.
       22    1    1    2    0    0  0.13933683797E-01 -0.44407560741E-02  0.22905765561E-01  0.27176128396E-01  0.00000000000E+00 0. -1.
  9000001    1    1    2    0    0 -0.13933683797E-01  0.44407560741E-02 -0.22905765561E-01  0.44311871604E-01  0.35000000149E-01 0.  1.
</event>
<event>
 4   0  0.4334200E-01  0.9118800E+02  0.7818609E-02  0.1379984E+01
      -11   -1    0    0    0    0  0.00000000000E+00  0.00000000000E+00  0.35740347158E-01  0.35744000000E-01  0.51099999109E-03 0. -1.
       11   -1    0    0    0    0 -0.00000000000E+00 -0.00000000000E+00 -0.35740347158E-01  0.35744000000E-01  0.51099999109E-03 0.  1.
       22    1    1    2    0    0  0.39300684833E-03 -0.18181354788E-01 -0.20194698272E-01  0.27176128396E-01  0.00000000000E+00 0.  1.
  9000001    1    1    2    0    0 -0.39300684833E-03  0.18181354788E-01  0.20194698272E-01  0.44311871604E-01  0.35000000149E-01 0. -1.
</event>
<event>
 4   0  0.4334200E-01  0.9118800E+02  0.7818609E-02  0.1379984E+01
      -11   -1    0    0    0    0  0.00000000000E+00  0.00000000000E+00  0.35740347158E-01  0.35744000000E-01  0.51099999109E-03 0. -1.
       11   -1    0    0    0    0 -0.00000000000E+00 -0.00000000000E+00 -0.35740347158E-01  0.35744000000E-01  0.51099999109E-03 0.  1.
       22    1    1    2    0    0 -0.23488231554E-01 -0.12680340493E-01  0.51043019158E-02  0.27176128396E-01  0.00000000000E+00 0. -1.
  9000001    1    1    2    0    0  0.23488231554E-01  0.12680340493E-01 -0.51043019158E-02  0.44311871604E-01  0.35000000149E-01 0.  0.
</event>
<event>
 4   0  0.4334200E-01  0.9118800E+02  0.7818609E-02  0.1379984E+01
      -11   -1    0    0    0    0  0.00000000000E+00  0.00000000000E+00  0.35740347158E-01  0.35744000000E-01  0.51099999109E-03 0.  1.
       11   -1    0    0    0    0 -0.00000000000E+00 -0.00000000000E+00 -0.35740347158E-01  0.35744000000E-01  0.51099999109E-03 0. -1.
       22    1    1    2    0    0 -0.22800013593E-02  0.39747901617E-02 -0.26787022820E-01  0.27176128396E-01  0.00000000000E+00 0. -1.
  9000001    1    1    2    0    0  0.22800013593E-02 -0.39747901617E-02  0.26787022820E-01  0.44311871604E-01  0.35000000149E-01 0.  1.
</event>
<event>
 4   0  0.4334200E-01  0.9118800E+02  0.7818609E-02  0.1379984E+01
      -11   -1    0    0    0    0  0.00000000000E+00  0.00000000000E+00  0.35740347158E-01  0.35744000000E-01  0.51099999109E-03 0. -1.
       11   -1    0    0    0    0 -0.00000000000E+00 -0.00000000000E+00 -0.35740347158E-01  0.35744000000E-01  0.51099999109E-03 0.  1.
       22    1    1    2    0    0  0.12474902458E-01 -0.17088524088E-02  0.24083159816E-01  0.27176128396E-01  0.00000000000E+00 0. -1.
  9000001    1    1    2    0    0 -0.12474902458E-01  0.17088524088E-02 -0.24083159816E-01  0.44311871604E-01  0.35000000149E-01 0.  1.
</event>
<event>
 4   0  0.4334200E-01  0.9118800E+02  0.7818609E-02  0.1379984E+01
      -11   -1    0    0    0    0  0.00000000000E+00  0.00000000000E+00  0.35740347158E-01  0.35744000000E-01  0.51099999109E-03 0. -1.
       11   -1    0    0    0    0 -0.00000000000E+00 -0.00000000000E+00 -0.35740347158E-01  0.35744000000E-01  0.51099999109E-03 0.  1.
       22    1    1    2    0    0 -0.74264957983E-02  0.57754605216E-02  0.25495748087E-01  0.27176128396E-01  0.00000000000E+00 0. -1.
  9000001    1    1    2    0    0  0.74264957983E-02 -0.57754605216E-02 -0.25495748087E-01  0.44311871604E-01  0.35000000149E-01 0.  1.
</event>
<event>
 4   0  0.4334200E-01  0.9118800E+02  0.7818609E-02  0.1379984E+01
      -11   -1    0    0    0    0  0.00000000000E+00  0.00000000000E+00  0.35740347158E-01  0.35744000000E-01  0.51099999109E-03 0. -1.
       11   -1    0    0    0    0 -0.00000000000E+00 -0.00000000000E+00 -0.35740347158E-01  0.35744000000E-01  0.51099999109E-03 0.  1.
       22    1    1    2    0    0 -0.18843502495E-02  0.56232154299E-02 -0.26521135477E-01  0.27176128396E-01  0.00000000000E+00 0.  1.
  9000001    1    1    2    0    0  0.18843502495E-02 -0.56232154299E-02  0.26521135477E-01  0.44311871604E-01  0.35000000149E-01 0. -1.
</event>
<event>
 4   0  0.4334200E-01  0.9118800E+02  0.7818609E-02  0.1379984E+01
      -11   -1    0    0    0    0  0.00000000000E+00  0.00000000000E+00  0.35740347158E-01  0.35744000000E-01  0.51099999109E-03 0. -1.
       11   -1    0    0    0    0 -0.00000000000E+00 -0.00000000000E+00 -0.35740347158E-01  0.35744000000E-01  0.51099999109E-03 0.  1.
       22    1    1    2    0    0 -0.15269437805E-02 -0.26640739284E-02  0.27002094500E-01  0.27176128396E-01  0.00000000000E+00 0. -1.
  9000001    1    1    2    0    0  0.15269437805E-02  0.26640739284E-02 -0.27002094500E-01  0.44311871604E-01  0.35000000149E-01 0.  1.
</event>
<event>
 4   0  0.4334200E-01  0.9118800E+02  0.7818609E-02  0.1379984E+01
      -11   -1    0    0    0    0  0.00000000000E+00  0.00000000000E+00  0.35740347158E-01  0.35744000000E-01  0.51099999109E-03 0. -1.
       11   -1    0    0    0    0 -0.00000000000E+00 -0.00000000000E+00 -0.35740347158E-01  0.35744000000E-01  0.51099999109E-03 0.  1.
       22    1    1    2    0    0 -0.10214308700E-01  0.21279190245E-01 -0.13468701308E-01  0.27176128396E-01  0.00000000000E+00 0.  1.
  9000001    1    1    2    0    0  0.10214308700E-01 -0.21279190245E-01  0.13468701308E-01  0.44311871604E-01  0.35000000149E-01 0. -1.
</event>
<event>
 4   0  0.4334200E-01  0.9118800E+02  0.7818609E-02  0.1379984E+01
      -11   -1    0    0    0    0  0.00000000000E+00  0.00000000000E+00  0.35740347158E-01  0.35744000000E-01  0.51099999109E-03 0.  1.
       11   -1    0    0    0    0 -0.00000000000E+00 -0.00000000000E+00 -0.35740347158E-01  0.35744000000E-01  0.51099999109E-03 0. -1.
       22    1    1    2    0    0  0.29094918864E-02 -0.42221381534E-02 -0.26688019053E-01  0.27176128396E-01  0.00000000000E+00 0. -1.
  9000001    1    1    2    0    0 -0.29094918864E-02  0.42221381534E-02  0.26688019053E-01  0.44311871604E-01  0.35000000149E-01 0.  1.
</event>
<event>
 4   0  0.4334200E-01  0.9118800E+02  0.7818609E-02  0.1379984E+01
      -11   -1    0    0    0    0  0.00000000000E+00  0.00000000000E+00  0.35740347158E-01  0.35744000000E-01  0.51099999109E-03 0.  1.
       11   -1    0    0    0    0 -0.00000000000E+00 -0.00000000000E+00 -0.35740347158E-01  0.35744000000E-01  0.51099999109E-03 0. -1.
       22    1    1    2    0    0 -0.16571481521E-01  0.86188282815E-03  0.21521735822E-01  0.27176128396E-01  0.00000000000E+00 0.  1.
  9000001    1    1    2    0    0  0.16571481521E-01 -0.86188282815E-03 -0.21521735822E-01  0.44311871604E-01  0.35000000149E-01 0. -1.
</event>
<event>
 4   0  0.4334200E-01  0.9118800E+02  0.7818609E-02  0.1379984E+01
      -11   -1    0    0    0    0  0.00000000000E+00  0.00000000000E+00  0.35740347158E-01  0.35744000000E-01  0.51099999109E-03 0.  1.
       11   -1    0    0    0    0 -0.00000000000E+00 -0.00000000000E+00 -0.35740347158E-01  0.35744000000E-01  0.51099999109E-03 0. -1.
       22    1    1    2    0    0 -0.42934792701E-02 -0.96539568926E-03 -0.26817457029E-01  0.27176128396E-01  0.00000000000E+00 0. -1.
  9000001    1    1    2    0    0  0.42934792701E-02  0.96539568926E-03  0.26817457029E-01  0.44311871604E-01  0.35000000149E-01 0.  1.
</event>
<event>
 4   0  0.4334200E-01  0.9118800E+02  0.7818609E-02  0.1379984E+01
      -11   -1    0    0    0    0  0.00000000000E+00  0.00000000000E+00  0.35740347158E-01  0.35744000000E-01  0.51099999109E-03 0. -1.
       11   -1    0    0    0    0 -0.00000000000E+00 -0.00000000000E+00 -0.35740347158E-01  0.35744000000E-01  0.51099999109E-03 0.  1.
       22    1    1    2    0    0 -0.17099742111E-01  0.37706436096E-02 -0.20782757784E-01  0.27176128396E-01  0.00000000000E+00 0.  1.
  9000001    1    1    2    0    0  0.17099742111E-01 -0.37706436096E-02  0.20782757784E-01  0.44311871604E-01  0.35000000149E-01 0. -1.
</event>
<event>
 4   0  0.4334200E-01  0.9118800E+02  0.7818609E-02  0.1379984E+01
      -11   -1    0    0    0    0  0.00000000000E+00  0.00000000000E+00  0.35740347158E-01  0.35744000000E-01  0.51099999109E-03 0.  1.
       11   -1    0    0    0    0 -0.00000000000E+00 -0.00000000000E+00 -0.35740347158E-01  0.35744000000E-01  0.51099999109E-03 0. -1.
       22    1    1    2    0    0  0.24251424705E-02 -0.26815654519E-01 -0.36852830722E-02  0.27176128396E-01  0.00000000000E+00 0.  1.
  9000001    1    1    2    0    0 -0.24251424705E-02  0.26815654519E-01  0.36852830722E-02  0.44311871604E-01  0.35000000149E-01 0.  0.
</event>
<event>
 4   0  0.4334200E-01  0.9118800E+02  0.7818609E-02  0.1379984E+01
      -11   -1    0    0    0    0  0.00000000000E+00  0.00000000000E+00  0.35740347158E-01  0.35744000000E-01  0.51099999109E-03 0.  1.
       11   -1    0    0    0    0 -0.00000000000E+00 -0.00000000000E+00 -0.35740347158E-01  0.35744000000E-01  0.51099999109E-03 0. -1.
       22    1    1    2    0    0  0.52904127333E-02 -0.62978819698E-02  0.25901547645E-01  0.27176128396E-01  0.00000000000E+00 0.  1.
  9000001    1    1    2    0    0 -0.52904127333E-02  0.62978819698E-02 -0.25901547645E-01  0.44311871604E-01  0.35000000149E-01 0. -1.
</event>
<event>
 4   0  0.4334200E-01  0.9118800E+02  0.7818609E-02  0.1379984E+01
      -11   -1    0    0    0    0  0.00000000000E+00  0.00000000000E+00  0.35740347158E-01  0.35744000000E-01  0.51099999109E-03 0.  1.
       11   -1    0    0    0    0 -0.00000000000E+00 -0.00000000000E+00 -0.35740347158E-01  0.35744000000E-01  0.51099999109E-03 0. -1.
       22    1    1    2    0    0  0.26273652093E-02 -0.19397249941E-01 -0.18851673703E-01  0.27176128396E-01  0.00000000000E+00 0. -1.
  9000001    1    1    2    0    0 -0.26273652093E-02  0.19397249941E-01  0.18851673703E-01  0.44311871604E-01  0.35000000149E-01 0.  1.
</event>
<event>
 4   0  0.4334200E-01  0.9118800E+02  0.7818609E-02  0.1379984E+01
      -11   -1    0    0    0    0  0.00000000000E+00  0.00000000000E+00  0.35740347158E-01  0.35744000000E-01  0.51099999109E-03 0.  1.
       11   -1    0    0    0    0 -0.00000000000E+00 -0.00000000000E+00 -0.35740347158E-01  0.35744000000E-01  0.51099999109E-03 0. -1.
       22    1    1    2    0    0 -0.36328392230E-02  0.38921925276E-02 -0.26649489134E-01  0.27176128396E-01  0.00000000000E+00 0. -1.
  9000001    1    1    2    0    0  0.36328392230E-02 -0.38921925276E-02  0.26649489134E-01  0.44311871604E-01  0.35000000149E-01 0.  1.
</event>
<event>
 4   0  0.4334200E-01  0.9118800E+02  0.7818609E-02  0.1379984E+01
      -11   -1    0    0    0    0  0.00000000000E+00  0.00000000000E+00  0.35740347158E-01  0.35744000000E-01  0.51099999109E-03 0.  1.
       11   -1    0    0    0    0 -0.00000000000E+00 -0.00000000000E+00 -0.35740347158E-01  0.35744000000E-01  0.51099999109E-03 0. -1.
       22    1    1    2    0    0  0.24976875019E-02 -0.26772830288E-01  0.39394251031E-02  0.27176128396E-01  0.00000000000E+00 0.  1.
  9000001    1    1    2    0    0 -0.24976875019E-02  0.26772830288E-01 -0.39394251031E-02  0.44311871604E-01  0.35000000149E-01 0. -1.
</event>
<event>
 4   0  0.4334200E-01  0.9118800E+02  0.7818609E-02  0.1379984E+01
      -11   -1    0    0    0    0  0.00000000000E+00  0.00000000000E+00  0.35740347158E-01  0.35744000000E-01  0.51099999109E-03 0. -1.
       11   -1    0    0    0    0 -0.00000000000E+00 -0.00000000000E+00 -0.35740347158E-01  0.35744000000E-01  0.51099999109E-03 0.  1.
       22    1    1    2    0    0  0.34807295648E-04  0.10308255783E-01 -0.25145190510E-01  0.27176128396E-01  0.00000000000E+00 0.  1.
  9000001    1    1    2    0    0 -0.34807295648E-04 -0.10308255783E-01  0.25145190510E-01  0.44311871604E-01  0.35000000149E-01 0. -1.
</event>
<event>
 4   0  0.4334200E-01  0.9118800E+02  0.7818609E-02  0.1379984E+01
      -11   -1    0    0    0    0  0.00000000000E+00  0.00000000000E+00  0.35740347158E-01  0.35744000000E-01  0.51099999109E-03 0. -1.
       11   -1    0    0    0    0 -0.00000000000E+00 -0.00000000000E+00 -0.35740347158E-01  0.35744000000E-01  0.51099999109E-03 0.  1.
       22    1    1    2    0    0  0.15448658779E-01 -0.18505479383E-01 -0.12547036675E-01  0.27176128396E-01  0.00000000000E+00 0.  1.
  9000001    1    1    2    0    0 -0.15448658779E-01  0.18505479383E-01  0.12547036675E-01  0.44311871604E-01  0.35000000149E-01 0. -1.
</event>
<event>
 4   0  0.4334200E-01  0.9118800E+02  0.7818609E-02  0.1379984E+01
      -11   -1    0    0    0    0  0.00000000000E+00  0.00000000000E+00  0.35740347158E-01  0.35744000000E-01  0.51099999109E-03 0. -1.
       11   -1    0    0    0    0 -0.00000000000E+00 -0.00000000000E+00 -0.35740347158E-01  0.35744000000E-01  0.51099999109E-03 0.  1.
       22    1    1    2    0    0 -0.42493479067E-02  0.43066233250E-02  0.26494112412E-01  0.27176128396E-01  0.00000000000E+00 0. -1.
  9000001    1    1    2    0    0  0.42493479067E-02 -0.43066233250E-02 -0.26494112412E-01  0.44311871604E-01  0.35000000149E-01 0.  1.
</event>
<event>
 4   0  0.4334200E-01  0.9118800E+02  0.7818609E-02  0.1379984E+01
      -11   -1    0    0    0    0  0.00000000000E+00  0.00000000000E+00  0.35740347158E-01  0.35744000000E-01  0.51099999109E-03 0. -1.
       11   -1    0    0    0    0 -0.00000000000E+00 -0.00000000000E+00 -0.35740347158E-01  0.35744000000E-01  0.51099999109E-03 0.  1.
       22    1    1    2    0    0  0.90500529586E-02 -0.23858540735E-02  0.25513647258E-01  0.27176128396E-01  0.00000000000E+00 0. -1.
  9000001    1    1    2    0    0 -0.90500529586E-02  0.23858540735E-02 -0.25513647258E-01  0.44311871604E-01  0.35000000149E-01 0.  1.
</event>
<event>
 4   0  0.4334200E-01  0.9118800E+02  0.7818609E-02  0.1379984E+01
      -11   -1    0    0    0    0  0.00000000000E+00  0.00000000000E+00  0.35740347158E-01  0.35744000000E-01  0.51099999109E-03 0. -1.
       11   -1    0    0    0    0 -0.00000000000E+00 -0.00000000000E+00 -0.35740347158E-01  0.35744000000E-01  0.51099999109E-03 0.  1.
       22    1    1    2    0    0  0.56810900710E-03 -0.53163715726E-02 -0.26644988273E-01  0.27176128396E-01  0.00000000000E+00 0. -1.
  9000001    1    1    2    0    0 -0.56810900710E-03  0.53163715726E-02  0.26644988273E-01  0.44311871604E-01  0.35000000149E-01 0.  0.
</event>
<event>
 4   0  0.4334200E-01  0.9118800E+02  0.7818609E-02  0.1379984E+01
      -11   -1    0    0    0    0  0.00000000000E+00  0.00000000000E+00  0.35740347158E-01  0.35744000000E-01  0.51099999109E-03 0.  1.
       11   -1    0    0    0    0 -0.00000000000E+00 -0.00000000000E+00 -0.35740347158E-01  0.35744000000E-01  0.51099999109E-03 0. -1.
       22    1    1    2    0    0  0.42291370993E-02  0.14815070241E-02  0.26804131975E-01  0.27176128396E-01  0.00000000000E+00 0.  1.
  9000001    1    1    2    0    0 -0.42291370993E-02 -0.14815070241E-02 -0.26804131975E-01  0.44311871604E-01  0.35000000149E-01 0. -1.
</event>
<event>
 4   0  0.4334200E-01  0.9118800E+02  0.7818609E-02  0.1379984E+01
      -11   -1    0    0    0    0  0.00000000000E+00  0.00000000000E+00  0.35740347158E-01  0.35744000000E-01  0.51099999109E-03 0. -1.
       11   -1    0    0    0    0 -0.00000000000E+00 -0.00000000000E+00 -0.35740347158E-01  0.35744000000E-01  0.51099999109E-03 0.  1.
       22    1    1    2    0    0 -0.11395838151E-02 -0.19382349918E-01 -0.19014936628E-01  0.27176128396E-01  0.00000000000E+00 0.  1.
  9000001    1    1    2    0    0  0.11395838151E-02  0.19382349918E-01  0.19014936628E-01  0.44311871604E-01  0.35000000149E-01 0. -1.
</event>
<event>
 4   0  0.4334200E-01  0.9118800E+02  0.7818609E-02  0.1379984E+01
      -11   -1    0    0    0    0  0.00000000000E+00  0.00000000000E+00  0.35740347158E-01  0.35744000000E-01  0.51099999109E-03 0.  1.
       11   -1    0    0    0    0 -0.00000000000E+00 -0.00000000000E+00 -0.35740347158E-01  0.35744000000E-01  0.51099999109E-03 0. -1.
       22    1    1    2    0    0  0.29992891377E-03 -0.74760513308E-02  0.26125861780E-01  0.27176128396E-01  0.00000000000E+00 0.  1.
  9000001    1    1    2    0    0 -0.29992891377E-03  0.74760513308E-02 -0.26125861780E-01  0.44311871604E-01  0.35000000149E-01 0. -1.
</event>
<event>
 4   0  0.4334200E-01  0.9118800E+02  0.7818609E-02  0.1379984E+01
      -11   -1    0    0    0    0  0.00000000000E+00  0.00000000000E+00  0.35740347158E-01  0.35744000000E-01  0.51099999109E-03 0. -1.
       11   -1    0    0    0    0 -0.00000000000E+00 -0.00000000000E+00 -0.35740347158E-01  0.35744000000E-01  0.51099999109E-03 0.  1.
       22    1    1    2    0    0  0.99059349964E-02  0.10934699643E-02  0.25282775360E-01  0.27176128396E-01  0.00000000000E+00 0. -1.
  9000001    1    1    2    0    0 -0.99059349964E-02 -0.10934699643E-02 -0.25282775360E-01  0.44311871604E-01  0.35000000149E-01 0.  1.
</event>
<event>
 4   0  0.4334200E-01  0.9118800E+02  0.7818609E-02  0.1379984E+01
      -11   -1    0    0    0    0  0.00000000000E+00  0.00000000000E+00  0.35740347158E-01  0.35744000000E-01  0.51099999109E-03 0. -1.
       11   -1    0    0    0    0 -0.00000000000E+00 -0.00000000000E+00 -0.35740347158E-01  0.35744000000E-01  0.51099999109E-03 0.  1.
       22    1    1    2    0    0  0.89557443626E-03 -0.10189314695E-01  0.25177723628E-01  0.27176128396E-01  0.00000000000E+00 0. -1.
  9000001    1    1    2    0    0 -0.89557443626E-03  0.10189314695E-01 -0.25177723628E-01  0.44311871604E-01  0.35000000149E-01 0.  1.
</event>
<event>
 4   0  0.4334200E-01  0.9118800E+02  0.7818609E-02  0.1379984E+01
      -11   -1    0    0    0    0  0.00000000000E+00  0.00000000000E+00  0.35740347158E-01  0.35744000000E-01  0.51099999109E-03 0.  1.
       11   -1    0    0    0    0 -0.00000000000E+00 -0.00000000000E+00 -0.35740347158E-01  0.35744000000E-01  0.51099999109E-03 0. -1.
       22    1    1    2    0    0 -0.79664677890E-02  0.15108747187E-01  0.21137717568E-01  0.27176128396E-01  0.00000000000E+00 0.  1.
  9000001    1    1    2    0    0  0.79664677890E-02 -0.15108747187E-01 -0.21137717568E-01  0.44311871604E-01  0.35000000149E-01 0. -1.
</event>
<event>
 4   0  0.4334200E-01  0.9118800E+02  0.7818609E-02  0.1379984E+01
      -11   -1    0    0    0    0  0.00000000000E+00  0.00000000000E+00  0.35740347158E-01  0.35744000000E-01  0.51099999109E-03 0. -1.
       11   -1    0    0    0    0 -0.00000000000E+00 -0.00000000000E+00 -0.35740347158E-01  0.35744000000E-01  0.51099999109E-03 0.  1.
       22    1    1    2    0    0 -0.19070930431E-01  0.33045182666E-02 -0.19076732585E-01  0.27176128396E-01  0.00000000000E+00 0.  1.
  9000001    1    1    2    0    0  0.19070930431E-01 -0.33045182666E-02  0.19076732585E-01  0.44311871604E-01  0.35000000149E-01 0. -1.
</event>
<event>
 4   0  0.4334200E-01  0.9118800E+02  0.7818609E-02  0.1379984E+01
      -11   -1    0    0    0    0  0.00000000000E+00  0.00000000000E+00  0.35740347158E-01  0.35744000000E-01  0.51099999109E-03 0.  1.
       11   -1    0    0    0    0 -0.00000000000E+00 -0.00000000000E+00 -0.35740347158E-01  0.35744000000E-01  0.51099999109E-03 0. -1.
       22    1    1    2    0    0  0.60671656884E-02  0.32471610017E-02  0.26290443141E-01  0.27176128396E-01  0.00000000000E+00 0.  1.
  9000001    1    1    2    0    0 -0.60671656884E-02 -0.32471610017E-02 -0.26290443141E-01  0.44311871604E-01  0.35000000149E-01 0. -1.
</event>
<event>
 4   0  0.4334200E-01  0.9118800E+02  0.7818609E-02  0.1379984E+01
      -11   -1    0    0    0    0  0.00000000000E+00  0.00000000000E+00  0.35740347158E-01  0.35744000000E-01  0.51099999109E-03 0.  1.
       11   -1    0    0    0    0 -0.00000000000E+00 -0.00000000000E+00 -0.35740347158E-01  0.35744000000E-01  0.51099999109E-03 0. -1.
       22    1    1    2    0    0  0.83834703044E-03  0.53471067635E-02  0.26631702501E-01  0.27176128396E-01  0.00000000000E+00 0.  1.
  9000001    1    1    2    0    0 -0.83834703044E-03 -0.53471067635E-02 -0.26631702501E-01  0.44311871604E-01  0.35000000149E-01 0. -1.
</event>
<event>
 4   0  0.4334200E-01  0.9118800E+02  0.7818609E-02  0.1379984E+01
      -11   -1    0    0    0    0  0.00000000000E+00  0.00000000000E+00  0.35740347158E-01  0.35744000000E-01  0.51099999109E-03 0. -1.
       11   -1    0    0    0    0 -0.00000000000E+00 -0.00000000000E+00 -0.35740347158E-01  0.35744000000E-01  0.51099999109E-03 0.  1.
       22    1    1    2    0    0  0.55083942823E-02 -0.84874247268E-03  0.26598480845E-01  0.27176128396E-01  0.00000000000E+00 0. -1.
  9000001    1    1    2    0    0 -0.55083942823E-02  0.84874247268E-03 -0.26598480845E-01  0.44311871604E-01  0.35000000149E-01 0.  1.
</event>
<event>
 4   0  0.4334200E-01  0.9118800E+02  0.7818609E-02  0.1379984E+01
      -11   -1    0    0    0    0  0.00000000000E+00  0.00000000000E+00  0.35740347158E-01  0.35744000000E-01  0.51099999109E-03 0. -1.
       11   -1    0    0    0    0 -0.00000000000E+00 -0.00000000000E+00 -0.35740347158E-01  0.35744000000E-01  0.51099999109E-03 0.  1.
       22    1    1    2    0    0 -0.92424175653E-02 -0.77551941812E-02 -0.24351111584E-01  0.27176128396E-01  0.00000000000E+00 0.  1.
  9000001    1    1    2    0    0  0.92424175653E-02  0.77551941812E-02  0.24351111584E-01  0.44311871604E-01  0.35000000149E-01 0. -1.
</event>
<event>
 4   0  0.4334200E-01  0.9118800E+02  0.7818609E-02  0.1379984E+01
      -11   -1    0    0    0    0  0.00000000000E+00  0.00000000000E+00  0.35740347158E-01  0.35744000000E-01  0.51099999109E-03 0.  1.
       11   -1    0    0    0    0 -0.00000000000E+00 -0.00000000000E+00 -0.35740347158E-01  0.35744000000E-01  0.51099999109E-03 0. -1.
       22    1    1    2    0    0  0.39790981563E-03 -0.26328252058E-01 -0.67235976934E-02  0.27176128396E-01  0.00000000000E+00 0. -1.
  9000001    1    1    2    0    0 -0.39790981563E-03  0.26328252058E-01  0.67235976934E-02  0.44311871604E-01  0.35000000149E-01 0.  1.
</event>
<event>
 4   0  0.4334200E-01  0.9118800E+02  0.7818609E-02  0.1379984E+01
      -11   -1    0    0    0    0  0.00000000000E+00  0.00000000000E+00  0.35740347158E-01  0.35744000000E-01  0.51099999109E-03 0. -1.
       11   -1    0    0    0    0 -0.00000000000E+00 -0.00000000000E+00 -0.35740347158E-01  0.35744000000E-01  0.51099999109E-03 0.  1.
       22    1    1    2    0    0  0.20536099075E-01 -0.84257937165E-03  0.17779219594E-01  0.27176128396E-01  0.00000000000E+00 0. -1.
  9000001    1    1    2    0    0 -0.20536099075E-01  0.84257937165E-03 -0.17779219594E-01  0.44311871604E-01  0.35000000149E-01 0.  1.
</event>
<event>
 4   0  0.4334200E-01  0.9118800E+02  0.7818609E-02  0.1379984E+01
      -11   -1    0    0    0    0  0.00000000000E+00  0.00000000000E+00  0.35740347158E-01  0.35744000000E-01  0.51099999109E-03 0.  1.
       11   -1    0    0    0    0 -0.00000000000E+00 -0.00000000000E+00 -0.35740347158E-01  0.35744000000E-01  0.51099999109E-03 0. -1.
       22    1    1    2    0    0 -0.18603915859E-02 -0.37221327869E-02 -0.26855662816E-01  0.27176128396E-01  0.00000000000E+00 0. -1.
  9000001    1    1    2    0    0  0.18603915859E-02  0.37221327869E-02  0.26855662816E-01  0.44311871604E-01  0.35000000149E-01 0.  1.
</event>
<event>
 4   0  0.4334200E-01  0.9118800E+02  0.7818609E-02  0.1379984E+01
      -11   -1    0    0    0    0  0.00000000000E+00  0.00000000000E+00  0.35740347158E-01  0.35744000000E-01  0.51099999109E-03 0. -1.
       11   -1    0    0    0    0 -0.00000000000E+00 -0.00000000000E+00 -0.35740347158E-01  0.35744000000E-01  0.51099999109E-03 0.  1.
       22    1    1    2    0    0 -0.10932036066E-01  0.24837176813E-01 -0.14653293229E-02  0.27176128396E-01  0.00000000000E+00 0.  1.
  9000001    1    1    2    0    0  0.10932036066E-01 -0.24837176813E-01  0.14653293229E-02  0.44311871604E-01  0.35000000149E-01 0. -1.
</event>
<event>
 4   0  0.4334200E-01  0.9118800E+02  0.7818609E-02  0.1379984E+01
      -11   -1    0    0    0    0  0.00000000000E+00  0.00000000000E+00  0.35740347158E-01  0.35744000000E-01  0.51099999109E-03 0.  1.
       11   -1    0    0    0    0 -0.00000000000E+00 -0.00000000000E+00 -0.35740347158E-01  0.35744000000E-01  0.51099999109E-03 0. -1.
       22    1    1    2    0    0  0.30346474262E-02  0.19253878732E-02 -0.26937441436E-01  0.27176128396E-01  0.00000000000E+00 0. -1.
  9000001    1    1    2    0    0 -0.30346474262E-02 -0.19253878732E-02  0.26937441436E-01  0.44311871604E-01  0.35000000149E-01 0.  1.
</event>
<event>
 4   0  0.4334200E-01  0.9118800E+02  0.7818609E-02  0.1379984E+01
      -11   -1    0    0    0    0  0.00000000000E+00  0.00000000000E+00  0.35740347158E-01  0.35744000000E-01  0.51099999109E-03 0.  1.
       11   -1    0    0    0    0 -0.00000000000E+00 -0.00000000000E+00 -0.35740347158E-01  0.35744000000E-01  0.51099999109E-03 0. -1.
       22    1    1    2    0    0 -0.34536991963E-02 -0.88760108103E-03 -0.26941159604E-01  0.27176128396E-01  0.00000000000E+00 0. -1.
  9000001    1    1    2    0    0  0.34536991963E-02  0.88760108103E-03  0.26941159604E-01  0.44311871604E-01  0.35000000149E-01 0.  1.
</event>
<event>
 4   0  0.4334200E-01  0.9118800E+02  0.7818609E-02  0.1379984E+01
      -11   -1    0    0    0    0  0.00000000000E+00  0.00000000000E+00  0.35740347158E-01  0.35744000000E-01  0.51099999109E-03 0. -1.
       11   -1    0    0    0    0 -0.00000000000E+00 -0.00000000000E+00 -0.35740347158E-01  0.35744000000E-01  0.51099999109E-03 0.  1.
       22    1    1    2    0    0 -0.85950176285E-02 -0.22724267152E-01  0.12176834933E-01  0.27176128396E-01  0.00000000000E+00 0.  1.
  9000001    1    1    2    0    0  0.85950176285E-02  0.22724267152E-01 -0.12176834933E-01  0.44311871604E-01  0.35000000149E-01 0. -1.
</event>
<event>
 4   0  0.4334200E-01  0.9118800E+02  0.7818609E-02  0.1379984E+01
      -11   -1    0    0    0    0  0.00000000000E+00  0.00000000000E+00  0.35740347158E-01  0.35744000000E-01  0.51099999109E-03 0. -1.
       11   -1    0    0    0    0 -0.00000000000E+00 -0.00000000000E+00 -0.35740347158E-01  0.35744000000E-01  0.51099999109E-03 0.  1.
       22    1    1    2    0    0 -0.78626667566E-03 -0.34266020242E-02 -0.26947766844E-01  0.27176128396E-01  0.00000000000E+00 0.  1.
  9000001    1    1    2    0    0  0.78626667566E-03  0.34266020242E-02  0.26947766844E-01  0.44311871604E-01  0.35000000149E-01 0. -1.
</event>
<event>
 4   0  0.4334200E-01  0.9118800E+02  0.7818609E-02  0.1379984E+01
      -11   -1    0    0    0    0  0.00000000000E+00  0.00000000000E+00  0.35740347158E-01  0.35744000000E-01  0.51099999109E-03 0. -1.
       11   -1    0    0    0    0 -0.00000000000E+00 -0.00000000000E+00 -0.35740347158E-01  0.35744000000E-01  0.51099999109E-03 0.  1.
       22    1    1    2    0    0  0.12205852185E-01 -0.58110749986E-02 -0.23575210167E-01  0.27176128396E-01  0.00000000000E+00 0. -1.
  9000001    1    1    2    0    0 -0.12205852185E-01  0.58110749986E-02  0.23575210167E-01  0.44311871604E-01  0.35000000149E-01 0. -1.
</event>
<event>
 4   0  0.4334200E-01  0.9118800E+02  0.7818609E-02  0.1379984E+01
      -11   -1    0    0    0    0  0.00000000000E+00  0.00000000000E+00  0.35740347158E-01  0.35744000000E-01  0.51099999109E-03 0. -1.
       11   -1    0    0    0    0 -0.00000000000E+00 -0.00000000000E+00 -0.35740347158E-01  0.35744000000E-01  0.51099999109E-03 0.  1.
       22    1    1    2    0    0  0.19525630545E-01  0.42443043507E-02 -0.18419489325E-01  0.27176128396E-01  0.00000000000E+00 0.  1.
  9000001    1    1    2    0    0 -0.19525630545E-01 -0.42443043507E-02  0.18419489325E-01  0.44311871604E-01  0.35000000149E-01 0. -1.
</event>
<event>
 4   0  0.4334200E-01  0.9118800E+02  0.7818609E-02  0.1379984E+01
      -11   -1    0    0    0    0  0.00000000000E+00  0.00000000000E+00  0.35740347158E-01  0.35744000000E-01  0.51099999109E-03 0. -1.
       11   -1    0    0    0    0 -0.00000000000E+00 -0.00000000000E+00 -0.35740347158E-01  0.35744000000E-01  0.51099999109E-03 0.  1.
       22    1    1    2    0    0 -0.18659844690E-01  0.14466925760E-01  0.13455861541E-01  0.27176128396E-01  0.00000000000E+00 0. -1.
  9000001    1    1    2    0    0  0.18659844690E-01 -0.14466925760E-01 -0.13455861541E-01  0.44311871604E-01  0.35000000149E-01 0.  1.
</event>
<event>
 4   0  0.4334200E-01  0.9118800E+02  0.7818609E-02  0.1379984E+01
      -11   -1    0    0    0    0  0.00000000000E+00  0.00000000000E+00  0.35740347158E-01  0.35744000000E-01  0.51099999109E-03 0. -1.
       11   -1    0    0    0    0 -0.00000000000E+00 -0.00000000000E+00 -0.35740347158E-01  0.35744000000E-01  0.51099999109E-03 0.  1.
       22    1    1    2    0    0  0.95421768827E-03  0.15258675271E-01  0.22467849301E-01  0.27176128396E-01  0.00000000000E+00 0.  1.
  9000001    1    1    2    0    0 -0.95421768827E-03 -0.15258675271E-01 -0.22467849301E-01  0.44311871604E-01  0.35000000149E-01 0.  1.
</event>
<event>
 4   0  0.4334200E-01  0.9118800E+02  0.7818609E-02  0.1379984E+01
      -11   -1    0    0    0    0  0.00000000000E+00  0.00000000000E+00  0.35740347158E-01  0.35744000000E-01  0.51099999109E-03 0. -1.
       11   -1    0    0    0    0 -0.00000000000E+00 -0.00000000000E+00 -0.35740347158E-01  0.35744000000E-01  0.51099999109E-03 0.  1.
       22    1    1    2    0    0  0.45839713583E-02 -0.45984081530E-03 -0.26782787525E-01  0.27176128396E-01  0.00000000000E+00 0.  1.
  9000001    1    1    2    0    0 -0.45839713583E-02  0.45984081530E-03  0.26782787525E-01  0.44311871604E-01  0.35000000149E-01 0. -1.
</event>
<event>
 4   0  0.4334200E-01  0.9118800E+02  0.7818609E-02  0.1379984E+01
      -11   -1    0    0    0    0  0.00000000000E+00  0.00000000000E+00  0.35740347158E-01  0.35744000000E-01  0.51099999109E-03 0. -1.
       11   -1    0    0    0    0 -0.00000000000E+00 -0.00000000000E+00 -0.35740347158E-01  0.35744000000E-01  0.51099999109E-03 0.  1.
       22    1    1    2    0    0  0.86193265433E-02  0.33930276408E-02  0.25548708930E-01  0.27176128396E-01  0.00000000000E+00 0. -1.
  9000001    1    1    2    0    0 -0.86193265433E-02 -0.33930276408E-02 -0.25548708930E-01  0.44311871604E-01  0.35000000149E-01 0.  1.
</event>
<event>
 4   0  0.4334200E-01  0.9118800E+02  0.7818609E-02  0.1379984E+01
      -11   -1    0    0    0    0  0.00000000000E+00  0.00000000000E+00  0.35740347158E-01  0.35744000000E-01  0.51099999109E-03 0. -1.
       11   -1    0    0    0    0 -0.00000000000E+00 -0.00000000000E+00 -0.35740347158E-01  0.35744000000E-01  0.51099999109E-03 0.  1.
       22    1    1    2    0    0 -0.10031638200E-02  0.40951146229E-02 -0.26847079044E-01  0.27176128396E-01  0.00000000000E+00 0.  1.
  9000001    1    1    2    0    0  0.10031638200E-02 -0.40951146229E-02  0.26847079044E-01  0.44311871604E-01  0.35000000149E-01 0. -1.
</event>
<event>
 4   0  0.4334200E-01  0.9118800E+02  0.7818609E-02  0.1379984E+01
      -11   -1    0    0    0    0  0.00000000000E+00  0.00000000000E+00  0.35740347158E-01  0.35744000000E-01  0.51099999109E-03 0. -1.
       11   -1    0    0    0    0 -0.00000000000E+00 -0.00000000000E+00 -0.35740347158E-01  0.35744000000E-01  0.51099999109E-03 0.  1.
       22    1    1    2    0    0  0.12457570304E-01 -0.17957002466E-01 -0.16152305073E-01  0.27176128396E-01  0.00000000000E+00 0.  1.
  9000001    1    1    2    0    0 -0.12457570304E-01  0.17957002466E-01  0.16152305073E-01  0.44311871604E-01  0.35000000149E-01 0. -1.
</event>
<event>
 4   0  0.4334200E-01  0.9118800E+02  0.7818609E-02  0.1379984E+01
      -11   -1    0    0    0    0  0.00000000000E+00  0.00000000000E+00  0.35740347158E-01  0.35744000000E-01  0.51099999109E-03 0. -1.
       11   -1    0    0    0    0 -0.00000000000E+00 -0.00000000000E+00 -0.35740347158E-01  0.35744000000E-01  0.51099999109E-03 0.  1.
       22    1    1    2    0    0  0.15482039833E-01  0.21456344064E-01  0.62027168746E-02  0.27176128396E-01  0.00000000000E+00 0. -1.
  9000001    1    1    2    0    0 -0.15482039833E-01 -0.21456344064E-01 -0.62027168746E-02  0.44311871604E-01  0.35000000149E-01 0.  1.
</event>
<event>
 4   0  0.4334200E-01  0.9118800E+02  0.7818609E-02  0.1379984E+01
      -11   -1    0    0    0    0  0.00000000000E+00  0.00000000000E+00  0.35740347158E-01  0.35744000000E-01  0.51099999109E-03 0. -1.
       11   -1    0    0    0    0 -0.00000000000E+00 -0.00000000000E+00 -0.35740347158E-01  0.35744000000E-01  0.51099999109E-03 0.  1.
       22    1    1    2    0    0 -0.65829313402E-02 -0.52387334452E-02 -0.25841103720E-01  0.27176128396E-01  0.00000000000E+00 0.  1.
  9000001    1    1    2    0    0  0.65829313402E-02  0.52387334452E-02  0.25841103720E-01  0.44311871604E-01  0.35000000149E-01 0. -1.
</event>
<event>
 4   0  0.4334200E-01  0.9118800E+02  0.7818609E-02  0.1379984E+01
      -11   -1    0    0    0    0  0.00000000000E+00  0.00000000000E+00  0.35740347158E-01  0.35744000000E-01  0.51099999109E-03 0.  1.
       11   -1    0    0    0    0 -0.00000000000E+00 -0.00000000000E+00 -0.35740347158E-01  0.35744000000E-01  0.51099999109E-03 0. -1.
       22    1    1    2    0    0  0.32033622027E-03  0.15220312010E-01  0.22511806717E-01  0.27176128396E-01  0.00000000000E+00 0.  1.
  9000001    1    1    2    0    0 -0.32033622027E-03 -0.15220312010E-01 -0.22511806717E-01  0.44311871604E-01  0.35000000149E-01 0. -1.
</event>
<event>
 4   0  0.4334200E-01  0.9118800E+02  0.7818609E-02  0.1379984E+01
      -11   -1    0    0    0    0  0.00000000000E+00  0.00000000000E+00  0.35740347158E-01  0.35744000000E-01  0.51099999109E-03 0.  1.
       11   -1    0    0    0    0 -0.00000000000E+00 -0.00000000000E+00 -0.35740347158E-01  0.35744000000E-01  0.51099999109E-03 0. -1.
       22    1    1    2    0    0 -0.48133139706E-02  0.22061566106E-02  0.26655334105E-01  0.27176128396E-01  0.00000000000E+00 0.  1.
  9000001    1    1    2    0    0  0.48133139706E-02 -0.22061566106E-02 -0.26655334105E-01  0.44311871604E-01  0.35000000149E-01 0. -1.
</event>
<event>
 4   0  0.4334200E-01  0.9118800E+02  0.7818609E-02  0.1379984E+01
      -11   -1    0    0    0    0  0.00000000000E+00  0.00000000000E+00  0.35740347158E-01  0.35744000000E-01  0.51099999109E-03 0. -1.
       11   -1    0    0    0    0 -0.00000000000E+00 -0.00000000000E+00 -0.35740347158E-01  0.35744000000E-01  0.51099999109E-03 0.  1.
       22    1    1    2    0    0  0.12783335714E-01 -0.30756172631E-02 -0.23783794085E-01  0.27176128396E-01  0.00000000000E+00 0.  1.
  9000001    1    1    2    0    0 -0.12783335714E-01  0.30756172631E-02  0.23783794085E-01  0.44311871604E-01  0.35000000149E-01 0.  0.
</event>
<event>
 4   0  0.4334200E-01  0.9118800E+02  0.7818609E-02  0.1379984E+01
      -11   -1    0    0    0    0  0.00000000000E+00  0.00000000000E+00  0.35740347158E-01  0.35744000000E-01  0.51099999109E-03 0. -1.
       11   -1    0    0    0    0 -0.00000000000E+00 -0.00000000000E+00 -0.35740347158E-01  0.35744000000E-01  0.51099999109E-03 0.  1.
       22    1    1    2    0    0  0.81413434886E-02 -0.70181402010E-02 -0.24960091925E-01  0.27176128396E-01  0.00000000000E+00 0.  1.
  9000001    1    1    2    0    0 -0.81413434886E-02  0.70181402010E-02  0.24960091925E-01  0.44311871604E-01  0.35000000149E-01 0. -1.
</event>
<event>
 4   0  0.4334200E-01  0.9118800E+02  0.7818609E-02  0.1379984E+01
      -11   -1    0    0    0    0  0.00000000000E+00  0.00000000000E+00  0.35740347158E-01  0.35744000000E-01  0.51099999109E-03 0. -1.
       11   -1    0    0    0    0 -0.00000000000E+00 -0.00000000000E+00 -0.35740347158E-01  0.35744000000E-01  0.51099999109E-03 0.  1.
       22    1    1    2    0    0  0.56988182203E-02  0.68245117776E-02 -0.25680565891E-01  0.27176128396E-01  0.00000000000E+00 0.  1.
  9000001    1    1    2    0    0 -0.56988182203E-02 -0.68245117776E-02  0.25680565891E-01  0.44311871604E-01  0.35000000149E-01 0. -1.
</event>
<event>
 4   0  0.4334200E-01  0.9118800E+02  0.7818609E-02  0.1379984E+01
      -11   -1    0    0    0    0  0.00000000000E+00  0.00000000000E+00  0.35740347158E-01  0.35744000000E-01  0.51099999109E-03 0. -1.
       11   -1    0    0    0    0 -0.00000000000E+00 -0.00000000000E+00 -0.35740347158E-01  0.35744000000E-01  0.51099999109E-03 0.  1.
       22    1    1    2    0    0 -0.22518220954E-01  0.25775310448E-02  0.14994266017E-01  0.27176128396E-01  0.00000000000E+00 0.  1.
  9000001    1    1    2    0    0  0.22518220954E-01 -0.25775310448E-02 -0.14994266017E-01  0.44311871604E-01  0.35000000149E-01 0.  0.
</event>
<event>
 4   0  0.4334200E-01  0.9118800E+02  0.7818609E-02  0.1379984E+01
      -11   -1    0    0    0    0  0.00000000000E+00  0.00000000000E+00  0.35740347158E-01  0.35744000000E-01  0.51099999109E-03 0.  1.
       11   -1    0    0    0    0 -0.00000000000E+00 -0.00000000000E+00 -0.35740347158E-01  0.35744000000E-01  0.51099999109E-03 0. -1.
       22    1    1    2    0    0 -0.80440969983E-02 -0.13301158908E-01 -0.22291559609E-01  0.27176128396E-01  0.00000000000E+00 0.  1.
  9000001    1    1    2    0    0  0.80440969983E-02  0.13301158908E-01  0.22291559609E-01  0.44311871604E-01  0.35000000149E-01 0.  0.
</event>
<event>
 4   0  0.4334200E-01  0.9118800E+02  0.7818609E-02  0.1379984E+01
      -11   -1    0    0    0    0  0.00000000000E+00  0.00000000000E+00  0.35740347158E-01  0.35744000000E-01  0.51099999109E-03 0. -1.
       11   -1    0    0    0    0 -0.00000000000E+00 -0.00000000000E+00 -0.35740347158E-01  0.35744000000E-01  0.51099999109E-03 0.  1.
       22    1    1    2    0    0  0.11486410631E-01 -0.11739890474E-02  0.24601342954E-01  0.27176128396E-01  0.00000000000E+00 0. -1.
  9000001    1    1    2    0    0 -0.11486410631E-01  0.11739890474E-02 -0.24601342954E-01  0.44311871604E-01  0.35000000149E-01 0.  1.
</event>
<event>
 4   0  0.4334200E-01  0.9118800E+02  0.7818609E-02  0.1379984E+01
      -11   -1    0    0    0    0  0.00000000000E+00  0.00000000000E+00  0.35740347158E-01  0.35744000000E-01  0.51099999109E-03 0. -1.
       11   -1    0    0    0    0 -0.00000000000E+00 -0.00000000000E+00 -0.35740347158E-01  0.35744000000E-01  0.51099999109E-03 0.  1.
       22    1    1    2    0    0  0.37822062505E-02  0.23242760044E-02  0.26811091204E-01  0.27176128396E-01  0.00000000000E+00 0. -1.
  9000001    1    1    2    0    0 -0.37822062505E-02 -0.23242760044E-02 -0.26811091204E-01  0.44311871604E-01  0.35000000149E-01 0.  1.
</event>
<event>
 4   0  0.4334200E-01  0.9118800E+02  0.7818609E-02  0.1379984E+01
      -11   -1    0    0    0    0  0.00000000000E+00  0.00000000000E+00  0.35740347158E-01  0.35744000000E-01  0.51099999109E-03 0.  1.
       11   -1    0    0    0    0 -0.00000000000E+00 -0.00000000000E+00 -0.35740347158E-01  0.35744000000E-01  0.51099999109E-03 0. -1.
       22    1    1    2    0    0  0.40348278426E-02  0.83066758096E-04  0.26874806396E-01  0.27176128396E-01  0.00000000000E+00 0.  1.
  9000001    1    1    2    0    0 -0.40348278426E-02 -0.83066758096E-04 -0.26874806396E-01  0.44311871604E-01  0.35000000149E-01 0. -1.
</event>
<event>
 4   0  0.4334200E-01  0.9118800E+02  0.7818609E-02  0.1379984E+01
      -11   -1    0    0    0    0  0.00000000000E+00  0.00000000000E+00  0.35740347158E-01  0.35744000000E-01  0.51099999109E-03 0.  1.
       11   -1    0    0    0    0 -0.00000000000E+00 -0.00000000000E+00 -0.35740347158E-01  0.35744000000E-01  0.51099999109E-03 0. -1.
       22    1    1    2    0    0 -0.18125363821E-02  0.32449083396E-02 -0.26920758465E-01  0.27176128396E-01  0.00000000000E+00 0. -1.
  9000001    1    1    2    0    0  0.18125363821E-02 -0.32449083396E-02  0.26920758465E-01  0.44311871604E-01  0.35000000149E-01 0.  1.
</event>
<event>
 4   0  0.4334200E-01  0.9118800E+02  0.7818609E-02  0.1379984E+01
      -11   -1    0    0    0    0  0.00000000000E+00  0.00000000000E+00  0.35740347158E-01  0.35744000000E-01  0.51099999109E-03 0.  1.
       11   -1    0    0    0    0 -0.00000000000E+00 -0.00000000000E+00 -0.35740347158E-01  0.35744000000E-01  0.51099999109E-03 0. -1.
       22    1    1    2    0    0 -0.42382378235E-02 -0.56997704735E-02 -0.26231506082E-01  0.27176128396E-01  0.00000000000E+00 0. -1.
  9000001    1    1    2    0    0  0.42382378235E-02  0.56997704735E-02  0.26231506082E-01  0.44311871604E-01  0.35000000149E-01 0.  1.
</event>
<event>
 4   0  0.4334200E-01  0.9118800E+02  0.7818609E-02  0.1379984E+01
      -11   -1    0    0    0    0  0.00000000000E+00  0.00000000000E+00  0.35740347158E-01  0.35744000000E-01  0.51099999109E-03 0.  1.
       11   -1    0    0    0    0 -0.00000000000E+00 -0.00000000000E+00 -0.35740347158E-01  0.35744000000E-01  0.51099999109E-03 0. -1.
       22    1    1    2    0    0 -0.45167199550E-03  0.19566370746E-01 -0.18854577239E-01  0.27176128396E-01  0.00000000000E+00 0.  1.
  9000001    1    1    2    0    0  0.45167199550E-03 -0.19566370746E-01  0.18854577239E-01  0.44311871604E-01  0.35000000149E-01 0.  1.
</event>
<event>
 4   0  0.4334200E-01  0.9118800E+02  0.7818609E-02  0.1379984E+01
      -11   -1    0    0    0    0  0.00000000000E+00  0.00000000000E+00  0.35740347158E-01  0.35744000000E-01  0.51099999109E-03 0. -1.
       11   -1    0    0    0    0 -0.00000000000E+00 -0.00000000000E+00 -0.35740347158E-01  0.35744000000E-01  0.51099999109E-03 0.  1.
       22    1    1    2    0    0  0.46140417849E-02  0.77661370171E-02 -0.25630834728E-01  0.27176128396E-01  0.00000000000E+00 0.  1.
  9000001    1    1    2    0    0 -0.46140417849E-02 -0.77661370171E-02  0.25630834728E-01  0.44311871604E-01  0.35000000149E-01 0. -1.
</event>
<event>
 4   0  0.4334200E-01  0.9118800E+02  0.7818609E-02  0.1379984E+01
      -11   -1    0    0    0    0  0.00000000000E+00  0.00000000000E+00  0.35740347158E-01  0.35744000000E-01  0.51099999109E-03 0. -1.
       11   -1    0    0    0    0 -0.00000000000E+00 -0.00000000000E+00 -0.35740347158E-01  0.35744000000E-01  0.51099999109E-03 0.  1.
       22    1    1    2    0    0  0.20200980015E-01 -0.16645485678E-01 -0.73068575724E-02  0.27176128396E-01  0.00000000000E+00 0. -1.
  9000001    1    1    2    0    0 -0.20200980015E-01  0.16645485678E-01  0.73068575724E-02  0.44311871604E-01  0.35000000149E-01 0.  1.
</event>
<event>
 4   0  0.4334200E-01  0.9118800E+02  0.7818609E-02  0.1379984E+01
      -11   -1    0    0    0    0  0.00000000000E+00  0.00000000000E+00  0.35740347158E-01  0.35744000000E-01  0.51099999109E-03 0. -1.
       11   -1    0    0    0    0 -0.00000000000E+00 -0.00000000000E+00 -0.35740347158E-01  0.35744000000E-01  0.51099999109E-03 0.  1.
       22    1    1    2    0    0 -0.10888788945E-01  0.79100134332E-02  0.23609487868E-01  0.27176128396E-01  0.00000000000E+00 0. -1.
  9000001    1    1    2    0    0  0.10888788945E-01 -0.79100134332E-02 -0.23609487868E-01  0.44311871604E-01  0.35000000149E-01 0.  1.
</event>
<event>
 4   0  0.4334200E-01  0.9118800E+02  0.7818609E-02  0.1379984E+01
      -11   -1    0    0    0    0  0.00000000000E+00  0.00000000000E+00  0.35740347158E-01  0.35744000000E-01  0.51099999109E-03 0. -1.
       11   -1    0    0    0    0 -0.00000000000E+00 -0.00000000000E+00 -0.35740347158E-01  0.35744000000E-01  0.51099999109E-03 0.  1.
       22    1    1    2    0    0 -0.73023293487E-03 -0.39239124186E-02 -0.26881436453E-01  0.27176128396E-01  0.00000000000E+00 0.  1.
  9000001    1    1    2    0    0  0.73023293487E-03  0.39239124186E-02  0.26881436453E-01  0.44311871604E-01  0.35000000149E-01 0. -1.
</event>
<event>
 4   0  0.4334200E-01  0.9118800E+02  0.7818609E-02  0.1379984E+01
      -11   -1    0    0    0    0  0.00000000000E+00  0.00000000000E+00  0.35740347158E-01  0.35744000000E-01  0.51099999109E-03 0.  1.
       11   -1    0    0    0    0 -0.00000000000E+00 -0.00000000000E+00 -0.35740347158E-01  0.35744000000E-01  0.51099999109E-03 0. -1.
       22    1    1    2    0    0 -0.18144986767E-01  0.20140791401E-01 -0.19104794065E-02  0.27176128396E-01  0.00000000000E+00 0. -1.
  9000001    1    1    2    0    0  0.18144986767E-01 -0.20140791401E-01  0.19104794065E-02  0.44311871604E-01  0.35000000149E-01 0.  1.
</event>
<event>
 4   0  0.4334200E-01  0.9118800E+02  0.7818609E-02  0.1379984E+01
      -11   -1    0    0    0    0  0.00000000000E+00  0.00000000000E+00  0.35740347158E-01  0.35744000000E-01  0.51099999109E-03 0.  1.
       11   -1    0    0    0    0 -0.00000000000E+00 -0.00000000000E+00 -0.35740347158E-01  0.35744000000E-01  0.51099999109E-03 0. -1.
       22    1    1    2    0    0 -0.83403857263E-02 -0.20269286051E-01  0.16066610207E-01  0.27176128396E-01  0.00000000000E+00 0.  1.
  9000001    1    1    2    0    0  0.83403857263E-02  0.20269286051E-01 -0.16066610207E-01  0.44311871604E-01  0.35000000149E-01 0. -1.
</event>
<event>
 4   0  0.4334200E-01  0.9118800E+02  0.7818609E-02  0.1379984E+01
      -11   -1    0    0    0    0  0.00000000000E+00  0.00000000000E+00  0.35740347158E-01  0.35744000000E-01  0.51099999109E-03 0.  1.
       11   -1    0    0    0    0 -0.00000000000E+00 -0.00000000000E+00 -0.35740347158E-01  0.35744000000E-01  0.51099999109E-03 0. -1.
       22    1    1    2    0    0 -0.82362269675E-03  0.66705781151E-02 -0.26331862598E-01  0.27176128396E-01  0.00000000000E+00 0. -1.
  9000001    1    1    2    0    0  0.82362269675E-03 -0.66705781151E-02  0.26331862598E-01  0.44311871604E-01  0.35000000149E-01 0.  1.
</event>
<event>
 4   0  0.4334200E-01  0.9118800E+02  0.7818609E-02  0.1379984E+01
      -11   -1    0    0    0    0  0.00000000000E+00  0.00000000000E+00  0.35740347158E-01  0.35744000000E-01  0.51099999109E-03 0.  1.
       11   -1    0    0    0    0 -0.00000000000E+00 -0.00000000000E+00 -0.35740347158E-01  0.35744000000E-01  0.51099999109E-03 0. -1.
       22    1    1    2    0    0 -0.76321928050E-02 -0.28100174680E-02  0.25930587911E-01  0.27176128396E-01  0.00000000000E+00 0.  1.
  9000001    1    1    2    0    0  0.76321928050E-02  0.28100174680E-02 -0.25930587911E-01  0.44311871604E-01  0.35000000149E-01 0. -1.
</event>
<event>
 4   0  0.4334200E-01  0.9118800E+02  0.7818609E-02  0.1379984E+01
      -11   -1    0    0    0    0  0.00000000000E+00  0.00000000000E+00  0.35740347158E-01  0.35744000000E-01  0.51099999109E-03 0. -1.
       11   -1    0    0    0    0 -0.00000000000E+00 -0.00000000000E+00 -0.35740347158E-01  0.35744000000E-01  0.51099999109E-03 0.  1.
       22    1    1    2    0    0 -0.36291346049E-02  0.22011148580E-02 -0.26842623382E-01  0.27176128396E-01  0.00000000000E+00 0.  1.
  9000001    1    1    2    0    0  0.36291346049E-02 -0.22011148580E-02  0.26842623382E-01  0.44311871604E-01  0.35000000149E-01 0. -1.
</event>
<event>
 4   0  0.4334200E-01  0.9118800E+02  0.7818609E-02  0.1379984E+01
      -11   -1    0    0    0    0  0.00000000000E+00  0.00000000000E+00  0.35740347158E-01  0.35744000000E-01  0.51099999109E-03 0. -1.
       11   -1    0    0    0    0 -0.00000000000E+00 -0.00000000000E+00 -0.35740347158E-01  0.35744000000E-01  0.51099999109E-03 0.  1.
       22    1    1    2    0    0 -0.12863572974E-01 -0.10695924905E-01 -0.21416527155E-01  0.27176128396E-01  0.00000000000E+00 0.  1.
  9000001    1    1    2    0    0  0.12863572974E-01  0.10695924905E-01  0.21416527155E-01  0.44311871604E-01  0.35000000149E-01 0. -1.
</event>
<event>
 4   0  0.4334200E-01  0.9118800E+02  0.7818609E-02  0.1379984E+01
      -11   -1    0    0    0    0  0.00000000000E+00  0.00000000000E+00  0.35740347158E-01  0.35744000000E-01  0.51099999109E-03 0. -1.
       11   -1    0    0    0    0 -0.00000000000E+00 -0.00000000000E+00 -0.35740347158E-01  0.35744000000E-01  0.51099999109E-03 0.  1.
       22    1    1    2    0    0  0.19775989864E-02  0.36398118968E-02 -0.26858570815E-01  0.27176128396E-01  0.00000000000E+00 0.  1.
  9000001    1    1    2    0    0 -0.19775989864E-02 -0.36398118968E-02  0.26858570815E-01  0.44311871604E-01  0.35000000149E-01 0. -1.
</event>
<event>
 4   0  0.4334200E-01  0.9118800E+02  0.7818609E-02  0.1379984E+01
      -11   -1    0    0    0    0  0.00000000000E+00  0.00000000000E+00  0.35740347158E-01  0.35744000000E-01  0.51099999109E-03 0. -1.
       11   -1    0    0    0    0 -0.00000000000E+00 -0.00000000000E+00 -0.35740347158E-01  0.35744000000E-01  0.51099999109E-03 0.  1.
       22    1    1    2    0    0  0.30503519119E-02 -0.45266311217E-02  0.26622301150E-01  0.27176128396E-01  0.00000000000E+00 0. -1.
  9000001    1    1    2    0    0 -0.30503519119E-02  0.45266311217E-02 -0.26622301150E-01  0.44311871604E-01  0.35000000149E-01 0.  1.
</event>
<event>
 4   0  0.4334200E-01  0.9118800E+02  0.7818609E-02  0.1379984E+01
      -11   -1    0    0    0    0  0.00000000000E+00  0.00000000000E+00  0.35740347158E-01  0.35744000000E-01  0.51099999109E-03 0. -1.
       11   -1    0    0    0    0 -0.00000000000E+00 -0.00000000000E+00 -0.35740347158E-01  0.35744000000E-01  0.51099999109E-03 0.  1.
       22    1    1    2    0    0 -0.94113361774E-04 -0.66283761208E-02  0.26355222012E-01  0.27176128396E-01  0.00000000000E+00 0. -1.
  9000001    1    1    2    0    0  0.94113361774E-04  0.66283761208E-02 -0.26355222012E-01  0.44311871604E-01  0.35000000149E-01 0.  1.
</event>
<event>
 4   0  0.4334200E-01  0.9118800E+02  0.7818609E-02  0.1379984E+01
      -11   -1    0    0    0    0  0.00000000000E+00  0.00000000000E+00  0.35740347158E-01  0.35744000000E-01  0.51099999109E-03 0.  1.
       11   -1    0    0    0    0 -0.00000000000E+00 -0.00000000000E+00 -0.35740347158E-01  0.35744000000E-01  0.51099999109E-03 0. -1.
       22    1    1    2    0    0  0.37190562545E-02 -0.30641892766E-02 -0.26745491569E-01  0.27176128396E-01  0.00000000000E+00 0. -1.
  9000001    1    1    2    0    0 -0.37190562545E-02  0.30641892766E-02  0.26745491569E-01  0.44311871604E-01  0.35000000149E-01 0.  1.
</event>
<event>
 4   0  0.4334200E-01  0.9118800E+02  0.7818609E-02  0.1379984E+01
      -11   -1    0    0    0    0  0.00000000000E+00  0.00000000000E+00  0.35740347158E-01  0.35744000000E-01  0.51099999109E-03 0. -1.
       11   -1    0    0    0    0 -0.00000000000E+00 -0.00000000000E+00 -0.35740347158E-01  0.35744000000E-01  0.51099999109E-03 0.  1.
       22    1    1    2    0    0 -0.51486805086E-02 -0.83740039770E-03 -0.26670804341E-01  0.27176128396E-01  0.00000000000E+00 0.  1.
  9000001    1    1    2    0    0  0.51486805086E-02  0.83740039770E-03  0.26670804341E-01  0.44311871604E-01  0.35000000149E-01 0. -1.
</event>
<event>
 4   0  0.4334200E-01  0.9118800E+02  0.7818609E-02  0.1379984E+01
      -11   -1    0    0    0    0  0.00000000000E+00  0.00000000000E+00  0.35740347158E-01  0.35744000000E-01  0.51099999109E-03 0.  1.
       11   -1    0    0    0    0 -0.00000000000E+00 -0.00000000000E+00 -0.35740347158E-01  0.35744000000E-01  0.51099999109E-03 0. -1.
       22    1    1    2    0    0  0.98257196022E-02  0.25216147736E-01 -0.24785242078E-02  0.27176128396E-01  0.00000000000E+00 0. -1.
  9000001    1    1    2    0    0 -0.98257196022E-02 -0.25216147736E-01  0.24785242078E-02  0.44311871604E-01  0.35000000149E-01 0.  1.
</event>
<event>
 4   0  0.4334200E-01  0.9118800E+02  0.7818609E-02  0.1379984E+01
      -11   -1    0    0    0    0  0.00000000000E+00  0.00000000000E+00  0.35740347158E-01  0.35744000000E-01  0.51099999109E-03 0. -1.
       11   -1    0    0    0    0 -0.00000000000E+00 -0.00000000000E+00 -0.35740347158E-01  0.35744000000E-01  0.51099999109E-03 0.  1.
       22    1    1    2    0    0 -0.25038892165E-01  0.24652759300E-02 -0.10272207568E-01  0.27176128396E-01  0.00000000000E+00 0. -1.
  9000001    1    1    2    0    0  0.25038892165E-01 -0.24652759300E-02  0.10272207568E-01  0.44311871604E-01  0.35000000149E-01 0.  1.
</event>
<event>
 4   0  0.4334200E-01  0.9118800E+02  0.7818609E-02  0.1379984E+01
      -11   -1    0    0    0    0  0.00000000000E+00  0.00000000000E+00  0.35740347158E-01  0.35744000000E-01  0.51099999109E-03 0. -1.
       11   -1    0    0    0    0 -0.00000000000E+00 -0.00000000000E+00 -0.35740347158E-01  0.35744000000E-01  0.51099999109E-03 0.  1.
       22    1    1    2    0    0  0.30792195376E-02  0.75866233886E-03 -0.26990457445E-01  0.27176128396E-01  0.00000000000E+00 0.  1.
  9000001    1    1    2    0    0 -0.30792195376E-02 -0.75866233886E-03  0.26990457445E-01  0.44311871604E-01  0.35000000149E-01 0. -1.
</event>
<event>
 4   0  0.4334200E-01  0.9118800E+02  0.7818609E-02  0.1379984E+01
      -11   -1    0    0    0    0  0.00000000000E+00  0.00000000000E+00  0.35740347158E-01  0.35744000000E-01  0.51099999109E-03 0. -1.
       11   -1    0    0    0    0 -0.00000000000E+00 -0.00000000000E+00 -0.35740347158E-01  0.35744000000E-01  0.51099999109E-03 0.  1.
       22    1    1    2    0    0  0.75681274813E-02 -0.53223224403E-02  0.25552657100E-01  0.27176128396E-01  0.00000000000E+00 0. -1.
  9000001    1    1    2    0    0 -0.75681274813E-02  0.53223224403E-02 -0.25552657100E-01  0.44311871604E-01  0.35000000149E-01 0.  1.
</event>
<event>
 4   0  0.4334200E-01  0.9118800E+02  0.7818609E-02  0.1379984E+01
      -11   -1    0    0    0    0  0.00000000000E+00  0.00000000000E+00  0.35740347158E-01  0.35744000000E-01  0.51099999109E-03 0. -1.
       11   -1    0    0    0    0 -0.00000000000E+00 -0.00000000000E+00 -0.35740347158E-01  0.35744000000E-01  0.51099999109E-03 0.  1.
       22    1    1    2    0    0 -0.45033382133E-02  0.23468283304E-02  0.26697458612E-01  0.27176128396E-01  0.00000000000E+00 0. -1.
  9000001    1    1    2    0    0  0.45033382133E-02 -0.23468283304E-02 -0.26697458612E-01  0.44311871604E-01  0.35000000149E-01 0.  1.
</event>
<event>
 4   0  0.4334200E-01  0.9118800E+02  0.7818609E-02  0.1379984E+01
      -11   -1    0    0    0    0  0.00000000000E+00  0.00000000000E+00  0.35740347158E-01  0.35744000000E-01  0.51099999109E-03 0.  1.
       11   -1    0    0    0    0 -0.00000000000E+00 -0.00000000000E+00 -0.35740347158E-01  0.35744000000E-01  0.51099999109E-03 0. -1.
       22    1    1    2    0    0  0.59198084736E-02 -0.14422536546E-01  0.22259565625E-01  0.27176128396E-01  0.00000000000E+00 0.  1.
  9000001    1    1    2    0    0 -0.59198084736E-02  0.14422536546E-01 -0.22259565625E-01  0.44311871604E-01  0.35000000149E-01 0.  0.
</event>
<event>
 4   0  0.4334200E-01  0.9118800E+02  0.7818609E-02  0.1379984E+01
      -11   -1    0    0    0    0  0.00000000000E+00  0.00000000000E+00  0.35740347158E-01  0.35744000000E-01  0.51099999109E-03 0.  1.
       11   -1    0    0    0    0 -0.00000000000E+00 -0.00000000000E+00 -0.35740347158E-01  0.35744000000E-01  0.51099999109E-03 0. -1.
       22    1    1    2    0    0  0.70386158314E-02 -0.12418610744E-01  0.23125266463E-01  0.27176128396E-01  0.00000000000E+00 0.  1.
  9000001    1    1    2    0    0 -0.70386158314E-02  0.12418610744E-01 -0.23125266463E-01  0.44311871604E-01  0.35000000149E-01 0. -1.
</event>
<event>
 4   0  0.4334200E-01  0.9118800E+02  0.7818609E-02  0.1379984E+01
      -11   -1    0    0    0    0  0.00000000000E+00  0.00000000000E+00  0.35740347158E-01  0.35744000000E-01  0.51099999109E-03 0. -1.
       11   -1    0    0    0    0 -0.00000000000E+00 -0.00000000000E+00 -0.35740347158E-01  0.35744000000E-01  0.51099999109E-03 0.  1.
       22    1    1    2    0    0 -0.62694498882E-02  0.61649873903E-02  0.25714371141E-01  0.27176128396E-01  0.00000000000E+00 0. -1.
  9000001    1    1    2    0    0  0.62694498882E-02 -0.61649873903E-02 -0.25714371141E-01  0.44311871604E-01  0.35000000149E-01 0.  1.
</event>
<event>
 4   0  0.4334200E-01  0.9118800E+02  0.7818609E-02  0.1379984E+01
      -11   -1    0    0    0    0  0.00000000000E+00  0.00000000000E+00  0.35740347158E-01  0.35744000000E-01  0.51099999109E-03 0. -1.
       11   -1    0    0    0    0 -0.00000000000E+00 -0.00000000000E+00 -0.35740347158E-01  0.35744000000E-01  0.51099999109E-03 0.  1.
       22    1    1    2    0    0 -0.10221143032E-02  0.87116017977E-02 -0.25721687951E-01  0.27176128396E-01  0.00000000000E+00 0.  1.
  9000001    1    1    2    0    0  0.10221143032E-02 -0.87116017977E-02  0.25721687951E-01  0.44311871604E-01  0.35000000149E-01 0. -1.
</event>
<event>
 4   0  0.4334200E-01  0.9118800E+02  0.7818609E-02  0.1379984E+01
      -11   -1    0    0    0    0  0.00000000000E+00  0.00000000000E+00  0.35740347158E-01  0.35744000000E-01  0.51099999109E-03 0. -1.
       11   -1    0    0    0    0 -0.00000000000E+00 -0.00000000000E+00 -0.35740347158E-01  0.35744000000E-01  0.51099999109E-03 0.  1.
       22    1    1    2    0    0  0.10358240697E-01 -0.55974463369E-02  0.24493211279E-01  0.27176128396E-01  0.00000000000E+00 0. -1.
  9000001    1    1    2    0    0 -0.10358240697E-01  0.55974463369E-02 -0.24493211279E-01  0.44311871604E-01  0.35000000149E-01 0.  1.
</event>
<event>
 4   0  0.4334200E-01  0.9118800E+02  0.7818609E-02  0.1379984E+01
      -11   -1    0    0    0    0  0.00000000000E+00  0.00000000000E+00  0.35740347158E-01  0.35744000000E-01  0.51099999109E-03 0. -1.
       11   -1    0    0    0    0 -0.00000000000E+00 -0.00000000000E+00 -0.35740347158E-01  0.35744000000E-01  0.51099999109E-03 0.  1.
       22    1    1    2    0    0 -0.17126475434E-01 -0.52927452114E-02  0.20425783754E-01  0.27176128396E-01  0.00000000000E+00 0. -1.
  9000001    1    1    2    0    0  0.17126475434E-01  0.52927452114E-02 -0.20425783754E-01  0.44311871604E-01  0.35000000149E-01 0.  1.
</event>
<event>
 4   0  0.4334200E-01  0.9118800E+02  0.7818609E-02  0.1379984E+01
      -11   -1    0    0    0    0  0.00000000000E+00  0.00000000000E+00  0.35740347158E-01  0.35744000000E-01  0.51099999109E-03 0. -1.
       11   -1    0    0    0    0 -0.00000000000E+00 -0.00000000000E+00 -0.35740347158E-01  0.35744000000E-01  0.51099999109E-03 0.  1.
       22    1    1    2    0    0 -0.13142728545E-01 -0.17430792920E-01  0.16185737523E-01  0.27176128396E-01  0.00000000000E+00 0. -1.
  9000001    1    1    2    0    0  0.13142728545E-01  0.17430792920E-01 -0.16185737523E-01  0.44311871604E-01  0.35000000149E-01 0.  1.
</event>
<event>
 4   0  0.4334200E-01  0.9118800E+02  0.7818609E-02  0.1379984E+01
      -11   -1    0    0    0    0  0.00000000000E+00  0.00000000000E+00  0.35740347158E-01  0.35744000000E-01  0.51099999109E-03 0.  1.
       11   -1    0    0    0    0 -0.00000000000E+00 -0.00000000000E+00 -0.35740347158E-01  0.35744000000E-01  0.51099999109E-03 0. -1.
       22    1    1    2    0    0  0.10332757513E-01 -0.32668601498E-02 -0.24921952202E-01  0.27176128396E-01  0.00000000000E+00 0. -1.
  9000001    1    1    2    0    0 -0.10332757513E-01  0.32668601498E-02  0.24921952202E-01  0.44311871604E-01  0.35000000149E-01 0.  1.
</event>
<event>
 4   0  0.4334200E-01  0.9118800E+02  0.7818609E-02  0.1379984E+01
      -11   -1    0    0    0    0  0.00000000000E+00  0.00000000000E+00  0.35740347158E-01  0.35744000000E-01  0.51099999109E-03 0. -1.
       11   -1    0    0    0    0 -0.00000000000E+00 -0.00000000000E+00 -0.35740347158E-01  0.35744000000E-01  0.51099999109E-03 0.  1.
       22    1    1    2    0    0  0.31201306197E-02  0.90747434451E-03  0.26981164353E-01  0.27176128396E-01  0.00000000000E+00 0. -1.
  9000001    1    1    2    0    0 -0.31201306197E-02 -0.90747434451E-03 -0.26981164353E-01  0.44311871604E-01  0.35000000149E-01 0.  1.
</event>
<event>
 4   0  0.4334200E-01  0.9118800E+02  0.7818609E-02  0.1379984E+01
      -11   -1    0    0    0    0  0.00000000000E+00  0.00000000000E+00  0.35740347158E-01  0.35744000000E-01  0.51099999109E-03 0. -1.
       11   -1    0    0    0    0 -0.00000000000E+00 -0.00000000000E+00 -0.35740347158E-01  0.35744000000E-01  0.51099999109E-03 0.  1.
       22    1    1    2    0    0  0.15339049418E-01  0.19396967680E-01  0.11270011639E-01  0.27176128396E-01  0.00000000000E+00 0. -1.
  9000001    1    1    2    0    0 -0.15339049418E-01 -0.19396967680E-01 -0.11270011639E-01  0.44311871604E-01  0.35000000149E-01 0.  1.
</event>
<event>
 4   0  0.4334200E-01  0.9118800E+02  0.7818609E-02  0.1379984E+01
      -11   -1    0    0    0    0  0.00000000000E+00  0.00000000000E+00  0.35740347158E-01  0.35744000000E-01  0.51099999109E-03 0. -1.
       11   -1    0    0    0    0 -0.00000000000E+00 -0.00000000000E+00 -0.35740347158E-01  0.35744000000E-01  0.51099999109E-03 0.  1.
       22    1    1    2    0    0 -0.22089786525E-01  0.10801134605E-01  0.11572328077E-01  0.27176128396E-01  0.00000000000E+00 0. -1.
  9000001    1    1    2    0    0  0.22089786525E-01 -0.10801134605E-01 -0.11572328077E-01  0.44311871604E-01  0.35000000149E-01 0.  0.
</event>
<event>
 4   0  0.4334200E-01  0.9118800E+02  0.7818609E-02  0.1379984E+01
      -11   -1    0    0    0    0  0.00000000000E+00  0.00000000000E+00  0.35740347158E-01  0.35744000000E-01  0.51099999109E-03 0.  1.
       11   -1    0    0    0    0 -0.00000000000E+00 -0.00000000000E+00 -0.35740347158E-01  0.35744000000E-01  0.51099999109E-03 0. -1.
       22    1    1    2    0    0 -0.90243254435E-02  0.63393565489E-02  0.24837795060E-01  0.27176128396E-01  0.00000000000E+00 0.  1.
  9000001    1    1    2    0    0  0.90243254435E-02 -0.63393565489E-02 -0.24837795060E-01  0.44311871604E-01  0.35000000149E-01 0. -1.
</event>
<event>
 4   0  0.4334200E-01  0.9118800E+02  0.7818609E-02  0.1379984E+01
      -11   -1    0    0    0    0  0.00000000000E+00  0.00000000000E+00  0.35740347158E-01  0.35744000000E-01  0.51099999109E-03 0.  1.
       11   -1    0    0    0    0 -0.00000000000E+00 -0.00000000000E+00 -0.35740347158E-01  0.35744000000E-01  0.51099999109E-03 0. -1.
       22    1    1    2    0    0 -0.11686318475E-02  0.12108705741E-01 -0.24301347689E-01  0.27176128396E-01  0.00000000000E+00 0. -1.
  9000001    1    1    2    0    0  0.11686318475E-02 -0.12108705741E-01  0.24301347689E-01  0.44311871604E-01  0.35000000149E-01 0.  1.
</event>
<event>
 4   0  0.4334200E-01  0.9118800E+02  0.7818609E-02  0.1379984E+01
      -11   -1    0    0    0    0  0.00000000000E+00  0.00000000000E+00  0.35740347158E-01  0.35744000000E-01  0.51099999109E-03 0.  1.
       11   -1    0    0    0    0 -0.00000000000E+00 -0.00000000000E+00 -0.35740347158E-01  0.35744000000E-01  0.51099999109E-03 0. -1.
       22    1    1    2    0    0 -0.36735752809E-02  0.51464647807E-02 -0.26430298892E-01  0.27176128396E-01  0.00000000000E+00 0. -1.
  9000001    1    1    2    0    0  0.36735752809E-02 -0.51464647807E-02  0.26430298892E-01  0.44311871604E-01  0.35000000149E-01 0.  1.
</event>
<event>
 4   0  0.4334200E-01  0.9118800E+02  0.7818609E-02  0.1379984E+01
      -11   -1    0    0    0    0  0.00000000000E+00  0.00000000000E+00  0.35740347158E-01  0.35744000000E-01  0.51099999109E-03 0. -1.
       11   -1    0    0    0    0 -0.00000000000E+00 -0.00000000000E+00 -0.35740347158E-01  0.35744000000E-01  0.51099999109E-03 0.  1.
       22    1    1    2    0    0  0.83161384044E-02 -0.19564989854E-01  0.16929116004E-01  0.27176128396E-01  0.00000000000E+00 0. -1.
  9000001    1    1    2    0    0 -0.83161384044E-02  0.19564989854E-01 -0.16929116004E-01  0.44311871604E-01  0.35000000149E-01 0.  1.
</event>
<event>
 4   0  0.4334200E-01  0.9118800E+02  0.7818609E-02  0.1379984E+01
      -11   -1    0    0    0    0  0.00000000000E+00  0.00000000000E+00  0.35740347158E-01  0.35744000000E-01  0.51099999109E-03 0. -1.
       11   -1    0    0    0    0 -0.00000000000E+00 -0.00000000000E+00 -0.35740347158E-01  0.35744000000E-01  0.51099999109E-03 0.  1.
       22    1    1    2    0    0 -0.15115232566E-01 -0.22215449647E-01 -0.40676155272E-02  0.27176128396E-01  0.00000000000E+00 0. -1.
  9000001    1    1    2    0    0  0.15115232566E-01  0.22215449647E-01  0.40676155272E-02  0.44311871604E-01  0.35000000149E-01 0.  1.
</event>
<event>
 4   0  0.4334200E-01  0.9118800E+02  0.7818609E-02  0.1379984E+01
      -11   -1    0    0    0    0  0.00000000000E+00  0.00000000000E+00  0.35740347158E-01  0.35744000000E-01  0.51099999109E-03 0. -1.
       11   -1    0    0    0    0 -0.00000000000E+00 -0.00000000000E+00 -0.35740347158E-01  0.35744000000E-01  0.51099999109E-03 0.  1.
       22    1    1    2    0    0 -0.42443617405E-02 -0.52942233809E-02  0.26315367123E-01  0.27176128396E-01  0.00000000000E+00 0. -1.
  9000001    1    1    2    0    0  0.42443617405E-02  0.52942233809E-02 -0.26315367123E-01  0.44311871604E-01  0.35000000149E-01 0.  1.
</event>
<event>
 4   0  0.4334200E-01  0.9118800E+02  0.7818609E-02  0.1379984E+01
      -11   -1    0    0    0    0  0.00000000000E+00  0.00000000000E+00  0.35740347158E-01  0.35744000000E-01  0.51099999109E-03 0.  1.
       11   -1    0    0    0    0 -0.00000000000E+00 -0.00000000000E+00 -0.35740347158E-01  0.35744000000E-01  0.51099999109E-03 0. -1.
       22    1    1    2    0    0  0.95429079746E-02 -0.63681464576E-02 -0.24635778305E-01  0.27176128396E-01  0.00000000000E+00 0. -1.
  9000001    1    1    2    0    0 -0.95429079746E-02  0.63681464576E-02  0.24635778305E-01  0.44311871604E-01  0.35000000149E-01 0.  1.
</event>
<event>
 4   0  0.4334200E-01  0.9118800E+02  0.7818609E-02  0.1379984E+01
      -11   -1    0    0    0    0  0.00000000000E+00  0.00000000000E+00  0.35740347158E-01  0.35744000000E-01  0.51099999109E-03 0.  1.
       11   -1    0    0    0    0 -0.00000000000E+00 -0.00000000000E+00 -0.35740347158E-01  0.35744000000E-01  0.51099999109E-03 0. -1.
       22    1    1    2    0    0  0.15622887858E-02 -0.82522419694E-02 -0.25845729064E-01  0.27176128396E-01  0.00000000000E+00 0. -1.
  9000001    1    1    2    0    0 -0.15622887858E-02  0.82522419694E-02  0.25845729064E-01  0.44311871604E-01  0.35000000149E-01 0.  1.
</event>
<event>
 4   0  0.4334200E-01  0.9118800E+02  0.7818609E-02  0.1379984E+01
      -11   -1    0    0    0    0  0.00000000000E+00  0.00000000000E+00  0.35740347158E-01  0.35744000000E-01  0.51099999109E-03 0. -1.
       11   -1    0    0    0    0 -0.00000000000E+00 -0.00000000000E+00 -0.35740347158E-01  0.35744000000E-01  0.51099999109E-03 0.  1.
       22    1    1    2    0    0  0.32276483110E-02 -0.75798338047E-02 -0.25897304116E-01  0.27176128396E-01  0.00000000000E+00 0.  1.
  9000001    1    1    2    0    0 -0.32276483110E-02  0.75798338047E-02  0.25897304116E-01  0.44311871604E-01  0.35000000149E-01 0. -1.
</event>
<event>
 4   0  0.4334200E-01  0.9118800E+02  0.7818609E-02  0.1379984E+01
      -11   -1    0    0    0    0  0.00000000000E+00  0.00000000000E+00  0.35740347158E-01  0.35744000000E-01  0.51099999109E-03 0.  1.
       11   -1    0    0    0    0 -0.00000000000E+00 -0.00000000000E+00 -0.35740347158E-01  0.35744000000E-01  0.51099999109E-03 0. -1.
       22    1    1    2    0    0  0.10581936315E-01 -0.45502463667E-03 -0.25027135893E-01  0.27176128396E-01  0.00000000000E+00 0. -1.
  9000001    1    1    2    0    0 -0.10581936315E-01  0.45502463667E-03  0.25027135893E-01  0.44311871604E-01  0.35000000149E-01 0.  1.
</event>
<event>
 4   0  0.4334200E-01  0.9118800E+02  0.7818609E-02  0.1379984E+01
      -11   -1    0    0    0    0  0.00000000000E+00  0.00000000000E+00  0.35740347158E-01  0.35744000000E-01  0.51099999109E-03 0.  1.
       11   -1    0    0    0    0 -0.00000000000E+00 -0.00000000000E+00 -0.35740347158E-01  0.35744000000E-01  0.51099999109E-03 0. -1.
       22    1    1    2    0    0 -0.14894949582E-01  0.11059020297E-01 -0.19859015626E-01  0.27176128396E-01  0.00000000000E+00 0. -1.
  9000001    1    1    2    0    0  0.14894949582E-01 -0.11059020297E-01  0.19859015626E-01  0.44311871604E-01  0.35000000149E-01 0.  1.
</event>
<event>
 4   0  0.4334200E-01  0.9118800E+02  0.7818609E-02  0.1379984E+01
      -11   -1    0    0    0    0  0.00000000000E+00  0.00000000000E+00  0.35740347158E-01  0.35744000000E-01  0.51099999109E-03 0. -1.
       11   -1    0    0    0    0 -0.00000000000E+00 -0.00000000000E+00 -0.35740347158E-01  0.35744000000E-01  0.51099999109E-03 0.  1.
       22    1    1    2    0    0  0.12490583821E-01 -0.90309272415E-02 -0.22382350716E-01  0.27176128396E-01  0.00000000000E+00 0.  1.
  9000001    1    1    2    0    0 -0.12490583821E-01  0.90309272415E-02  0.22382350716E-01  0.44311871604E-01  0.35000000149E-01 0. -1.
</event>
</LesHouchesEvents>
