<LesHouchesEvents version="3.0">
<header>
<!--
#*********************************************************************
#                                                                    *
#                        MadGraph5_aMC@NLO                           *
#                                                                    *
#                           Going Beyond                             *
#                                                                    *
#                   http://madgraph.hep.uiuc.edu                     *
#                   http://madgraph.phys.ucl.ac.be                   *
#                   http://amcatnlo.cern.ch                          *
#                                                                    *
#                     The MadGraph5_aMC@NLO team                     *
#                                                                    *
#....................................................................*
#                                                                    *
# This file contains all the information necessary to reproduce      *
# the events generated:                                              *
#                                                                    *
# 1. software version                                                *
# 2. proc_card          : code generation info including model       *
# 3. param_card         : model primary parameters in the LH format  *
# 4. run_card           : running parameters (collider and cuts)     *
# 5. pythia_card        : present only if pythia has been run        *
# 6. pgs_card           : present only if pgs has been run           *
# 7. delphes_cards      : present only if delphes has been run       *
#                                                                    *
#                                                                    *
#*********************************************************************
-->
<MGVersion>
#5.2.1.2
</MGVersion>
<MG5ProcCard>
#************************************************************
#*                     MadGraph5_aMC@NLO                    *
#*                                                          *
#*                *                       *                 *
#*                  *        * *        *                   *
#*                    * * * * 5 * * * *                     *
#*                  *        * *        *                   *
#*                *                       *                 *
#*                                                          *
#*                                                          *
#*         VERSION 2.1.2                 2014-07-03         *
#*                                                          *
#*    The MadGraph5_aMC@NLO Development Team - Find us at   *
#*    https://server06.fynu.ucl.ac.be/projects/madgraph     *
#*                                                          *
#************************************************************
#*                                                          *
#*               Command File for MadGraph5_aMC@NLO         *
#*                                                          *
#*     run as ./bin/mg5_aMC  filename                       *
#*                                                          *
#************************************************************
set group_subprocesses Auto
set ignore_six_quark_processes False
set gauge unitary
set complex_mass_scheme False
import model sm-lepton_masses
define p = g u c d s u~ c~ d~ s~
define j = g u c d s u~ c~ d~ s~
define l+ = e+ mu+
define l- = e- mu-
define vl = ve vm vt
define vl~ = ve~ vm~ vt~
generate e+ e- > a a a
output ../../e+e-2yyy
</MG5ProcCard>
<MGProcCard>
#*********************************************************************
#                        MadGraph/MadEvent                           *
#                   http://madgraph.hep.uiuc.edu                     *
#                                                                    *
#                          proc_card.dat                             *
#*********************************************************************
#                                                                    *
#            This Files is generated by MADGRAPH 5                   *
#                                                                    *
# WARNING: This Files is generated for MADEVENT (compatibility issue)*
#          This files is NOT a valid MG4 proc_card.dat               *
#          Running this in MG4 will NEVER reproduce the result of MG5*
#                                                                    *
#*********************************************************************
#*********************************************************************
# Process(es) requested : mg2 input                                  *
#*********************************************************************
# Begin PROCESS # This is TAG. Do not modify this line
e+ e- > a a a           #Process
# Be carefull the coupling are here in MG5 convention
          
end_coup           # End the couplings input

done               # this tells MG there are no more procs
# End PROCESS  # This is TAG. Do not modify this line
#*********************************************************************
# Model information                                                  *
#*********************************************************************
# Begin MODEL  # This is TAG. Do not modify this line
sm-lepton_masses
# End   MODEL  # This is TAG. Do not modify this line
#*********************************************************************
# Start multiparticle definitions                                    *
#*********************************************************************
# Begin MULTIPARTICLES # This is TAG. Do not modify this line

# End  MULTIPARTICLES # This is TAG. Do not modify this line
</MGProcCard>
<MGRunCard>
#*********************************************************************
#                       MadGraph5_aMC@NLO                            *
#                                                                    *
#                     run_card.dat MadEvent                          *
#                                                                    *
#  This file is used to set the parameters of the run.               *
#                                                                    *
#  Some notation/conventions:                                        *
#                                                                    *
#   Lines starting with a '# ' are info or comments                  *
#                                                                    *
#   mind the format:   value    = variable     ! comment             *
#*********************************************************************
#
#*******************                                                 
# Running parameters
#*******************                                                 
#                                                                    
#*********************************************************************
# Tag name for the run (one word)                                    *
#*********************************************************************
  tag_1     = run_tag ! name of the run 
#*********************************************************************
# Run to generate the grid pack                                      *
#*********************************************************************
  .false.     = gridpack  !True = setting up the grid pack
#*********************************************************************
# Number of events and rnd seed                                      *
# Warning: Do not generate more than 1M events in a single run       *
# If you want to run Pythia, avoid more than 50k events in a run.    *
#*********************************************************************
  20000 = nevents ! Number of unweighted events requested 
 90 = iseed   ! rnd seed (0=assigned automatically=default))
#*********************************************************************
# Collider type and energy                                           *
# lpp: 0=No PDF, 1=proton, -1=antiproton, 2=photon from proton,      *
#                                         3=photon from electron     *
#*********************************************************************
        0     = lpp1    ! beam 1 type 
        -0     = lpp2    ! beam 2 type
     0.035     = ebeam1  ! beam 1 total energy in GeV
     0.035     = ebeam2  ! beam 2 total energy in GeV
#*********************************************************************
# Beam polarization from -100 (left-handed) to 100 (right-handed)    *
#*********************************************************************
        0     = polbeam1 ! beam polarization for beam 1
        0     = polbeam2 ! beam polarization for beam 2
#*********************************************************************
# PDF CHOICE: this automatically fixes also alpha_s and its evol.    *
#*********************************************************************
 'nn23lo1'    = pdlabel     ! PDF set                                     
#*********************************************************************
# Renormalization and factorization scales                           *
#*********************************************************************
 T        = fixed_ren_scale  ! if .true. use fixed ren scale
 T        = fixed_fac_scale  ! if .true. use fixed fac scale
 91.1880  = scale            ! fixed ren scale
 91.1880  = dsqrt_q2fact1    ! fixed fact scale for pdf1
 91.1880  = dsqrt_q2fact2    ! fixed fact scale for pdf2
 1        = scalefact        ! scale factor for event-by-event scales
#*********************************************************************
# Matching - Warning! ickkw > 1 is still beta
#*********************************************************************
 0        = ickkw            ! 0 no matching, 1 MLM, 2 CKKW matching
 1        = highestmult      ! for ickkw=2, highest mult group
 1        = ktscheme         ! for ickkw=1, 1 Durham kT, 2 Pythia pTE
 1        = alpsfact         ! scale factor for QCD emission vx
 F        = chcluster        ! cluster only according to channel diag
 T        = pdfwgt           ! for ickkw=1, perform pdf reweighting
 5        = asrwgtflavor     ! highest quark flavor for a_s reweight
 T        = clusinfo         ! include clustering tag in output
 3.0      = lhe_version       ! Change the way clustering information pass to shower.        
#*********************************************************************
#**********************************************************
#
#**********************************************************
# Automatic ptj and mjj cuts if xqcut > 0
# (turn off for VBF and single top processes)
#**********************************************************
   T  = auto_ptj_mjj  ! Automatic setting of ptj and mjj
#**********************************************************
#                                                                    
#**********************************
# BW cutoff (M+/-bwcutoff*Gamma)
#**********************************
  15  = bwcutoff      ! (M+/-bwcutoff*Gamma)
#**********************************************************
# Apply pt/E/eta/dr/mij cuts on decay products or not
# (note that etmiss/ptll/ptheavy/ht/sorted cuts always apply)
#**********************************************************
   T  = cut_decays    ! Cut decay products 
#*************************************************************
# Number of helicities to sum per event (0 = all helicities)
# 0 gives more stable result, but longer run time (needed for
# long decay chains e.g.).
# Use >=2 if most helicities contribute, e.g. pure QCD.
#*************************************************************
   0  = nhel          ! Number of helicities used per event
#*******************                                                 
# Standard Cuts
#*******************                                                 
#                                                                    
#*********************************************************************
# Minimum and maximum pt's (for max, -1 means no cut)                *
#*********************************************************************
 20  = ptj       ! minimum pt for the jets 
  0  = ptb       ! minimum pt for the b 
 0  = pta       ! minimum pt for the photons 
 0  = ptl       ! minimum pt for the charged leptons 
  0  = misset    ! minimum missing Et (sum of neutrino's momenta)
  0  = ptheavy   ! minimum pt for one heavy final state
 1.0 = ptonium   ! minimum pt for the quarkonium states
 -1  = ptjmax    ! maximum pt for the jets
 -1  = ptbmax    ! maximum pt for the b
 -1  = ptamax    ! maximum pt for the photons
 -1  = ptlmax    ! maximum pt for the charged leptons
 -1  = missetmax ! maximum missing Et (sum of neutrino's momenta)
#*********************************************************************
# Minimum and maximum E's (in the center of mass frame)              *
#*********************************************************************
  0  = ej     ! minimum E for the jets 
  0  = eb     ! minimum E for the b 
  0  = ea     ! minimum E for the photons 
  0  = el     ! minimum E for the charged leptons 
 -1   = ejmax ! maximum E for the jets
 -1   = ebmax ! maximum E for the b
 -1   = eamax ! maximum E for the photons
 -1   = elmax ! maximum E for the charged leptons
#*********************************************************************
# Maximum and minimum absolute rapidity (for max, -1 means no cut)   *
#*********************************************************************
   5  = etaj    ! max rap for the jets 
  -1  = etab    ! max rap for the b
  -1 = etaa
#  1.58619 = etaa    ! max rap for the photons 
 -1  = etal    ! max rap for the charged leptons 
 0.6  = etaonium ! max rap for the quarkonium states
   0  = etajmin ! min rap for the jets
   0  = etabmin ! min rap for the b
   0 = etaamin 
#   1.29833  = etaamin ! min rap for the photons
   0  = etalmin ! main rap for the charged leptons
#*********************************************************************
# Minimum and maximum DeltaR distance                                *
#*********************************************************************
 0.4 = drjj    ! min distance between jets 
 0   = drbb    ! min distance between b's 
 0.4 = drll    ! min distance between leptons 
 0 = draa    ! min distance between gammas 
 0   = drbj    ! min distance between b and jet 
 0.4 = draj    ! min distance between gamma and jet 
 0.4 = drjl    ! min distance between jet and lepton 
 0   = drab    ! min distance between gamma and b 
 0   = drbl    ! min distance between b and lepton 
 0 = dral    ! min distance between gamma and lepton 
 -1  = drjjmax ! max distance between jets
 -1  = drbbmax ! max distance between b's
 -1  = drllmax ! max distance between leptons
 -1  = draamax ! max distance between gammas
 -1  = drbjmax ! max distance between b and jet
 -1  = drajmax ! max distance between gamma and jet
 -1  = drjlmax ! max distance between jet and lepton
 -1  = drabmax ! max distance between gamma and b
 -1  = drblmax ! max distance between b and lepton
 -1  = dralmax ! maxdistance between gamma and lepton
#*********************************************************************
# Minimum and maximum invariant mass for pairs                       *
# WARNING: for four lepton final state mmll cut require to have      *
#          different lepton masses for each flavor!                  *           
#*********************************************************************
 0   = mmjj    ! min invariant mass of a jet pair 
 0   = mmbb    ! min invariant mass of a b pair 
 0   = mmaa    ! min invariant mass of gamma gamma pair
 0   = mmll    ! min invariant mass of l+l- (same flavour) lepton pair
 -1  = mmjjmax ! max invariant mass of a jet pair
 -1  = mmbbmax ! max invariant mass of a b pair
 -1  = mmaamax ! max invariant mass of gamma gamma pair
 -1  = mmllmax ! max invariant mass of l+l- (same flavour) lepton pair
#*********************************************************************
# Minimum and maximum invariant mass for all letpons                 *
#*********************************************************************
 0   = mmnl    ! min invariant mass for all letpons (l+- and vl) 
 -1  = mmnlmax ! max invariant mass for all letpons (l+- and vl) 
#*********************************************************************
# Minimum and maximum pt for 4-momenta sum of leptons                *
#*********************************************************************
 0   = ptllmin  ! Minimum pt for 4-momenta sum of leptons(l and vl)
 -1  = ptllmax  ! Maximum pt for 4-momenta sum of leptons(l and vl)
#*********************************************************************
# Inclusive cuts                                                     *
#*********************************************************************
 0  = xptj ! minimum pt for at least one jet  
 0  = xptb ! minimum pt for at least one b 
 0  = xpta ! minimum pt for at least one photon 
 0  = xptl ! minimum pt for at least one charged lepton 
#*********************************************************************
# Control the pt's of the jets sorted by pt                          *
#*********************************************************************
 0   = ptj1min ! minimum pt for the leading jet in pt
 0   = ptj2min ! minimum pt for the second jet in pt
 0   = ptj3min ! minimum pt for the third jet in pt
 0   = ptj4min ! minimum pt for the fourth jet in pt
 -1  = ptj1max ! maximum pt for the leading jet in pt 
 -1  = ptj2max ! maximum pt for the second jet in pt
 -1  = ptj3max ! maximum pt for the third jet in pt
 -1  = ptj4max ! maximum pt for the fourth jet in pt
 0   = cutuse  ! reject event if fails any (0) / all (1) jet pt cuts
#*********************************************************************
# Control the pt's of leptons sorted by pt                           *
#*********************************************************************
 0   = ptl1min ! minimum pt for the leading lepton in pt
 0   = ptl2min ! minimum pt for the second lepton in pt
 0   = ptl3min ! minimum pt for the third lepton in pt
 0   = ptl4min ! minimum pt for the fourth lepton in pt
 -1  = ptl1max ! maximum pt for the leading lepton in pt 
 -1  = ptl2max ! maximum pt for the second lepton in pt
 -1  = ptl3max ! maximum pt for the third lepton in pt
 -1  = ptl4max ! maximum pt for the fourth lepton in pt
#*********************************************************************
# Control the Ht(k)=Sum of k leading jets                            *
#*********************************************************************
 0   = htjmin ! minimum jet HT=Sum(jet pt)
 -1  = htjmax ! maximum jet HT=Sum(jet pt)
 0   = ihtmin  !inclusive Ht for all partons (including b)
 -1  = ihtmax  !inclusive Ht for all partons (including b)
 0   = ht2min ! minimum Ht for the two leading jets
 0   = ht3min ! minimum Ht for the three leading jets
 0   = ht4min ! minimum Ht for the four leading jets
 -1  = ht2max ! maximum Ht for the two leading jets
 -1  = ht3max ! maximum Ht for the three leading jets
 -1  = ht4max ! maximum Ht for the four leading jets
#***********************************************************************
# Photon-isolation cuts, according to hep-ph/9801442                   *
# When ptgmin=0, all the other parameters are ignored                  *
# When ptgmin>0, pta and draj are not going to be used                 *
#***********************************************************************
   0 = ptgmin ! Min photon transverse momentum
 0.0 = R0gamma ! Radius of isolation code
 1.0 = xn ! n parameter of eq.(3.4) in hep-ph/9801442
 1.0 = epsgamma ! epsilon_gamma parameter of eq.(3.4) in hep-ph/9801442
 .true. = isoEM ! isolate photons from EM energy (photons and leptons)
#*********************************************************************
# WBF cuts                                                           *
#*********************************************************************
 0   = xetamin ! minimum rapidity for two jets in the WBF case  
 0   = deltaeta ! minimum rapidity for two jets in the WBF case 
#*********************************************************************
# KT DURHAM CUT                                                      *
#*********************************************************************
 -1    =  ktdurham        
 0.4  =  dparameter 
#*********************************************************************
# maximal pdg code for quark to be considered as a light jet         *
# (otherwise b cuts are applied)                                     *
#*********************************************************************
 4 = maxjetflavor    ! Maximum jet pdg code
#*********************************************************************
# Jet measure cuts                                                   *
#*********************************************************************
 0   = xqcut   ! minimum kt jet measure between partons
#*********************************************************************
#
#*********************************************************************
# Store info for systematics studies                                 *
# WARNING: If use_syst is T, matched Pythia output is                *
#          meaningful ONLY if plotted taking matchscale              *
#          reweighting into account!                                 *
#*********************************************************************
   F  = use_syst      ! Enable systematics studies
#
#**************************************
# Parameter of the systematics study
#  will be used by SysCalc (if installed)
#**************************************                                  
#
0.5 1 2 = sys_scalefact  # factorization/renormalization scale factor
0.5 1 2 = sys_alpsfact  # \alpha_s emission scale factors
30 50 = sys_matchscale # variation of merging scale
# PDF sets and number of members (0 or none for all members).
CT10nlo.LHgrid = sys_pdf # matching scales
# MSTW2008nlo68cl.LHgrid 1  = sys_pdf
</MGRunCard>
<slha>
######################################################################
## PARAM_CARD AUTOMATICALY GENERATED BY MG5 FOLLOWING UFO MODEL   ####
######################################################################
##                                                                  ##
##  Width set on Auto will be computed following the information    ##
##        present in the decay.py files of the model.               ##
##        See  arXiv:1402.1178 for more details.                    ##
##                                                                  ##
######################################################################

###################################
## INFORMATION FOR MASS
###################################
Block mass 
    5 4.700000e+00 # MB 
    6 1.730000e+02 # MT 
   11 5.110000e-04 # Me 
   13 1.056600e-01 # MM 
   15 1.777000e+00 # MTA 
   23 9.118800e+01 # MZ 
   25 1.250000e+02 # MH 
## Dependent parameters, given by model restrictions.
## Those values should be edited following the 
## analytical expression. MG5 ignores those values 
## but they are important for interfacing the output of MG5
## to external program such as Pythia.
  1 0.000000 # d : 0.0 
  2 0.000000 # u : 0.0 
  3 0.000000 # s : 0.0 
  4 0.000000 # c : 0.0 
  12 0.000000 # ve : 0.0 
  14 0.000000 # vm : 0.0 
  16 0.000000 # vt : 0.0 
  21 0.000000 # g : 0.0 
  22 0.000000 # a : 0.0 
  24 80.419002 # w+ : cmath.sqrt(MZ__exp__2/2. + cmath.sqrt(MZ__exp__4/4. - (aEW*cmath.pi*MZ__exp__2)/(Gf*sqrt__2))) 

###################################
## INFORMATION FOR SMINPUTS
###################################
Block sminputs 
    1 1.325070e+02 # aEWM1 
    2 1.166390e-05 # Gf 
    3 1.180000e-01 # aS 

###################################
## INFORMATION FOR YUKAWA
###################################
Block yukawa 
    5 4.700000e+00 # ymb 
    6 1.730000e+02 # ymt 
   11 5.110000e-04 # yme 
   13 1.056600e-01 # ymm 
   15 1.777000e+00 # ymtau 

###################################
## INFORMATION FOR DECAY
###################################
DECAY   6 1.491500e+00 # WT 
DECAY  15 2.270000e-12 # WTau 
DECAY  23 2.441404e+00 # WZ 
DECAY  24 2.047600e+00 # WW 
DECAY  25 6.382339e-03 # WH 
## Dependent parameters, given by model restrictions.
## Those values should be edited following the 
## analytical expression. MG5 ignores those values 
## but they are important for interfacing the output of MG5
## to external program such as Pythia.
DECAY  1 0.000000 # d : 0.0 
DECAY  2 0.000000 # u : 0.0 
DECAY  3 0.000000 # s : 0.0 
DECAY  4 0.000000 # c : 0.0 
DECAY  5 0.000000 # b : 0.0 
DECAY  11 0.000000 # e- : 0.0 
DECAY  12 0.000000 # ve : 0.0 
DECAY  13 0.000000 # mu- : 0.0 
DECAY  14 0.000000 # vm : 0.0 
DECAY  16 0.000000 # vt : 0.0 
DECAY  21 0.000000 # g : 0.0 
DECAY  22 0.000000 # a : 0.0
</slha>
## END BANNER##
<MGGenerationInfo>
#  Number of Events        :         1731
#  Integrated weight (pb)  :  0.10769E+09
#  Truncated wgt (pb)      :  0.00000E+00
#  Unit wgt                :  0.62213E+05
</MGGenerationInfo>
</header>
<init>
      -11       11  0.35000000000E-01  0.35000000000E-01 0 0       0       0 3   1
  0.10768634139E+09  0.34674821934E+05  0.62212593876E+05   0
<generator name='MadGraph5_aMC@NLO' version='#5.2.1.2'>please cite 1405.0301 </generator>
</init>
<event>
 5   0  0.6221259E+05  0.9118800E+02  0.7546771E-02  0.1180000E+00
      -11   -1    0    0    0    0  0.00000000000E+00  0.00000000000E+00  0.34996269501E-01  0.35000000000E-01  0.51099999109E-03 0.  1.
       11   -1    0    0    0    0 -0.00000000000E+00 -0.00000000000E+00 -0.34996269501E-01  0.35000000000E-01  0.51099999109E-03 0. -1.
       22    1    1    2    0    0 -0.98143402068E-02  0.34443294171E-02 -0.29762598188E-01  0.31527716849E-01  0.00000000000E+00 0. -1.
       22    1    1    2    0    0  0.93229020307E-02 -0.52085863717E-02  0.33037192537E-01  0.34720339356E-01  0.00000000000E+00 0.  1.
       22    1    1    2    0    0  0.49143817615E-03  0.17642569546E-02 -0.32745943498E-02  0.37519437947E-02  0.00000000000E+00 0.  1.
</event>
<event>
 5   0  0.6221259E+05  0.9118800E+02  0.7546771E-02  0.1180000E+00
      -11   -1    0    0    0    0  0.00000000000E+00  0.00000000000E+00  0.34996269501E-01  0.35000000000E-01  0.51099999109E-03 0.  1.
       11   -1    0    0    0    0 -0.00000000000E+00 -0.00000000000E+00 -0.34996269501E-01  0.35000000000E-01  0.51099999109E-03 0.  1.
       22    1    1    2    0    0  0.13316645458E-09  0.28534234144E-09 -0.35001802474E-01  0.34999824105E-01  0.00000000000E+00 0.  1.
       22    1    1    2    0    0  0.16316842325E-05  0.34962904199E-05  0.20923528160E-04  0.21276288934E-04  0.00000000000E+00 0. -1.
       22    1    1    2    0    0 -0.16318173990E-05 -0.34965757622E-05  0.34980878946E-01  0.34978899606E-01  0.00000000000E+00 0.  1.
</event>
<event>
 5   0  0.6221259E+05  0.9118800E+02  0.7546771E-02  0.1180000E+00
      -11   -1    0    0    0    0  0.00000000000E+00  0.00000000000E+00  0.34996269501E-01  0.35000000000E-01  0.51099999109E-03 0.  1.
       11   -1    0    0    0    0 -0.00000000000E+00 -0.00000000000E+00 -0.34996269501E-01  0.35000000000E-01  0.51099999109E-03 0. -1.
       22    1    1    2    0    0 -0.13429844567E-03 -0.46396051593E-03  0.34996663208E-01  0.34999996159E-01  0.00000000000E+00 0.  1.
       22    1    1    2    0    0  0.77070696889E-09 -0.17552945033E-09  0.38010217802E-08  0.38823403242E-08  0.00000000000E+00 0. -1.
       22    1    1    2    0    0  0.13429767497E-03  0.46396069146E-03 -0.34996667009E-01  0.34999999959E-01  0.00000000000E+00 0. -1.
</event>
<event>
 5   0  0.6221259E+05  0.9118800E+02  0.7546771E-02  0.1180000E+00
      -11   -1    0    0    0    0  0.00000000000E+00  0.00000000000E+00  0.34996269501E-01  0.35000000000E-01  0.51099999109E-03 0.  1.
       11   -1    0    0    0    0 -0.00000000000E+00 -0.00000000000E+00 -0.34996269501E-01  0.35000000000E-01  0.51099999109E-03 0. -1.
       22    1    1    2    0    0  0.15086666404E-02  0.33388974981E-02  0.34807689114E-01  0.34999993329E-01  0.00000000000E+00 0.  1.
       22    1    1    2    0    0  0.13196272218E-08  0.16245499387E-08  0.64166050110E-08  0.67493257719E-08  0.00000000000E+00 0.  1.
       22    1    1    2    0    0 -0.15086679601E-02 -0.33388991226E-02 -0.34807695531E-01  0.34999999922E-01  0.00000000000E+00 0. -1.
</event>
<event>
 5   0  0.6221259E+05  0.9118800E+02  0.7546771E-02  0.1180000E+00
      -11   -1    0    0    0    0  0.00000000000E+00  0.00000000000E+00  0.34996269501E-01  0.35000000000E-01  0.51099999109E-03 0. -1.
       11   -1    0    0    0    0 -0.00000000000E+00 -0.00000000000E+00 -0.34996269501E-01  0.35000000000E-01  0.51099999109E-03 0.  1.
       22    1    1    2    0    0  0.26096939200E-03  0.13866137056E-02 -0.34971548019E-01  0.34999999620E-01  0.00000000000E+00 0.  1.
       22    1    1    2    0    0 -0.98318439748E-09  0.52746927742E-08  0.26559513380E-07  0.27096065884E-07  0.00000000000E+00 0.  1.
       22    1    1    2    0    0 -0.26096840882E-03 -0.13866189803E-02  0.34971521459E-01  0.34999973284E-01  0.00000000000E+00 0. -1.
</event>
<event>
 5   0  0.6221259E+05  0.9118800E+02  0.7546771E-02  0.1180000E+00
      -11   -1    0    0    0    0  0.00000000000E+00  0.00000000000E+00  0.34996269501E-01  0.35000000000E-01  0.51099999109E-03 0.  1.
       11   -1    0    0    0    0 -0.00000000000E+00 -0.00000000000E+00 -0.34996269501E-01  0.35000000000E-01  0.51099999109E-03 0. -1.
       22    1    1    2    0    0 -0.10464956664E-04 -0.19447705980E-05  0.11427202919E-05  0.10705291230E-04  0.00000000000E+00 0.  1.
       22    1    1    2    0    0 -0.77657995824E-03  0.10494445463E-01  0.33374585674E-01  0.34994277116E-01  0.00000000000E+00 0.  1.
       22    1    1    2    0    0  0.78704491490E-03 -0.10492500692E-01 -0.33375728394E-01  0.34995017593E-01  0.00000000000E+00 0. -1.
</event>
<event>
 5   0  0.6221259E+05  0.9118800E+02  0.7546771E-02  0.1180000E+00
      -11   -1    0    0    0    0  0.00000000000E+00  0.00000000000E+00  0.34996269501E-01  0.35000000000E-01  0.51099999109E-03 0.  1.
       11   -1    0    0    0    0 -0.00000000000E+00 -0.00000000000E+00 -0.34996269501E-01  0.35000000000E-01  0.51099999109E-03 0. -1.
       22    1    1    2    0    0 -0.92357254250E-03  0.91221233825E-03  0.34615384852E-01  0.34639716887E-01  0.00000000000E+00 0.  1.
       22    1    1    2    0    0 -0.15995691083E-03 -0.87397080255E-03 -0.17838327754E-03  0.90621839020E-03  0.00000000000E+00 0. -1.
       22    1    1    2    0    0  0.10835294533E-02 -0.38241535707E-04 -0.34437001574E-01  0.34454064723E-01  0.00000000000E+00 0. -1.
</event>
<event>
 5   0  0.6221259E+05  0.9118800E+02  0.7546771E-02  0.1180000E+00
      -11   -1    0    0    0    0  0.00000000000E+00  0.00000000000E+00  0.34996269501E-01  0.35000000000E-01  0.51099999109E-03 0.  1.
       11   -1    0    0    0    0 -0.00000000000E+00 -0.00000000000E+00 -0.34996269501E-01  0.35000000000E-01  0.51099999109E-03 0. -1.
       22    1    1    2    0    0 -0.17833201967E-01 -0.18963797956E-01  0.21804440168E-01  0.33957066074E-01  0.00000000000E+00 0.  1.
       22    1    1    2    0    0  0.88461062225E-04  0.21390863518E-02  0.12132440137E-02  0.24607878447E-02  0.00000000000E+00 0.  1.
       22    1    1    2    0    0  0.17744740904E-01  0.16824711604E-01 -0.23017684182E-01  0.33582146081E-01  0.00000000000E+00 0. -1.
</event>
<event>
 5   0  0.6221259E+05  0.9118800E+02  0.7546771E-02  0.1180000E+00
      -11   -1    0    0    0    0  0.00000000000E+00  0.00000000000E+00  0.34996269501E-01  0.35000000000E-01  0.51099999109E-03 0.  1.
       11   -1    0    0    0    0 -0.00000000000E+00 -0.00000000000E+00 -0.34996269501E-01  0.35000000000E-01  0.51099999109E-03 0. -1.
       22    1    1    2    0    0  0.43860009071E-02  0.13414203150E-02  0.34698174005E-01  0.34999995596E-01  0.00000000000E+00 0.  1.
       22    1    1    2    0    0 -0.10356106326E-08 -0.35479264695E-09  0.44281135521E-08  0.45614204844E-08  0.00000000000E+00 0.  1.
       22    1    1    2    0    0 -0.43859998715E-02 -0.13414199602E-02 -0.34698178433E-01  0.34999999843E-01  0.00000000000E+00 0. -1.
</event>
<event>
 5   0  0.6221259E+05  0.9118800E+02  0.7546771E-02  0.1180000E+00
      -11   -1    0    0    0    0  0.00000000000E+00  0.00000000000E+00  0.34996269501E-01  0.35000000000E-01  0.51099999109E-03 0.  1.
       11   -1    0    0    0    0 -0.00000000000E+00 -0.00000000000E+00 -0.34996269501E-01  0.35000000000E-01  0.51099999109E-03 0. -1.
       22    1    1    2    0    0 -0.27359023749E-02 -0.29522596930E-02 -0.34767781354E-01  0.34999994563E-01  0.00000000000E+00 0. -1.
       22    1    1    2    0    0 -0.27161863430E-08 -0.32646274859E-07  0.11197206207E-05  0.11201997257E-05  0.00000000000E+00 0.  1.
       22    1    1    2    0    0  0.27359050911E-02  0.29522923393E-02  0.34766661634E-01  0.34998885238E-01  0.00000000000E+00 0.  1.
</event>
<event>
 5   0  0.6221259E+05  0.9118800E+02  0.7546771E-02  0.1180000E+00
      -11   -1    0    0    0    0  0.00000000000E+00  0.00000000000E+00  0.34996269501E-01  0.35000000000E-01  0.51099999109E-03 0. -1.
       11   -1    0    0    0    0 -0.00000000000E+00 -0.00000000000E+00 -0.34996269501E-01  0.35000000000E-01  0.51099999109E-03 0. -1.
       22    1    1    2    0    0 -0.00000000000E+00  0.00000000000E+00  0.29091343480E-01  0.29090467513E-01  0.00000000000E+00 0. -1.
       22    1    1    2    0    0 -0.40488843956E-02  0.22973854535E-02  0.48077841807E-02  0.66922517511E-02  0.00000000000E+00 0.  1.
       22    1    1    2    0    0  0.40488843956E-02 -0.22973854535E-02 -0.33899127661E-01  0.34217280736E-01  0.00000000000E+00 0. -1.
</event>
<event>
 5   0  0.6221259E+05  0.9118800E+02  0.7546771E-02  0.1180000E+00
      -11   -1    0    0    0    0  0.00000000000E+00  0.00000000000E+00  0.34996269501E-01  0.35000000000E-01  0.51099999109E-03 0. -1.
       11   -1    0    0    0    0 -0.00000000000E+00 -0.00000000000E+00 -0.34996269501E-01  0.35000000000E-01  0.51099999109E-03 0.  1.
       22    1    1    2    0    0  0.20675010973E-05  0.49035253120E-05  0.56952842550E-04  0.57200921284E-04  0.00000000000E+00 0. -1.
       22    1    1    2    0    0  0.11927827758E-02 -0.76639364906E-03  0.34914190494E-01  0.34942964784E-01  0.00000000000E+00 0. -1.
       22    1    1    2    0    0 -0.11948502769E-02  0.76149012375E-03 -0.34971143337E-01  0.34999834295E-01  0.00000000000E+00 0.  1.
</event>
<event>
 5   0  0.6221259E+05  0.9118800E+02  0.7546771E-02  0.1180000E+00
      -11   -1    0    0    0    0  0.00000000000E+00  0.00000000000E+00  0.34996269501E-01  0.35000000000E-01  0.51099999109E-03 0.  1.
       11   -1    0    0    0    0 -0.00000000000E+00 -0.00000000000E+00 -0.34996269501E-01  0.35000000000E-01  0.51099999109E-03 0. -1.
       22    1    1    2    0    0  0.12086498367E-01 -0.14245151583E-01  0.29382546655E-01  0.34818699492E-01  0.00000000000E+00 0.  1.
       22    1    1    2    0    0 -0.42707979537E-03  0.25576591692E-03  0.11880933729E-03  0.51179001015E-03  0.00000000000E+00 0. -1.
       22    1    1    2    0    0 -0.11659418572E-01  0.13989385666E-01 -0.29501355992E-01  0.34669510497E-01  0.00000000000E+00 0. -1.
</event>
<event>
 5   0  0.6221259E+05  0.9118800E+02  0.7546771E-02  0.1180000E+00
      -11   -1    0    0    0    0  0.00000000000E+00  0.00000000000E+00  0.34996269501E-01  0.35000000000E-01  0.51099999109E-03 0.  1.
       11   -1    0    0    0    0 -0.00000000000E+00 -0.00000000000E+00 -0.34996269501E-01  0.35000000000E-01  0.51099999109E-03 0. -1.
       22    1    1    2    0    0  0.32545948648E-01  0.11857715174E-01 -0.37990299684E-02  0.34846474875E-01  0.00000000000E+00 0. -1.
       22    1    1    2    0    0 -0.32533280898E-01 -0.11800898356E-01  0.40977323048E-02  0.34849203406E-01  0.00000000000E+00 0.  1.
       22    1    1    2    0    0 -0.12667749643E-04 -0.56816818567E-04 -0.29870233637E-03  0.30432171875E-03  0.00000000000E+00 0.  1.
</event>
<event>
 5   0  0.6221259E+05  0.9118800E+02  0.7546771E-02  0.1180000E+00
      -11   -1    0    0    0    0  0.00000000000E+00  0.00000000000E+00  0.34996269501E-01  0.35000000000E-01  0.51099999109E-03 0. -1.
       11   -1    0    0    0    0 -0.00000000000E+00 -0.00000000000E+00 -0.34996269501E-01  0.35000000000E-01  0.51099999109E-03 0.  1.
       22    1    1    2    0    0  0.33751647821E-04  0.10257272427E-02 -0.34984950217E-01  0.34999999960E-01  0.00000000000E+00 0.  1.
       22    1    1    2    0    0  0.62564401861E-08 -0.65999062517E-08  0.29244031893E-06  0.29258168422E-06  0.00000000000E+00 0. -1.
       22    1    1    2    0    0 -0.33757904261E-04 -0.10257206428E-02  0.34984657776E-01  0.34999707458E-01  0.00000000000E+00 0. -1.
</event>
<event>
 5   0  0.6221259E+05  0.9118800E+02  0.7546771E-02  0.1180000E+00
      -11   -1    0    0    0    0  0.00000000000E+00  0.00000000000E+00  0.34996269501E-01  0.35000000000E-01  0.51099999109E-03 0. -1.
       11   -1    0    0    0    0 -0.00000000000E+00 -0.00000000000E+00 -0.34996269501E-01  0.35000000000E-01  0.51099999109E-03 0.  1.
       22    1    1    2    0    0  0.50426483512E-03  0.49078251365E-03 -0.34992889082E-01  0.34999963383E-01  0.00000000000E+00 0.  1.
       22    1    1    2    0    0 -0.37715578437E-06  0.29375840119E-06  0.15020384376E-05  0.15762804167E-05  0.00000000000E+00 0.  1.
       22    1    1    2    0    0 -0.50388767934E-03 -0.49107627205E-03  0.34991387044E-01  0.34998460337E-01  0.00000000000E+00 0. -1.
</event>
<event>
 5   0  0.6221259E+05  0.9118800E+02  0.7546771E-02  0.1180000E+00
      -11   -1    0    0    0    0  0.00000000000E+00  0.00000000000E+00  0.34996269501E-01  0.35000000000E-01  0.51099999109E-03 0. -1.
       11   -1    0    0    0    0 -0.00000000000E+00 -0.00000000000E+00 -0.34996269501E-01  0.35000000000E-01  0.51099999109E-03 0. -1.
       22    1    1    2    0    0 -0.29274505182E-04  0.15741109028E-04  0.10756647732E-02  0.10761781839E-02  0.00000000000E+00 0. -1.
       22    1    1    2    0    0  0.29276157670E-04 -0.15741997582E-04  0.33924170957E-01  0.33924085094E-01  0.00000000000E+00 0. -1.
       22    1    1    2    0    0 -0.16524876800E-08  0.88855434366E-09 -0.34999835730E-01  0.34999736722E-01  0.00000000000E+00 0. -1.
</event>
<event>
 5   0  0.6221259E+05  0.9118800E+02  0.7546771E-02  0.1180000E+00
      -11   -1    0    0    0    0  0.00000000000E+00  0.00000000000E+00  0.34996269501E-01  0.35000000000E-01  0.51099999109E-03 0.  1.
       11   -1    0    0    0    0 -0.00000000000E+00 -0.00000000000E+00 -0.34996269501E-01  0.35000000000E-01  0.51099999109E-03 0.  1.
       22    1    1    2    0    0  0.66703690628E-03 -0.28020108455E-04 -0.34993630152E-01  0.34999998208E-01  0.00000000000E+00 0.  1.
       22    1    1    2    0    0 -0.86634294594E-07 -0.21862792411E-06  0.74726628032E-05  0.74763622866E-05  0.00000000000E+00 0.  1.
       22    1    1    2    0    0 -0.66695027199E-03  0.28238736379E-04  0.34986157489E-01  0.34992525430E-01  0.00000000000E+00 0.  1.
</event>
<event>
 5   0  0.6221259E+05  0.9118800E+02  0.7546771E-02  0.1180000E+00
      -11   -1    0    0    0    0  0.00000000000E+00  0.00000000000E+00  0.34996269501E-01  0.35000000000E-01  0.51099999109E-03 0.  1.
       11   -1    0    0    0    0 -0.00000000000E+00 -0.00000000000E+00 -0.34996269501E-01  0.35000000000E-01  0.51099999109E-03 0. -1.
       22    1    1    2    0    0  0.12605637790E-01 -0.20778689384E-01 -0.20633864204E-01  0.31881223135E-01  0.00000000000E+00 0. -1.
       22    1    1    2    0    0 -0.12357939288E-01  0.20735969226E-01  0.24412521975E-01  0.34331768267E-01  0.00000000000E+00 0.  1.
       22    1    1    2    0    0 -0.24769850222E-03  0.42720158738E-04 -0.37786577716E-02  0.37870085972E-02  0.00000000000E+00 0. -1.
</event>
<event>
 5   0  0.6221259E+05  0.9118800E+02  0.7546771E-02  0.1180000E+00
      -11   -1    0    0    0    0  0.00000000000E+00  0.00000000000E+00  0.34996269501E-01  0.35000000000E-01  0.51099999109E-03 0.  1.
       11   -1    0    0    0    0 -0.00000000000E+00 -0.00000000000E+00 -0.34996269501E-01  0.35000000000E-01  0.51099999109E-03 0. -1.
       22    1    1    2    0    0  0.15398881710E-01 -0.27424632497E-03 -0.31209693733E-01  0.34802956080E-01  0.00000000000E+00 0. -1.
       22    1    1    2    0    0 -0.19909540018E-03  0.69926445986E-04  0.41859909064E-02  0.41913063065E-02  0.00000000000E+00 0. -1.
       22    1    1    2    0    0 -0.15199786310E-01  0.20431987899E-03  0.27023702827E-01  0.31005737614E-01  0.00000000000E+00 0.  1.
</event>
<event>
 5   0  0.6221259E+05  0.9118800E+02  0.7546771E-02  0.1180000E+00
      -11   -1    0    0    0    0  0.00000000000E+00  0.00000000000E+00  0.34996269501E-01  0.35000000000E-01  0.51099999109E-03 0. -1.
       11   -1    0    0    0    0 -0.00000000000E+00 -0.00000000000E+00 -0.34996269501E-01  0.35000000000E-01  0.51099999109E-03 0.  1.
       22    1    1    2    0    0  0.64216129854E-03  0.17230106360E-02  0.34883775152E-01  0.34932204420E-01  0.00000000000E+00 0. -1.
       22    1    1    2    0    0 -0.14080041235E-02 -0.64693837472E-03 -0.28830249635E-01  0.28871859983E-01  0.00000000000E+00 0.  1.
       22    1    1    2    0    0  0.76584282501E-03 -0.10760722613E-02 -0.60535255169E-02  0.61959355974E-02  0.00000000000E+00 0. -1.
</event>
<event>
 5   0  0.6221259E+05  0.9118800E+02  0.7546771E-02  0.1180000E+00
      -11   -1    0    0    0    0  0.00000000000E+00  0.00000000000E+00  0.34996269501E-01  0.35000000000E-01  0.51099999109E-03 0. -1.
       11   -1    0    0    0    0 -0.00000000000E+00 -0.00000000000E+00 -0.34996269501E-01  0.35000000000E-01  0.51099999109E-03 0.  1.
       22    1    1    2    0    0  0.16448502227E-03  0.90355164296E-04 -0.45152605347E-03  0.48897357314E-03  0.00000000000E+00 0.  1.
       22    1    1    2    0    0  0.21745311769E-01  0.14298821690E-01  0.23153904428E-01  0.34834152435E-01  0.00000000000E+00 0. -1.
       22    1    1    2    0    0 -0.21909796791E-01 -0.14389176854E-01 -0.22702378374E-01  0.34676873991E-01  0.00000000000E+00 0.  1.
</event>
<event>
 5   0  0.6221259E+05  0.9118800E+02  0.7546771E-02  0.1180000E+00
      -11   -1    0    0    0    0  0.00000000000E+00  0.00000000000E+00  0.34996269501E-01  0.35000000000E-01  0.51099999109E-03 0. -1.
       11   -1    0    0    0    0 -0.00000000000E+00 -0.00000000000E+00 -0.34996269501E-01  0.35000000000E-01  0.51099999109E-03 0.  1.
       22    1    1    2    0    0  0.97881511707E-02 -0.10384539665E-01  0.31795677633E-01  0.34851279511E-01  0.00000000000E+00 0. -1.
       22    1    1    2    0    0 -0.97319855094E-02  0.10307667369E-01 -0.28302467462E-01  0.31654213195E-01  0.00000000000E+00 0.  1.
       22    1    1    2    0    0 -0.56165661325E-04  0.76872295960E-04 -0.34932101714E-02  0.34945072947E-02  0.00000000000E+00 0.  1.
</event>
<event>
 5   0  0.6221259E+05  0.9118800E+02  0.7546771E-02  0.1180000E+00
      -11   -1    0    0    0    0  0.00000000000E+00  0.00000000000E+00  0.34996269501E-01  0.35000000000E-01  0.51099999109E-03 0.  1.
       11   -1    0    0    0    0 -0.00000000000E+00 -0.00000000000E+00 -0.34996269501E-01  0.35000000000E-01  0.51099999109E-03 0. -1.
       22    1    1    2    0    0 -0.28189825981E-02 -0.46033483217E-03 -0.34883219509E-01  0.34999965348E-01  0.00000000000E+00 0. -1.
       22    1    1    2    0    0  0.28180991501E-02  0.45956935660E-03  0.34843237664E-01  0.34960035723E-01  0.00000000000E+00 0.  1.
       22    1    1    2    0    0  0.88344802841E-06  0.76547556413E-06  0.39981844604E-04  0.39998929126E-04  0.00000000000E+00 0.  1.
</event>
<event>
 5   0  0.6221259E+05  0.9118800E+02  0.7546771E-02  0.1180000E+00
      -11   -1    0    0    0    0  0.00000000000E+00  0.00000000000E+00  0.34996269501E-01  0.35000000000E-01  0.51099999109E-03 0. -1.
       11   -1    0    0    0    0 -0.00000000000E+00 -0.00000000000E+00 -0.34996269501E-01  0.35000000000E-01  0.51099999109E-03 0. -1.
       22    1    1    2    0    0 -0.66563126090E-03 -0.20359678228E-02  0.21598286605E-01  0.21704244152E-01  0.00000000000E+00 0.  1.
       22    1    1    2    0    0  0.12164968613E-02  0.24165106661E-02  0.13208401978E-01  0.13482628498E-01  0.00000000000E+00 0. -1.
       22    1    1    2    0    0 -0.55086560044E-03 -0.38054284334E-03 -0.34806688583E-01  0.34813127350E-01  0.00000000000E+00 0. -1.
</event>
<event>
 5   0  0.6221259E+05  0.9118800E+02  0.7546771E-02  0.1180000E+00
      -11   -1    0    0    0    0  0.00000000000E+00  0.00000000000E+00  0.34996269501E-01  0.35000000000E-01  0.51099999109E-03 0.  1.
       11   -1    0    0    0    0 -0.00000000000E+00 -0.00000000000E+00 -0.34996269501E-01  0.35000000000E-01  0.51099999109E-03 0.  1.
       22    1    1    2    0    0 -0.32171079163E-03  0.17385425674E-03  0.34998080449E-01  0.34999990832E-01  0.00000000000E+00 0.  1.
       22    1    1    2    0    0  0.10042970772E-08  0.51904591132E-08  0.83966932658E-08  0.99223956898E-08  0.00000000000E+00 0. -1.
       22    1    1    2    0    0  0.32170978734E-03 -0.17385944720E-03 -0.34998088846E-01  0.34999999245E-01  0.00000000000E+00 0.  1.
</event>
<event>
 5   0  0.6221259E+05  0.9118800E+02  0.7546771E-02  0.1180000E+00
      -11   -1    0    0    0    0  0.00000000000E+00  0.00000000000E+00  0.34996269501E-01  0.35000000000E-01  0.51099999109E-03 0. -1.
       11   -1    0    0    0    0 -0.00000000000E+00 -0.00000000000E+00 -0.34996269501E-01  0.35000000000E-01  0.51099999109E-03 0.  1.
       22    1    1    2    0    0 -0.10106663916E-02  0.64736670851E-03 -0.34979414911E-01  0.34999999968E-01  0.00000000000E+00 0.  1.
       22    1    1    2    0    0  0.10106661382E-02 -0.64736683366E-03  0.34979414366E-01  0.34999999418E-01  0.00000000000E+00 0. -1.
       22    1    1    2    0    0  0.25347488346E-09  0.12514817550E-09  0.54550858689E-09  0.61440312560E-09  0.00000000000E+00 0.  1.
</event>
<event>
 5   0  0.6221259E+05  0.9118800E+02  0.7546771E-02  0.1180000E+00
      -11   -1    0    0    0    0  0.00000000000E+00  0.00000000000E+00  0.34996269501E-01  0.35000000000E-01  0.51099999109E-03 0.  1.
       11   -1    0    0    0    0 -0.00000000000E+00 -0.00000000000E+00 -0.34996269501E-01  0.35000000000E-01  0.51099999109E-03 0.  1.
       22    1    1    2    0    0 -0.38732581871E-02  0.77182782100E-02  0.33917808481E-01  0.34999881138E-01  0.00000000000E+00 0.  1.
       22    1    1    2    0    0  0.38733025028E-02 -0.77182561761E-02 -0.33917924030E-01  0.34999993160E-01  0.00000000000E+00 0.  1.
       22    1    1    2    0    0 -0.44315753273E-07 -0.22033949476E-07  0.11554926199E-06  0.12570207979E-06  0.00000000000E+00 0. -1.
</event>
<event>
 5   0  0.6221259E+05  0.9118800E+02  0.7546771E-02  0.1180000E+00
      -11   -1    0    0    0    0  0.00000000000E+00  0.00000000000E+00  0.34996269501E-01  0.35000000000E-01  0.51099999109E-03 0. -1.
       11   -1    0    0    0    0 -0.00000000000E+00 -0.00000000000E+00 -0.34996269501E-01  0.35000000000E-01  0.51099999109E-03 0.  1.
       22    1    1    2    0    0 -0.16103258389E-02 -0.15103699772E-02  0.34902632508E-01  0.34972390865E-01  0.00000000000E+00 0. -1.
       22    1    1    2    0    0  0.86600115507E-05 -0.68854847592E-05  0.26580079324E-04  0.28790733184E-04  0.00000000000E+00 0.  1.
       22    1    1    2    0    0  0.16016658274E-02  0.15172554619E-02 -0.34929212588E-01  0.34998818402E-01  0.00000000000E+00 0.  1.
</event>
<event>
 5   0  0.6221259E+05  0.9118800E+02  0.7546771E-02  0.1180000E+00
      -11   -1    0    0    0    0  0.00000000000E+00  0.00000000000E+00  0.34996269501E-01  0.35000000000E-01  0.51099999109E-03 0.  1.
       11   -1    0    0    0    0 -0.00000000000E+00 -0.00000000000E+00 -0.34996269501E-01  0.35000000000E-01  0.51099999109E-03 0. -1.
       22    1    1    2    0    0  0.91518945947E-03  0.12886924077E-03 -0.34978907557E-01  0.34991115342E-01  0.00000000000E+00 0. -1.
       22    1    1    2    0    0  0.12102646793E-03  0.18161450754E-03  0.19337806605E-02  0.19460572649E-02  0.00000000000E+00 0.  1.
       22    1    1    2    0    0 -0.10362159274E-02 -0.31048374830E-03  0.33045126896E-01  0.33062827393E-01  0.00000000000E+00 0.  1.
</event>
<event>
 5   0  0.6221259E+05  0.9118800E+02  0.7546771E-02  0.1180000E+00
      -11   -1    0    0    0    0  0.00000000000E+00  0.00000000000E+00  0.34996269501E-01  0.35000000000E-01  0.51099999109E-03 0. -1.
       11   -1    0    0    0    0 -0.00000000000E+00 -0.00000000000E+00 -0.34996269501E-01  0.35000000000E-01  0.51099999109E-03 0.  1.
       22    1    1    2    0    0  0.44842084528E-02 -0.16132807129E-02  0.34661062841E-01  0.34987141600E-01  0.00000000000E+00 0. -1.
       22    1    1    2    0    0  0.19647320573E-07  0.62932339903E-06  0.12924182832E-04  0.12939510649E-04  0.00000000000E+00 0. -1.
       22    1    1    2    0    0 -0.44842281001E-02  0.16126513895E-02 -0.34673987023E-01  0.34999918889E-01  0.00000000000E+00 0.  1.
</event>
<event>
 5   0  0.6221259E+05  0.9118800E+02  0.7546771E-02  0.1180000E+00
      -11   -1    0    0    0    0  0.00000000000E+00  0.00000000000E+00  0.34996269501E-01  0.35000000000E-01  0.51099999109E-03 0. -1.
       11   -1    0    0    0    0 -0.00000000000E+00 -0.00000000000E+00 -0.34996269501E-01  0.35000000000E-01  0.51099999109E-03 0. -1.
       22    1    1    2    0    0 -0.19844564189E-05 -0.67037343164E-04 -0.13186470466E-03  0.14794000061E-03  0.00000000000E+00 0. -1.
       22    1    1    2    0    0  0.32902306857E-03  0.35446793287E-03 -0.34857065685E-01  0.34860420707E-01  0.00000000000E+00 0. -1.
       22    1    1    2    0    0 -0.32703861215E-03 -0.28743058970E-03  0.34988930389E-01  0.34991639293E-01  0.00000000000E+00 0. -1.
</event>
<event>
 5   0  0.6221259E+05  0.9118800E+02  0.7546771E-02  0.1180000E+00
      -11   -1    0    0    0    0  0.00000000000E+00  0.00000000000E+00  0.34996269501E-01  0.35000000000E-01  0.51099999109E-03 0.  1.
       11   -1    0    0    0    0 -0.00000000000E+00 -0.00000000000E+00 -0.34996269501E-01  0.35000000000E-01  0.51099999109E-03 0. -1.
       22    1    1    2    0    0 -0.24989732122E-02 -0.24260963150E-02 -0.34826188090E-01  0.34999916962E-01  0.00000000000E+00 0. -1.
       22    1    1    2    0    0  0.18410424302E-05  0.53385436921E-05  0.30700617037E-04  0.31215659090E-04  0.00000000000E+00 0. -1.
       22    1    1    2    0    0  0.24971321698E-02  0.24207577713E-02  0.34795487473E-01  0.34968867379E-01  0.00000000000E+00 0.  1.
</event>
<event>
 5   0  0.6221259E+05  0.9118800E+02  0.7546771E-02  0.1180000E+00
      -11   -1    0    0    0    0  0.00000000000E+00  0.00000000000E+00  0.34996269501E-01  0.35000000000E-01  0.51099999109E-03 0.  1.
       11   -1    0    0    0    0 -0.00000000000E+00 -0.00000000000E+00 -0.34996269501E-01  0.35000000000E-01  0.51099999109E-03 0. -1.
       22    1    1    2    0    0  0.33818831857E-03 -0.84181404813E-03 -0.34960788145E-01  0.34972556811E-01  0.00000000000E+00 0. -1.
       22    1    1    2    0    0 -0.31337145127E-03  0.86188859063E-03  0.34978781209E-01  0.34990801484E-01  0.00000000000E+00 0.  1.
       22    1    1    2    0    0 -0.24816867306E-04 -0.20074542500E-04 -0.17993064486E-04  0.36641704778E-04  0.00000000000E+00 0.  1.
</event>
<event>
 5   0  0.6221259E+05  0.9118800E+02  0.7546771E-02  0.1180000E+00
      -11   -1    0    0    0    0  0.00000000000E+00  0.00000000000E+00  0.34996269501E-01  0.35000000000E-01  0.51099999109E-03 0. -1.
       11   -1    0    0    0    0 -0.00000000000E+00 -0.00000000000E+00 -0.34996269501E-01  0.35000000000E-01  0.51099999109E-03 0.  1.
       22    1    1    2    0    0  0.31855842318E-02  0.56242035690E-02  0.31692595182E-01  0.32345018195E-01  0.00000000000E+00 0. -1.
       22    1    1    2    0    0  0.30510349140E-04 -0.53520379978E-05  0.26788951928E-02  0.26790742766E-02  0.00000000000E+00 0. -1.
       22    1    1    2    0    0 -0.32160945810E-02 -0.56188515310E-02 -0.34371490374E-01  0.34975907528E-01  0.00000000000E+00 0.  1.
</event>
<event>
 5   0  0.6221259E+05  0.9118800E+02  0.7546771E-02  0.1180000E+00
      -11   -1    0    0    0    0  0.00000000000E+00  0.00000000000E+00  0.34996269501E-01  0.35000000000E-01  0.51099999109E-03 0.  1.
       11   -1    0    0    0    0 -0.00000000000E+00 -0.00000000000E+00 -0.34996269501E-01  0.35000000000E-01  0.51099999109E-03 0. -1.
       22    1    1    2    0    0 -0.37196322028E-03  0.24161751270E-03 -0.78900062706E-03  0.90512852634E-03  0.00000000000E+00 0. -1.
       22    1    1    2    0    0  0.22707996406E-02  0.41156773568E-02 -0.33828032577E-01  0.34153054317E-01  0.00000000000E+00 0. -1.
       22    1    1    2    0    0 -0.18988364203E-02 -0.43572948696E-02  0.34617033205E-01  0.34941817157E-01  0.00000000000E+00 0.  1.
</event>
<event>
 5   0  0.6221259E+05  0.9118800E+02  0.7546771E-02  0.1180000E+00
      -11   -1    0    0    0    0  0.00000000000E+00  0.00000000000E+00  0.34996269501E-01  0.35000000000E-01  0.51099999109E-03 0.  1.
       11   -1    0    0    0    0 -0.00000000000E+00 -0.00000000000E+00 -0.34996269501E-01  0.35000000000E-01  0.51099999109E-03 0. -1.
       22    1    1    2    0    0  0.30440360900E-02  0.15485379988E-02  0.34831931170E-01  0.34998965051E-01  0.00000000000E+00 0.  1.
       22    1    1    2    0    0 -0.30440105173E-02 -0.15485698618E-02 -0.34832968599E-01  0.34999996715E-01  0.00000000000E+00 0. -1.
       22    1    1    2    0    0 -0.25572697619E-07  0.31863062545E-07  0.10374293219E-05  0.10382335072E-05  0.00000000000E+00 0.  1.
</event>
<event>
 5   0  0.6221259E+05  0.9118800E+02  0.7546771E-02  0.1180000E+00
      -11   -1    0    0    0    0  0.00000000000E+00  0.00000000000E+00  0.34996269501E-01  0.35000000000E-01  0.51099999109E-03 0.  1.
       11   -1    0    0    0    0 -0.00000000000E+00 -0.00000000000E+00 -0.34996269501E-01  0.35000000000E-01  0.51099999109E-03 0. -1.
       22    1    1    2    0    0 -0.17211096824E-02 -0.10167790052E-03 -0.34957501538E-01  0.34999992439E-01  0.00000000000E+00 0. -1.
       22    1    1    2    0    0  0.42184115506E-07  0.12411597456E-06  0.49835472156E-06  0.51530738714E-06  0.00000000000E+00 0. -1.
       22    1    1    2    0    0  0.17210674983E-02  0.10155378454E-03  0.34957003183E-01  0.34999492254E-01  0.00000000000E+00 0.  1.
</event>
<event>
 5   0  0.6221259E+05  0.9118800E+02  0.7546771E-02  0.1180000E+00
      -11   -1    0    0    0    0  0.00000000000E+00  0.00000000000E+00  0.34996269501E-01  0.35000000000E-01  0.51099999109E-03 0. -1.
       11   -1    0    0    0    0 -0.00000000000E+00 -0.00000000000E+00 -0.34996269501E-01  0.35000000000E-01  0.51099999109E-03 0.  1.
       22    1    1    2    0    0  0.55705914892E-03  0.61518176470E-02  0.34028441328E-01  0.34584534035E-01  0.00000000000E+00 0. -1.
       22    1    1    2    0    0 -0.79182394050E-03 -0.57619101849E-02 -0.34362291353E-01  0.34851020949E-01  0.00000000000E+00 0.  1.
       22    1    1    2    0    0  0.23476479158E-03 -0.38990746210E-03  0.33385002557E-03  0.56444501587E-03  0.00000000000E+00 0.  1.
</event>
<event>
 5   0  0.6221259E+05  0.9118800E+02  0.7546771E-02  0.1180000E+00
      -11   -1    0    0    0    0  0.00000000000E+00  0.00000000000E+00  0.34996269501E-01  0.35000000000E-01  0.51099999109E-03 0. -1.
       11   -1    0    0    0    0 -0.00000000000E+00 -0.00000000000E+00 -0.34996269501E-01  0.35000000000E-01  0.51099999109E-03 0.  1.
       22    1    1    2    0    0  0.15743691155E-02 -0.71898120944E-03 -0.34957179766E-01  0.34999999847E-01  0.00000000000E+00 0.  1.
       22    1    1    2    0    0 -0.23168808502E-08 -0.21945321386E-09  0.65975123002E-08  0.69959463361E-08  0.00000000000E+00 0. -1.
       22    1    1    2    0    0 -0.15743667986E-02  0.71898142890E-03  0.34957173168E-01  0.34999993157E-01  0.00000000000E+00 0. -1.
</event>
<event>
 5   0  0.6221259E+05  0.9118800E+02  0.7546771E-02  0.1180000E+00
      -11   -1    0    0    0    0  0.00000000000E+00  0.00000000000E+00  0.34996269501E-01  0.35000000000E-01  0.51099999109E-03 0.  1.
       11   -1    0    0    0    0 -0.00000000000E+00 -0.00000000000E+00 -0.34996269501E-01  0.35000000000E-01  0.51099999109E-03 0. -1.
       22    1    1    2    0    0 -0.18852576881E-05 -0.42590523826E-05  0.42300626808E-05  0.62918323271E-05  0.00000000000E+00 0. -1.
       22    1    1    2    0    0  0.49707237088E-02 -0.43975102681E-03 -0.34641482928E-01  0.34999054482E-01  0.00000000000E+00 0. -1.
       22    1    1    2    0    0 -0.49688384512E-02  0.44401007920E-03  0.34637252866E-01  0.34994653686E-01  0.00000000000E+00 0.  1.
</event>
<event>
 5   0  0.6221259E+05  0.9118800E+02  0.7546771E-02  0.1180000E+00
      -11   -1    0    0    0    0  0.00000000000E+00  0.00000000000E+00  0.34996269501E-01  0.35000000000E-01  0.51099999109E-03 0. -1.
       11   -1    0    0    0    0 -0.00000000000E+00 -0.00000000000E+00 -0.34996269501E-01  0.35000000000E-01  0.51099999109E-03 0.  1.
       22    1    1    2    0    0  0.12899325320E-01  0.23024111921E-02 -0.13966230253E-01  0.19150699164E-01  0.00000000000E+00 0.  1.
       22    1    1    2    0    0 -0.92628860612E-03  0.21279573191E-02 -0.17102839728E-01  0.17259586892E-01  0.00000000000E+00 0.  1.
       22    1    1    2    0    0 -0.11973036714E-01 -0.44303685112E-02  0.31069069981E-01  0.33589713943E-01  0.00000000000E+00 0. -1.
</event>
<event>
 5   0  0.6221259E+05  0.9118800E+02  0.7546771E-02  0.1180000E+00
      -11   -1    0    0    0    0  0.00000000000E+00  0.00000000000E+00  0.34996269501E-01  0.35000000000E-01  0.51099999109E-03 0. -1.
       11   -1    0    0    0    0 -0.00000000000E+00 -0.00000000000E+00 -0.34996269501E-01  0.35000000000E-01  0.51099999109E-03 0.  1.
       22    1    1    2    0    0 -0.17490110156E-02  0.66824388102E-02 -0.34311599833E-01  0.34999998730E-01  0.00000000000E+00 0.  1.
       22    1    1    2    0    0  0.17490077282E-02 -0.66824388378E-02  0.34311464603E-01  0.34999866001E-01  0.00000000000E+00 0. -1.
       22    1    1    2    0    0  0.32873797859E-08  0.27691694463E-10  0.13522977340E-06  0.13526972775E-06  0.00000000000E+00 0.  1.
</event>
<event>
 5   0  0.6221259E+05  0.9118800E+02  0.7546771E-02  0.1180000E+00
      -11   -1    0    0    0    0  0.00000000000E+00  0.00000000000E+00  0.34996269501E-01  0.35000000000E-01  0.51099999109E-03 0.  1.
       11   -1    0    0    0    0 -0.00000000000E+00 -0.00000000000E+00 -0.34996269501E-01  0.35000000000E-01  0.51099999109E-03 0. -1.
       22    1    1    2    0    0 -0.89428987667E-05  0.34179631224E-04 -0.49553896814E-03  0.49679683128E-03  0.00000000000E+00 0.  1.
       22    1    1    2    0    0 -0.86980739755E-02  0.82423899381E-02  0.32862344400E-01  0.34978953133E-01  0.00000000000E+00 0.  1.
       22    1    1    2    0    0  0.87070168743E-02 -0.82765695693E-02 -0.32366805432E-01  0.34524250036E-01  0.00000000000E+00 0. -1.
</event>
<event>
 5   0  0.6221259E+05  0.9118800E+02  0.7546771E-02  0.1180000E+00
      -11   -1    0    0    0    0  0.00000000000E+00  0.00000000000E+00  0.34996269501E-01  0.35000000000E-01  0.51099999109E-03 0. -1.
       11   -1    0    0    0    0 -0.00000000000E+00 -0.00000000000E+00 -0.34996269501E-01  0.35000000000E-01  0.51099999109E-03 0.  1.
       22    1    1    2    0    0 -0.87185146302E-03 -0.12744576141E-01 -0.32585378388E-01  0.34999874723E-01  0.00000000000E+00 0.  1.
       22    1    1    2    0    0  0.87192628519E-03  0.12743957286E-01  0.32585187212E-01  0.34999473258E-01  0.00000000000E+00 0. -1.
       22    1    1    2    0    0 -0.74822178558E-07  0.61885496887E-06  0.19117605935E-06  0.65201849404E-06  0.00000000000E+00 0.  1.
</event>
<event>
 5   0  0.6221259E+05  0.9118800E+02  0.7546771E-02  0.1180000E+00
      -11   -1    0    0    0    0  0.00000000000E+00  0.00000000000E+00  0.34996269501E-01  0.35000000000E-01  0.51099999109E-03 0. -1.
       11   -1    0    0    0    0 -0.00000000000E+00 -0.00000000000E+00 -0.34996269501E-01  0.35000000000E-01  0.51099999109E-03 0.  1.
       22    1    1    2    0    0  0.26897739346E-02  0.12262666257E-02 -0.22516317200E-01  0.22709538830E-01  0.00000000000E+00 0.  1.
       22    1    1    2    0    0 -0.69526399266E-03 -0.72798219562E-02 -0.10980407565E-01  0.13192746114E-01  0.00000000000E+00 0.  1.
       22    1    1    2    0    0 -0.19945099419E-02  0.60535553305E-02  0.33496724765E-01  0.34097715056E-01  0.00000000000E+00 0. -1.
</event>
<event>
 5   0  0.6221259E+05  0.9118800E+02  0.7546771E-02  0.1180000E+00
      -11   -1    0    0    0    0  0.00000000000E+00  0.00000000000E+00  0.34996269501E-01  0.35000000000E-01  0.51099999109E-03 0. -1.
       11   -1    0    0    0    0 -0.00000000000E+00 -0.00000000000E+00 -0.34996269501E-01  0.35000000000E-01  0.51099999109E-03 0.  1.
       22    1    1    2    0    0 -0.47271720614E-02  0.99730750581E-02 -0.33126753408E-01  0.34916903832E-01  0.00000000000E+00 0.  1.
       22    1    1    2    0    0  0.10711658142E-03  0.62127880853E-04 -0.35690314811E-04  0.12887061017E-03  0.00000000000E+00 0. -1.
       22    1    1    2    0    0  0.46200554800E-02 -0.10035202939E-01  0.33162443723E-01  0.34954225558E-01  0.00000000000E+00 0. -1.
</event>
<event>
 5   0  0.6221259E+05  0.9118800E+02  0.7546771E-02  0.1180000E+00
      -11   -1    0    0    0    0  0.00000000000E+00  0.00000000000E+00  0.34996269501E-01  0.35000000000E-01  0.51099999109E-03 0.  1.
       11   -1    0    0    0    0 -0.00000000000E+00 -0.00000000000E+00 -0.34996269501E-01  0.35000000000E-01  0.51099999109E-03 0. -1.
       22    1    1    2    0    0 -0.11633194266E-06 -0.38951438822E-06  0.36610376684E-06  0.54707087987E-06  0.00000000000E+00 0. -1.
       22    1    1    2    0    0 -0.11374478557E-01 -0.12466548051E-02 -0.33076551248E-01  0.34999873616E-01  0.00000000000E+00 0. -1.
       22    1    1    2    0    0  0.11374594889E-01  0.12470443195E-02  0.33076185144E-01  0.34999579313E-01  0.00000000000E+00 0.  1.
</event>
<event>
 5   0  0.6221259E+05  0.9118800E+02  0.7546771E-02  0.1180000E+00
      -11   -1    0    0    0    0  0.00000000000E+00  0.00000000000E+00  0.34996269501E-01  0.35000000000E-01  0.51099999109E-03 0. -1.
       11   -1    0    0    0    0 -0.00000000000E+00 -0.00000000000E+00 -0.34996269501E-01  0.35000000000E-01  0.51099999109E-03 0. -1.
       22    1    1    2    0    0 -0.25283082045E-11  0.16562480969E-12 -0.35000952617E-01  0.34999973183E-01  0.00000000000E+00 0. -1.
       22    1    1    2    0    0  0.37574764989E-07 -0.24614535875E-08  0.35000966217E-01  0.34999986783E-01  0.00000000000E+00 0. -1.
       22    1    1    2    0    0 -0.37572236681E-07  0.24612879627E-08 -0.13599890704E-07  0.40033585086E-07  0.00000000000E+00 0.  1.
</event>
<event>
 5   0  0.6221259E+05  0.9118800E+02  0.7546771E-02  0.1180000E+00
      -11   -1    0    0    0    0  0.00000000000E+00  0.00000000000E+00  0.34996269501E-01  0.35000000000E-01  0.51099999109E-03 0.  1.
       11   -1    0    0    0    0 -0.00000000000E+00 -0.00000000000E+00 -0.34996269501E-01  0.35000000000E-01  0.51099999109E-03 0. -1.
       22    1    1    2    0    0  0.83438757777E-03 -0.38809722804E-02  0.34774127686E-01  0.34999972925E-01  0.00000000000E+00 0.  1.
       22    1    1    2    0    0  0.12953864615E-07  0.12971716166E-07  0.24688260930E-07  0.30750256202E-07  0.00000000000E+00 0. -1.
       22    1    1    2    0    0 -0.83440053164E-03  0.38809593087E-02 -0.34774152374E-01  0.34999996325E-01  0.00000000000E+00 0. -1.
</event>
<event>
 5   0  0.6221259E+05  0.9118800E+02  0.7546771E-02  0.1180000E+00
      -11   -1    0    0    0    0  0.00000000000E+00  0.00000000000E+00  0.34996269501E-01  0.35000000000E-01  0.51099999109E-03 0.  1.
       11   -1    0    0    0    0 -0.00000000000E+00 -0.00000000000E+00 -0.34996269501E-01  0.35000000000E-01  0.51099999109E-03 0. -1.
       22    1    1    2    0    0  0.16836280880E-01  0.14571779645E-02 -0.28371265402E-01  0.33022907534E-01  0.00000000000E+00 0. -1.
       22    1    1    2    0    0 -0.15738389923E-01 -0.17023212914E-02  0.30615907384E-01  0.34466340102E-01  0.00000000000E+00 0.  1.
       22    1    1    2    0    0 -0.10978909577E-02  0.24514332698E-03 -0.22446419819E-02  0.25107523639E-02  0.00000000000E+00 0.  1.
</event>
<event>
 5   0  0.6221259E+05  0.9118800E+02  0.7546771E-02  0.1180000E+00
      -11   -1    0    0    0    0  0.00000000000E+00  0.00000000000E+00  0.34996269501E-01  0.35000000000E-01  0.51099999109E-03 0. -1.
       11   -1    0    0    0    0 -0.00000000000E+00 -0.00000000000E+00 -0.34996269501E-01  0.35000000000E-01  0.51099999109E-03 0.  1.
       22    1    1    2    0    0 -0.12644840470E-03 -0.18333258266E-03 -0.90833164046E-03  0.93523601512E-03  0.00000000000E+00 0. -1.
       22    1    1    2    0    0  0.15011660891E-02  0.28289151689E-03  0.34955923111E-01  0.34989285329E-01  0.00000000000E+00 0. -1.
       22    1    1    2    0    0 -0.13747176844E-02 -0.99558934227E-04 -0.34047591471E-01  0.34075478656E-01  0.00000000000E+00 0.  1.
</event>
<event>
 5   0  0.6221259E+05  0.9118800E+02  0.7546771E-02  0.1180000E+00
      -11   -1    0    0    0    0  0.00000000000E+00  0.00000000000E+00  0.34996269501E-01  0.35000000000E-01  0.51099999109E-03 0. -1.
       11   -1    0    0    0    0 -0.00000000000E+00 -0.00000000000E+00 -0.34996269501E-01  0.35000000000E-01  0.51099999109E-03 0. -1.
       22    1    1    2    0    0 -0.25212982768E-03  0.81065229578E-04  0.34944089846E-01  0.34945093449E-01  0.00000000000E+00 0. -1.
       22    1    1    2    0    0  0.56575814617E-04  0.29441755621E-03 -0.36114292520E-03  0.46936844017E-03  0.00000000000E+00 0.  1.
       22    1    1    2    0    0  0.19555401306E-03 -0.37548278579E-03 -0.34582946921E-01  0.34585538111E-01  0.00000000000E+00 0. -1.
</event>
<event>
 5   0  0.6221259E+05  0.9118800E+02  0.7546771E-02  0.1180000E+00
      -11   -1    0    0    0    0  0.00000000000E+00  0.00000000000E+00  0.34996269501E-01  0.35000000000E-01  0.51099999109E-03 0.  1.
       11   -1    0    0    0    0 -0.00000000000E+00 -0.00000000000E+00 -0.34996269501E-01  0.35000000000E-01  0.51099999109E-03 0. -1.
       22    1    1    2    0    0  0.49408027910E-09  0.23718354033E-09  0.10944360753E-08  0.12239941491E-08  0.00000000000E+00 0. -1.
       22    1    1    2    0    0 -0.12434948981E-01  0.73114899506E-02  0.31889090379E-01  0.34999998952E-01  0.00000000000E+00 0.  1.
       22    1    1    2    0    0  0.12434948487E-01 -0.73114901878E-02 -0.31889091473E-01  0.34999999824E-01  0.00000000000E+00 0. -1.
</event>
<event>
 5   0  0.6221259E+05  0.9118800E+02  0.7546771E-02  0.1180000E+00
      -11   -1    0    0    0    0  0.00000000000E+00  0.00000000000E+00  0.34996269501E-01  0.35000000000E-01  0.51099999109E-03 0. -1.
       11   -1    0    0    0    0 -0.00000000000E+00 -0.00000000000E+00 -0.34996269501E-01  0.35000000000E-01  0.51099999109E-03 0. -1.
       22    1    1    2    0    0 -0.24612877819E-04 -0.21916733686E-04  0.81485466585E-04  0.87897771500E-04  0.00000000000E+00 0.  1.
       22    1    1    2    0    0  0.17519036107E-02  0.23573895328E-02 -0.34874539542E-01  0.34997999371E-01  0.00000000000E+00 0. -1.
       22    1    1    2    0    0 -0.17272907329E-02 -0.23354727992E-02  0.34793054076E-01  0.34914102858E-01  0.00000000000E+00 0. -1.
</event>
<event>
 5   0  0.6221259E+05  0.9118800E+02  0.7546771E-02  0.1180000E+00
      -11   -1    0    0    0    0  0.00000000000E+00  0.00000000000E+00  0.34996269501E-01  0.35000000000E-01  0.51099999109E-03 0.  1.
       11   -1    0    0    0    0 -0.00000000000E+00 -0.00000000000E+00 -0.34996269501E-01  0.35000000000E-01  0.51099999109E-03 0. -1.
       22    1    1    2    0    0  0.60634469876E-05 -0.21135011310E-04  0.42596467492E-04  0.47936553227E-04  0.00000000000E+00 0.  1.
       22    1    1    2    0    0 -0.27473377490E-01 -0.12434691088E-01  0.17693611043E-01  0.34963865417E-01  0.00000000000E+00 0.  1.
       22    1    1    2    0    0  0.27467314043E-01  0.12455826100E-01 -0.17736207510E-01  0.34988198030E-01  0.00000000000E+00 0. -1.
</event>
<event>
 5   0  0.6221259E+05  0.9118800E+02  0.7546771E-02  0.1180000E+00
      -11   -1    0    0    0    0  0.00000000000E+00  0.00000000000E+00  0.34996269501E-01  0.35000000000E-01  0.51099999109E-03 0.  1.
       11   -1    0    0    0    0 -0.00000000000E+00 -0.00000000000E+00 -0.34996269501E-01  0.35000000000E-01  0.51099999109E-03 0. -1.
       22    1    1    2    0    0 -0.27561548210E-02  0.66854024450E-03  0.34883686154E-01  0.34998784195E-01  0.00000000000E+00 0.  1.
       22    1    1    2    0    0  0.27586208302E-02 -0.66787018523E-03 -0.34883358903E-01  0.34998639514E-01  0.00000000000E+00 0. -1.
       22    1    1    2    0    0 -0.24660092275E-05 -0.67005927082E-06 -0.32725082044E-06  0.25762907514E-05  0.00000000000E+00 0.  1.
</event>
<event>
 5   0  0.6221259E+05  0.9118800E+02  0.7546771E-02  0.1180000E+00
      -11   -1    0    0    0    0  0.00000000000E+00  0.00000000000E+00  0.34996269501E-01  0.35000000000E-01  0.51099999109E-03 0.  1.
       11   -1    0    0    0    0 -0.00000000000E+00 -0.00000000000E+00 -0.34996269501E-01  0.35000000000E-01  0.51099999109E-03 0. -1.
       22    1    1    2    0    0  0.17444999907E-01  0.12814009167E-01 -0.27504048437E-01  0.34999993330E-01  0.00000000000E+00 0. -1.
       22    1    1    2    0    0 -0.17445000247E-01 -0.12814014310E-01  0.27503996937E-01  0.34999954912E-01  0.00000000000E+00 0.  1.
       22    1    1    2    0    0  0.33973971094E-09  0.51430599517E-08  0.51500026186E-07  0.51757310458E-07  0.00000000000E+00 0. -1.
</event>
<event>
 5   0  0.6221259E+05  0.9118800E+02  0.7546771E-02  0.1180000E+00
      -11   -1    0    0    0    0  0.00000000000E+00  0.00000000000E+00  0.34996269501E-01  0.35000000000E-01  0.51099999109E-03 0. -1.
       11   -1    0    0    0    0 -0.00000000000E+00 -0.00000000000E+00 -0.34996269501E-01  0.35000000000E-01  0.51099999109E-03 0.  1.
       22    1    1    2    0    0 -0.34626894958E-01 -0.46751098815E-02  0.16153780605E-02  0.34978392660E-01  0.00000000000E+00 0.  1.
       22    1    1    2    0    0  0.34629981556E-01  0.46754592352E-02 -0.16535794976E-02  0.34983279818E-01  0.00000000000E+00 0. -1.
       22    1    1    2    0    0 -0.30865986452E-05 -0.34935369244E-06  0.38201437018E-04  0.38327521827E-04  0.00000000000E+00 0. -1.
</event>
<event>
 5   0  0.6221259E+05  0.9118800E+02  0.7546771E-02  0.1180000E+00
      -11   -1    0    0    0    0  0.00000000000E+00  0.00000000000E+00  0.34996269501E-01  0.35000000000E-01  0.51099999109E-03 0.  1.
       11   -1    0    0    0    0 -0.00000000000E+00 -0.00000000000E+00 -0.34996269501E-01  0.35000000000E-01  0.51099999109E-03 0. -1.
       22    1    1    2    0    0  0.34896228594E-02  0.66065760002E-02  0.34125282153E-01  0.34933639893E-01  0.00000000000E+00 0.  1.
       22    1    1    2    0    0  0.55791063614E-04  0.59655450248E-04 -0.42813465286E-02  0.42821255836E-02  0.00000000000E+00 0. -1.
       22    1    1    2    0    0 -0.35454139230E-02 -0.66662314505E-02 -0.29843935624E-01  0.30784234523E-01  0.00000000000E+00 0. -1.
</event>
<event>
 5   0  0.6221259E+05  0.9118800E+02  0.7546771E-02  0.1180000E+00
      -11   -1    0    0    0    0  0.00000000000E+00  0.00000000000E+00  0.34996269501E-01  0.35000000000E-01  0.51099999109E-03 0. -1.
       11   -1    0    0    0    0 -0.00000000000E+00 -0.00000000000E+00 -0.34996269501E-01  0.35000000000E-01  0.51099999109E-03 0.  1.
       22    1    1    2    0    0 -0.64640029537E-02 -0.17363158442E-02 -0.34322496341E-01  0.34969013168E-01  0.00000000000E+00 0.  1.
       22    1    1    2    0    0 -0.91732774179E-04 -0.15921545391E-03  0.78419293893E-03  0.80543344113E-03  0.00000000000E+00 0.  1.
       22    1    1    2    0    0  0.65557357279E-02  0.18955312981E-02  0.33538303402E-01  0.34225553391E-01  0.00000000000E+00 0. -1.
</event>
<event>
 5   0  0.6221259E+05  0.9118800E+02  0.7546771E-02  0.1180000E+00
      -11   -1    0    0    0    0  0.00000000000E+00  0.00000000000E+00  0.34996269501E-01  0.35000000000E-01  0.51099999109E-03 0.  1.
       11   -1    0    0    0    0 -0.00000000000E+00 -0.00000000000E+00 -0.34996269501E-01  0.35000000000E-01  0.51099999109E-03 0. -1.
       22    1    1    2    0    0 -0.53811978491E-02 -0.18453649633E-01  0.28681219571E-01  0.34526900109E-01  0.00000000000E+00 0.  1.
       22    1    1    2    0    0 -0.33747520063E-03 -0.61717928154E-03 -0.21575413237E-03  0.73576465140E-03  0.00000000000E+00 0.  1.
       22    1    1    2    0    0  0.57186730498E-02  0.19070828915E-01 -0.28465465438E-01  0.34737335240E-01  0.00000000000E+00 0. -1.
</event>
<event>
 5   0  0.6221259E+05  0.9118800E+02  0.7546771E-02  0.1180000E+00
      -11   -1    0    0    0    0  0.00000000000E+00  0.00000000000E+00  0.34996269501E-01  0.35000000000E-01  0.51099999109E-03 0.  1.
       11   -1    0    0    0    0 -0.00000000000E+00 -0.00000000000E+00 -0.34996269501E-01  0.35000000000E-01  0.51099999109E-03 0. -1.
       22    1    1    2    0    0  0.55152734260E-04  0.93091501066E-05  0.10289577617E-03  0.11711543504E-03  0.00000000000E+00 0. -1.
       22    1    1    2    0    0 -0.51937937930E-03  0.81448679499E-02 -0.34025655830E-01  0.34990768547E-01  0.00000000000E+00 0. -1.
       22    1    1    2    0    0  0.46422664504E-03 -0.81541771000E-02  0.33922760054E-01  0.34892116018E-01  0.00000000000E+00 0.  1.
</event>
<event>
 5   0  0.6221259E+05  0.9118800E+02  0.7546771E-02  0.1180000E+00
      -11   -1    0    0    0    0  0.00000000000E+00  0.00000000000E+00  0.34996269501E-01  0.35000000000E-01  0.51099999109E-03 0.  1.
       11   -1    0    0    0    0 -0.00000000000E+00 -0.00000000000E+00 -0.34996269501E-01  0.35000000000E-01  0.51099999109E-03 0. -1.
       22    1    1    2    0    0  0.38085179658E-02  0.30556256829E-02 -0.34657724041E-01  0.34999992759E-01  0.00000000000E+00 0. -1.
       22    1    1    2    0    0  0.15923212407E-07 -0.20250043977E-07  0.15922367744E-07  0.30284233010E-07  0.00000000000E+00 0. -1.
       22    1    1    2    0    0 -0.38085338890E-02 -0.30556054328E-02  0.34657708119E-01  0.34999976957E-01  0.00000000000E+00 0.  1.
</event>
<event>
 5   0  0.6221259E+05  0.9118800E+02  0.7546771E-02  0.1180000E+00
      -11   -1    0    0    0    0  0.00000000000E+00  0.00000000000E+00  0.34996269501E-01  0.35000000000E-01  0.51099999109E-03 0.  1.
       11   -1    0    0    0    0 -0.00000000000E+00 -0.00000000000E+00 -0.34996269501E-01  0.35000000000E-01  0.51099999109E-03 0. -1.
       22    1    1    2    0    0  0.21873304695E-02  0.36862223850E-02  0.34454286206E-01  0.34719886060E-01  0.00000000000E+00 0.  1.
       22    1    1    2    0    0  0.13338455151E-02  0.59758473005E-03 -0.14377455956E-01  0.14451556703E-01  0.00000000000E+00 0. -1.
       22    1    1    2    0    0 -0.35211759846E-02 -0.42838071150E-02 -0.20076830250E-01  0.20828557238E-01  0.00000000000E+00 0. -1.
</event>
<event>
 5   0  0.6221259E+05  0.9118800E+02  0.7546771E-02  0.1180000E+00
      -11   -1    0    0    0    0  0.00000000000E+00  0.00000000000E+00  0.34996269501E-01  0.35000000000E-01  0.51099999109E-03 0.  1.
       11   -1    0    0    0    0 -0.00000000000E+00 -0.00000000000E+00 -0.34996269501E-01  0.35000000000E-01  0.51099999109E-03 0. -1.
       22    1    1    2    0    0  0.73619530526E-02  0.42997091474E-02  0.32503098174E-01  0.33602637432E-01  0.00000000000E+00 0.  1.
       22    1    1    2    0    0  0.16134522706E-06  0.35218376037E-04  0.14172160380E-02  0.14176535749E-02  0.00000000000E+00 0.  1.
       22    1    1    2    0    0 -0.73621143978E-02 -0.43349275235E-02 -0.33920314212E-01  0.34979708993E-01  0.00000000000E+00 0. -1.
</event>
<event>
 5   0  0.6221259E+05  0.9118800E+02  0.7546771E-02  0.1180000E+00
      -11   -1    0    0    0    0  0.00000000000E+00  0.00000000000E+00  0.34996269501E-01  0.35000000000E-01  0.51099999109E-03 0.  1.
       11   -1    0    0    0    0 -0.00000000000E+00 -0.00000000000E+00 -0.34996269501E-01  0.35000000000E-01  0.51099999109E-03 0. -1.
       22    1    1    2    0    0  0.21760515672E-02 -0.26664610231E-02  0.34830116721E-01  0.34999746365E-01  0.00000000000E+00 0.  1.
       22    1    1    2    0    0 -0.21760676107E-02  0.26664505986E-02 -0.34830370509E-01  0.34999999127E-01  0.00000000000E+00 0. -1.
       22    1    1    2    0    0  0.16043479184E-07  0.10424454948E-07  0.25378810148E-06  0.25450827676E-06  0.00000000000E+00 0. -1.
</event>
<event>
 5   0  0.6221259E+05  0.9118800E+02  0.7546771E-02  0.1180000E+00
      -11   -1    0    0    0    0  0.00000000000E+00  0.00000000000E+00  0.34996269501E-01  0.35000000000E-01  0.51099999109E-03 0.  1.
       11   -1    0    0    0    0 -0.00000000000E+00 -0.00000000000E+00 -0.34996269501E-01  0.35000000000E-01  0.51099999109E-03 0. -1.
       22    1    1    2    0    0 -0.77448071677E-02 -0.10682736414E-02 -0.34115571495E-01  0.34999935216E-01  0.00000000000E+00 0. -1.
       22    1    1    2    0    0  0.77446943219E-02  0.10681344585E-02  0.34115549148E-01  0.34999884214E-01  0.00000000000E+00 0.  1.
       22    1    1    2    0    0  0.11284581891E-06  0.13918297400E-06  0.22347583804E-07  0.18056991333E-06  0.00000000000E+00 0. -1.
</event>
<event>
 5   0  0.6221259E+05  0.9118800E+02  0.7546771E-02  0.1180000E+00
      -11   -1    0    0    0    0  0.00000000000E+00  0.00000000000E+00  0.34996269501E-01  0.35000000000E-01  0.51099999109E-03 0. -1.
       11   -1    0    0    0    0 -0.00000000000E+00 -0.00000000000E+00 -0.34996269501E-01  0.35000000000E-01  0.51099999109E-03 0.  1.
       22    1    1    2    0    0 -0.18756638826E-03 -0.13561248203E-03  0.25056402031E-02  0.25163077560E-02  0.00000000000E+00 0. -1.
       22    1    1    2    0    0 -0.13742931011E-01  0.62172496358E-03  0.29513385217E-01  0.32562165187E-01  0.00000000000E+00 0. -1.
       22    1    1    2    0    0  0.13930497399E-01 -0.48611248155E-03 -0.32019025420E-01  0.34921527057E-01  0.00000000000E+00 0.  1.
</event>
<event>
 5   0  0.6221259E+05  0.9118800E+02  0.7546771E-02  0.1180000E+00
      -11   -1    0    0    0    0  0.00000000000E+00  0.00000000000E+00  0.34996269501E-01  0.35000000000E-01  0.51099999109E-03 0.  1.
       11   -1    0    0    0    0 -0.00000000000E+00 -0.00000000000E+00 -0.34996269501E-01  0.35000000000E-01  0.51099999109E-03 0. -1.
       22    1    1    2    0    0  0.11888489014E-05  0.13049710998E-05  0.12497903685E-04  0.12621961329E-04  0.00000000000E+00 0.  1.
       22    1    1    2    0    0  0.93154070763E-03 -0.39854476113E-02 -0.34759821466E-01  0.34999953559E-01  0.00000000000E+00 0. -1.
       22    1    1    2    0    0 -0.93272955653E-03  0.39841426402E-02  0.34747323562E-01  0.34987424480E-01  0.00000000000E+00 0.  1.
</event>
<event>
 5   0  0.6221259E+05  0.9118800E+02  0.7546771E-02  0.1180000E+00
      -11   -1    0    0    0    0  0.00000000000E+00  0.00000000000E+00  0.34996269501E-01  0.35000000000E-01  0.51099999109E-03 0. -1.
       11   -1    0    0    0    0 -0.00000000000E+00 -0.00000000000E+00 -0.34996269501E-01  0.35000000000E-01  0.51099999109E-03 0. -1.
       22    1    1    2    0    0 -0.92940626415E-10  0.14838944410E-09 -0.34999940119E-01  0.34999889170E-01  0.00000000000E+00 0. -1.
       22    1    1    2    0    0  0.17192155078E-05 -0.27449076182E-05  0.34976378131E-01  0.34976327298E-01  0.00000000000E+00 0. -1.
       22    1    1    2    0    0 -0.17191225672E-05  0.27447592288E-05  0.23561987864E-04  0.23783531229E-04  0.00000000000E+00 0. -1.
</event>
<event>
 5   0  0.6221259E+05  0.9118800E+02  0.7546771E-02  0.1180000E+00
      -11   -1    0    0    0    0  0.00000000000E+00  0.00000000000E+00  0.34996269501E-01  0.35000000000E-01  0.51099999109E-03 0.  1.
       11   -1    0    0    0    0 -0.00000000000E+00 -0.00000000000E+00 -0.34996269501E-01  0.35000000000E-01  0.51099999109E-03 0. -1.
       22    1    1    2    0    0 -0.16308757936E-07  0.65587740029E-08  0.36706419357E-07  0.40698333183E-07  0.00000000000E+00 0.  1.
       22    1    1    2    0    0  0.43444338834E-02  0.20482813775E-02 -0.34668867059E-01  0.34999998651E-01  0.00000000000E+00 0. -1.
       22    1    1    2    0    0 -0.43444175747E-02 -0.20482879363E-02  0.34668830353E-01  0.34999960651E-01  0.00000000000E+00 0.  1.
</event>
<event>
 5   0  0.6221259E+05  0.9118800E+02  0.7546771E-02  0.1180000E+00
      -11   -1    0    0    0    0  0.00000000000E+00  0.00000000000E+00  0.34996269501E-01  0.35000000000E-01  0.51099999109E-03 0.  1.
       11   -1    0    0    0    0 -0.00000000000E+00 -0.00000000000E+00 -0.34996269501E-01  0.35000000000E-01  0.51099999109E-03 0. -1.
       22    1    1    2    0    0 -0.56987042562E-03  0.10412276697E-01  0.19132394142E-01  0.21789648091E-01  0.00000000000E+00 0. -1.
       22    1    1    2    0    0 -0.63599468309E-02 -0.13928669586E-01  0.98484546486E-02  0.18205735884E-01  0.00000000000E+00 0.  1.
       22    1    1    2    0    0  0.69298172565E-02  0.35163928885E-02 -0.28980848791E-01  0.30004616025E-01  0.00000000000E+00 0. -1.
</event>
<event>
 5   0  0.6221259E+05  0.9118800E+02  0.7546771E-02  0.1180000E+00
      -11   -1    0    0    0    0  0.00000000000E+00  0.00000000000E+00  0.34996269501E-01  0.35000000000E-01  0.51099999109E-03 0. -1.
       11   -1    0    0    0    0 -0.00000000000E+00 -0.00000000000E+00 -0.34996269501E-01  0.35000000000E-01  0.51099999109E-03 0.  1.
       22    1    1    2    0    0  0.37939686471E-03 -0.19246864377E-02  0.56865138534E-02  0.60153802598E-02  0.00000000000E+00 0. -1.
       22    1    1    2    0    0  0.14309538768E-02  0.90849422085E-02 -0.33742185225E-01  0.34973116356E-01  0.00000000000E+00 0.  1.
       22    1    1    2    0    0 -0.18103507416E-02 -0.71602557707E-02  0.28055671371E-01  0.29011503384E-01  0.00000000000E+00 0. -1.
</event>
<event>
 5   0  0.6221259E+05  0.9118800E+02  0.7546771E-02  0.1180000E+00
      -11   -1    0    0    0    0  0.00000000000E+00  0.00000000000E+00  0.34996269501E-01  0.35000000000E-01  0.51099999109E-03 0. -1.
       11   -1    0    0    0    0 -0.00000000000E+00 -0.00000000000E+00 -0.34996269501E-01  0.35000000000E-01  0.51099999109E-03 0.  1.
       22    1    1    2    0    0 -0.33521634706E-04 -0.67434134362E-05 -0.31870742488E-04  0.46743104784E-04  0.00000000000E+00 0. -1.
       22    1    1    2    0    0 -0.56208665428E-02 -0.16508779477E-02  0.34495563737E-01  0.34989476364E-01  0.00000000000E+00 0. -1.
       22    1    1    2    0    0  0.56543881775E-02  0.16576213611E-02 -0.34463692994E-01  0.34963780531E-01  0.00000000000E+00 0.  1.
</event>
<event>
 5   0  0.6221259E+05  0.9118800E+02  0.7546771E-02  0.1180000E+00
      -11   -1    0    0    0    0  0.00000000000E+00  0.00000000000E+00  0.34996269501E-01  0.35000000000E-01  0.51099999109E-03 0. -1.
       11   -1    0    0    0    0 -0.00000000000E+00 -0.00000000000E+00 -0.34996269501E-01  0.35000000000E-01  0.51099999109E-03 0.  1.
       22    1    1    2    0    0 -0.84592681696E-02 -0.85318168662E-02  0.32873219029E-01  0.34999994948E-01  0.00000000000E+00 0. -1.
       22    1    1    2    0    0 -0.29706987366E-08  0.36652593233E-08  0.42117945541E-08  0.63244280576E-08  0.00000000000E+00 0. -1.
       22    1    1    2    0    0  0.84592711403E-02  0.85318132010E-02 -0.32873223241E-01  0.34999998728E-01  0.00000000000E+00 0.  1.
</event>
<event>
 5   0  0.6221259E+05  0.9118800E+02  0.7546771E-02  0.1180000E+00
      -11   -1    0    0    0    0  0.00000000000E+00  0.00000000000E+00  0.34996269501E-01  0.35000000000E-01  0.51099999109E-03 0. -1.
       11   -1    0    0    0    0 -0.00000000000E+00 -0.00000000000E+00 -0.34996269501E-01  0.35000000000E-01  0.51099999109E-03 0.  1.
       22    1    1    2    0    0  0.37024186767E-04  0.57971622621E-03  0.11325176035E-02  0.12728070614E-02  0.00000000000E+00 0. -1.
       22    1    1    2    0    0 -0.42770283617E-03  0.10647132587E-02  0.33767141011E-01  0.33786629842E-01  0.00000000000E+00 0. -1.
       22    1    1    2    0    0  0.39067864941E-03 -0.16444294849E-02 -0.34899658614E-01  0.34940563097E-01  0.00000000000E+00 0.  1.
</event>
<event>
 5   0  0.6221259E+05  0.9118800E+02  0.7546771E-02  0.1180000E+00
      -11   -1    0    0    0    0  0.00000000000E+00  0.00000000000E+00  0.34996269501E-01  0.35000000000E-01  0.51099999109E-03 0.  1.
       11   -1    0    0    0    0 -0.00000000000E+00 -0.00000000000E+00 -0.34996269501E-01  0.35000000000E-01  0.51099999109E-03 0. -1.
       22    1    1    2    0    0  0.99524671215E-05  0.59334188942E-04 -0.25013303498E-04  0.65155682262E-04  0.00000000000E+00 0.  1.
       22    1    1    2    0    0 -0.31694221662E-01  0.13204225261E-01  0.65985060026E-02  0.34963059548E-01  0.00000000000E+00 0.  1.
       22    1    1    2    0    0  0.31684269195E-01 -0.13263559450E-01 -0.65734926991E-02  0.34971784770E-01  0.00000000000E+00 0. -1.
</event>
<event>
 5   0  0.6221259E+05  0.9118800E+02  0.7546771E-02  0.1180000E+00
      -11   -1    0    0    0    0  0.00000000000E+00  0.00000000000E+00  0.34996269501E-01  0.35000000000E-01  0.51099999109E-03 0. -1.
       11   -1    0    0    0    0 -0.00000000000E+00 -0.00000000000E+00 -0.34996269501E-01  0.35000000000E-01  0.51099999109E-03 0.  1.
       22    1    1    2    0    0 -0.49511113996E-03  0.34485284483E-03  0.34848900871E-01  0.34854123865E-01  0.00000000000E+00 0. -1.
       22    1    1    2    0    0 -0.19989118270E-05  0.69019296221E-05  0.14574999093E-03  0.14592700962E-03  0.00000000000E+00 0.  1.
       22    1    1    2    0    0  0.49711005179E-03 -0.35175477445E-03 -0.34994650862E-01  0.34999949125E-01  0.00000000000E+00 0.  1.
</event>
<event>
 5   0  0.6221259E+05  0.9118800E+02  0.7546771E-02  0.1180000E+00
      -11   -1    0    0    0    0  0.00000000000E+00  0.00000000000E+00  0.34996269501E-01  0.35000000000E-01  0.51099999109E-03 0. -1.
       11   -1    0    0    0    0 -0.00000000000E+00 -0.00000000000E+00 -0.34996269501E-01  0.35000000000E-01  0.51099999109E-03 0.  1.
       22    1    1    2    0    0 -0.15089077123E-03  0.41221062752E-03 -0.34997054870E-01  0.34999807645E-01  0.00000000000E+00 0.  1.
       22    1    1    2    0    0  0.15137438569E-03 -0.41305119442E-03  0.34995979281E-01  0.34998744140E-01  0.00000000000E+00 0. -1.
       22    1    1    2    0    0 -0.48361445965E-06  0.84056689173E-06  0.10755888396E-05  0.14482151073E-05  0.00000000000E+00 0.  1.
</event>
<event>
 5   0  0.6221259E+05  0.9118800E+02  0.7546771E-02  0.1180000E+00
      -11   -1    0    0    0    0  0.00000000000E+00  0.00000000000E+00  0.34996269501E-01  0.35000000000E-01  0.51099999109E-03 0. -1.
       11   -1    0    0    0    0 -0.00000000000E+00 -0.00000000000E+00 -0.34996269501E-01  0.35000000000E-01  0.51099999109E-03 0.  1.
       22    1    1    2    0    0  0.20897391590E-07 -0.29856217143E-08  0.16427966383E-06  0.16563038024E-06  0.00000000000E+00 0. -1.
       22    1    1    2    0    0 -0.34758783238E-02  0.60395861943E-03  0.34821574645E-01  0.34999836527E-01  0.00000000000E+00 0. -1.
       22    1    1    2    0    0  0.34758574264E-02 -0.60395563381E-03 -0.34821738925E-01  0.34999997843E-01  0.00000000000E+00 0.  1.
</event>
<event>
 5   0  0.6221259E+05  0.9118800E+02  0.7546771E-02  0.1180000E+00
      -11   -1    0    0    0    0  0.00000000000E+00  0.00000000000E+00  0.34996269501E-01  0.35000000000E-01  0.51099999109E-03 0.  1.
       11   -1    0    0    0    0 -0.00000000000E+00 -0.00000000000E+00 -0.34996269501E-01  0.35000000000E-01  0.51099999109E-03 0. -1.
       22    1    1    2    0    0 -0.23758590675E-01  0.24227160491E-01  0.39964786763E-02  0.34167203253E-01  0.00000000000E+00 0.  1.
       22    1    1    2    0    0 -0.19765212522E-03  0.85098677608E-04  0.12777880198E-02  0.12957817606E-02  0.00000000000E+00 0. -1.
       22    1    1    2    0    0  0.23956242801E-01 -0.24312259168E-01 -0.52742666961E-02  0.34537014986E-01  0.00000000000E+00 0. -1.
</event>
<event>
 5   0  0.6221259E+05  0.9118800E+02  0.7546771E-02  0.1180000E+00
      -11   -1    0    0    0    0  0.00000000000E+00  0.00000000000E+00  0.34996269501E-01  0.35000000000E-01  0.51099999109E-03 0. -1.
       11   -1    0    0    0    0 -0.00000000000E+00 -0.00000000000E+00 -0.34996269501E-01  0.35000000000E-01  0.51099999109E-03 0.  1.
       22    1    1    2    0    0  0.36979670310E-08 -0.18203584202E-08  0.42042396883E-09  0.41431173353E-08  0.00000000000E+00 0.  1.
       22    1    1    2    0    0  0.33271020518E-05  0.39234945572E-03 -0.34997798806E-01  0.34999998149E-01  0.00000000000E+00 0.  1.
       22    1    1    2    0    0 -0.33308000188E-05 -0.39234763536E-03  0.34997798385E-01  0.34999997708E-01  0.00000000000E+00 0. -1.
</event>
<event>
 5   0  0.6221259E+05  0.9118800E+02  0.7546771E-02  0.1180000E+00
      -11   -1    0    0    0    0  0.00000000000E+00  0.00000000000E+00  0.34996269501E-01  0.35000000000E-01  0.51099999109E-03 0.  1.
       11   -1    0    0    0    0 -0.00000000000E+00 -0.00000000000E+00 -0.34996269501E-01  0.35000000000E-01  0.51099999109E-03 0.  1.
       22    1    1    2    0    0  0.22029073883E-03  0.30502835816E-03 -0.34997976626E-01  0.34999999117E-01  0.00000000000E+00 0.  1.
       22    1    1    2    0    0  0.52923836396E-08 -0.43057458157E-07  0.45108548840E-06  0.45316671532E-06  0.00000000000E+00 0. -1.
       22    1    1    2    0    0 -0.22029603121E-03 -0.30498530070E-03  0.34997525540E-01  0.34999547716E-01  0.00000000000E+00 0.  1.
</event>
<event>
 5   0  0.6221259E+05  0.9118800E+02  0.7546771E-02  0.1180000E+00
      -11   -1    0    0    0    0  0.00000000000E+00  0.00000000000E+00  0.34996269501E-01  0.35000000000E-01  0.51099999109E-03 0.  1.
       11   -1    0    0    0    0 -0.00000000000E+00 -0.00000000000E+00 -0.34996269501E-01  0.35000000000E-01  0.51099999109E-03 0. -1.
       22    1    1    2    0    0 -0.35379279628E-02 -0.20956363594E-02  0.34535145686E-01  0.34779087302E-01  0.00000000000E+00 0.  1.
       22    1    1    2    0    0  0.35275308653E-02  0.21136734521E-02 -0.34756322734E-01  0.34998757970E-01  0.00000000000E+00 0. -1.
       22    1    1    2    0    0  0.10397097417E-04 -0.18037092682E-04  0.22117704807E-03  0.22215472747E-03  0.00000000000E+00 0. -1.
</event>
<event>
 5   0  0.6221259E+05  0.9118800E+02  0.7546771E-02  0.1180000E+00
      -11   -1    0    0    0    0  0.00000000000E+00  0.00000000000E+00  0.34996269501E-01  0.35000000000E-01  0.51099999109E-03 0.  1.
       11   -1    0    0    0    0 -0.00000000000E+00 -0.00000000000E+00 -0.34996269501E-01  0.35000000000E-01  0.51099999109E-03 0. -1.
       22    1    1    2    0    0  0.34878594059E-02  0.27949800659E-02  0.34713141967E-01  0.34999704313E-01  0.00000000000E+00 0.  1.
       22    1    1    2    0    0  0.88335236693E-08  0.14649132835E-07  0.29562455680E-06  0.29611907540E-06  0.00000000000E+00 0. -1.
       22    1    1    2    0    0 -0.34878682394E-02 -0.27949947150E-02 -0.34713437592E-01  0.34999999568E-01  0.00000000000E+00 0. -1.
</event>
<event>
 5   0  0.6221259E+05  0.9118800E+02  0.7546771E-02  0.1180000E+00
      -11   -1    0    0    0    0  0.00000000000E+00  0.00000000000E+00  0.34996269501E-01  0.35000000000E-01  0.51099999109E-03 0.  1.
       11   -1    0    0    0    0 -0.00000000000E+00 -0.00000000000E+00 -0.34996269501E-01  0.35000000000E-01  0.51099999109E-03 0. -1.
       22    1    1    2    0    0  0.58938923565E-09  0.84112819887E-09  0.49939745587E-08  0.50984956812E-08  0.00000000000E+00 0. -1.
       22    1    1    2    0    0  0.64945868412E-02  0.22388405335E-01 -0.26107079070E-01  0.34999998990E-01  0.00000000000E+00 0. -1.
       22    1    1    2    0    0 -0.64945874306E-02 -0.22388406176E-01  0.26107074076E-01  0.34999995912E-01  0.00000000000E+00 0.  1.
</event>
<event>
 5   0  0.6221259E+05  0.9118800E+02  0.7546771E-02  0.1180000E+00
      -11   -1    0    0    0    0  0.00000000000E+00  0.00000000000E+00  0.34996269501E-01  0.35000000000E-01  0.51099999109E-03 0. -1.
       11   -1    0    0    0    0 -0.00000000000E+00 -0.00000000000E+00 -0.34996269501E-01  0.35000000000E-01  0.51099999109E-03 0.  1.
       22    1    1    2    0    0 -0.11693928652E-02  0.17607184804E-03  0.33493263254E-01  0.33514133801E-01  0.00000000000E+00 0. -1.
       22    1    1    2    0    0 -0.37001365486E-03 -0.62924604761E-03  0.13877136921E-02  0.15679955308E-02  0.00000000000E+00 0. -1.
       22    1    1    2    0    0  0.15394065200E-02  0.45317419957E-03 -0.34880976947E-01  0.34917870669E-01  0.00000000000E+00 0.  1.
</event>
<event>
 5   0  0.6221259E+05  0.9118800E+02  0.7546771E-02  0.1180000E+00
      -11   -1    0    0    0    0  0.00000000000E+00  0.00000000000E+00  0.34996269501E-01  0.35000000000E-01  0.51099999109E-03 0. -1.
       11   -1    0    0    0    0 -0.00000000000E+00 -0.00000000000E+00 -0.34996269501E-01  0.35000000000E-01  0.51099999109E-03 0.  1.
       22    1    1    2    0    0 -0.86182697666E-04  0.31101668448E-03 -0.56250238989E-02  0.56342748156E-02  0.00000000000E+00 0.  1.
       22    1    1    2    0    0 -0.21402896212E-01  0.11527017714E-01  0.23654854748E-01  0.33919142925E-01  0.00000000000E+00 0. -1.
       22    1    1    2    0    0  0.21489078910E-01 -0.11838034399E-01 -0.18029830849E-01  0.30446582259E-01  0.00000000000E+00 0.  1.
</event>
<event>
 5   0  0.6221259E+05  0.9118800E+02  0.7546771E-02  0.1180000E+00
      -11   -1    0    0    0    0  0.00000000000E+00  0.00000000000E+00  0.34996269501E-01  0.35000000000E-01  0.51099999109E-03 0. -1.
       11   -1    0    0    0    0 -0.00000000000E+00 -0.00000000000E+00 -0.34996269501E-01  0.35000000000E-01  0.51099999109E-03 0. -1.
       22    1    1    2    0    0 -0.78233671211E-04 -0.83320596028E-05 -0.34824952678E-01  0.34825041550E-01  0.00000000000E+00 0. -1.
       22    1    1    2    0    0  0.98995444119E-04  0.78107523893E-04  0.34992266216E-01  0.34992493421E-01  0.00000000000E+00 0. -1.
       22    1    1    2    0    0 -0.20761772909E-04 -0.69775464290E-04 -0.16731353781E-03  0.18246502833E-03  0.00000000000E+00 0. -1.
</event>
<event>
 5   0  0.6221259E+05  0.9118800E+02  0.7546771E-02  0.1180000E+00
      -11   -1    0    0    0    0  0.00000000000E+00  0.00000000000E+00  0.34996269501E-01  0.35000000000E-01  0.51099999109E-03 0.  1.
       11   -1    0    0    0    0 -0.00000000000E+00 -0.00000000000E+00 -0.34996269501E-01  0.35000000000E-01  0.51099999109E-03 0. -1.
       22    1    1    2    0    0 -0.29456921167E-03  0.41259611127E-02 -0.34717253787E-01  0.34962809335E-01  0.00000000000E+00 0. -1.
       22    1    1    2    0    0  0.19415414255E-03 -0.41506213363E-02  0.34678842840E-01  0.34926887838E-01  0.00000000000E+00 0.  1.
       22    1    1    2    0    0  0.10041506911E-03  0.24660223656E-04  0.38410946716E-04  0.11030282663E-03  0.00000000000E+00 0.  1.
</event>
<event>
 5   0  0.6221259E+05  0.9118800E+02  0.7546771E-02  0.1180000E+00
      -11   -1    0    0    0    0  0.00000000000E+00  0.00000000000E+00  0.34996269501E-01  0.35000000000E-01  0.51099999109E-03 0.  1.
       11   -1    0    0    0    0 -0.00000000000E+00 -0.00000000000E+00 -0.34996269501E-01  0.35000000000E-01  0.51099999109E-03 0. -1.
       22    1    1    2    0    0  0.76953445708E-04  0.80539276273E-04 -0.11297010073E-02  0.11351796218E-02  0.00000000000E+00 0. -1.
       22    1    1    2    0    0 -0.17179209592E-01 -0.14411628081E-01 -0.25609236322E-01  0.34038996036E-01  0.00000000000E+00 0. -1.
       22    1    1    2    0    0  0.17102256147E-01  0.14331088805E-01  0.26738937329E-01  0.34825824342E-01  0.00000000000E+00 0.  1.
</event>
<event>
 5   0  0.6221259E+05  0.9118800E+02  0.7546771E-02  0.1180000E+00
      -11   -1    0    0    0    0  0.00000000000E+00  0.00000000000E+00  0.34996269501E-01  0.35000000000E-01  0.51099999109E-03 0. -1.
       11   -1    0    0    0    0 -0.00000000000E+00 -0.00000000000E+00 -0.34996269501E-01  0.35000000000E-01  0.51099999109E-03 0.  1.
       22    1    1    2    0    0  0.13977917001E-02 -0.10940930950E-02  0.34338814038E-01  0.34384662437E-01  0.00000000000E+00 0. -1.
       22    1    1    2    0    0 -0.17139644501E-02  0.11867787519E-02 -0.34901273656E-01  0.34963481245E-01  0.00000000000E+00 0.  1.
       22    1    1    2    0    0  0.31617275005E-03 -0.92685656866E-04  0.56245961775E-03  0.65185631888E-03  0.00000000000E+00 0. -1.
</event>
<event>
 5   0  0.6221259E+05  0.9118800E+02  0.7546771E-02  0.1180000E+00
      -11   -1    0    0    0    0  0.00000000000E+00  0.00000000000E+00  0.34996269501E-01  0.35000000000E-01  0.51099999109E-03 0. -1.
       11   -1    0    0    0    0 -0.00000000000E+00 -0.00000000000E+00 -0.34996269501E-01  0.35000000000E-01  0.51099999109E-03 0.  1.
       22    1    1    2    0    0  0.55636365594E-07  0.20482776185E-06 -0.10974595668E-06  0.23894349167E-06  0.00000000000E+00 0.  1.
       22    1    1    2    0    0 -0.22089808807E-01 -0.18851794433E-01  0.19535840520E-01  0.34999983876E-01  0.00000000000E+00 0. -1.
       22    1    1    2    0    0  0.22089753171E-01  0.18851589606E-01 -0.19535730774E-01  0.34999777180E-01  0.00000000000E+00 0.  1.
</event>
<event>
 5   0  0.6221259E+05  0.9118800E+02  0.7546771E-02  0.1180000E+00
      -11   -1    0    0    0    0  0.00000000000E+00  0.00000000000E+00  0.34996269501E-01  0.35000000000E-01  0.51099999109E-03 0.  1.
       11   -1    0    0    0    0 -0.00000000000E+00 -0.00000000000E+00 -0.34996269501E-01  0.35000000000E-01  0.51099999109E-03 0. -1.
       22    1    1    2    0    0  0.10473430026E-03 -0.19535955851E-01  0.26519941172E-01  0.32938910426E-01  0.00000000000E+00 0.  1.
       22    1    1    2    0    0  0.43389028069E-03  0.19871630535E-01 -0.28632491142E-01  0.34855265168E-01  0.00000000000E+00 0. -1.
       22    1    1    2    0    0 -0.53862458095E-03 -0.33567468459E-03  0.21125499701E-02  0.22058244058E-02  0.00000000000E+00 0. -1.
</event>
<event>
 5   0  0.6221259E+05  0.9118800E+02  0.7546771E-02  0.1180000E+00
      -11   -1    0    0    0    0  0.00000000000E+00  0.00000000000E+00  0.34996269501E-01  0.35000000000E-01  0.51099999109E-03 0.  1.
       11   -1    0    0    0    0 -0.00000000000E+00 -0.00000000000E+00 -0.34996269501E-01  0.35000000000E-01  0.51099999109E-03 0. -1.
       22    1    1    2    0    0  0.27227368640E-01  0.19913631503E-01  0.86880935026E-02  0.34833393338E-01  0.00000000000E+00 0. -1.
       22    1    1    2    0    0 -0.12105837001E-03  0.10548512675E-03 -0.44858366306E-03  0.47645518539E-03  0.00000000000E+00 0.  1.
       22    1    1    2    0    0 -0.27106310270E-01 -0.20019116630E-01 -0.82395098395E-02  0.34690151477E-01  0.00000000000E+00 0.  1.
</event>
<event>
 5   0  0.6221259E+05  0.9118800E+02  0.7546771E-02  0.1180000E+00
      -11   -1    0    0    0    0  0.00000000000E+00  0.00000000000E+00  0.34996269501E-01  0.35000000000E-01  0.51099999109E-03 0. -1.
       11   -1    0    0    0    0 -0.00000000000E+00 -0.00000000000E+00 -0.34996269501E-01  0.35000000000E-01  0.51099999109E-03 0.  1.
       22    1    1    2    0    0 -0.64615750527E-02  0.82805969863E-03 -0.34213072314E-01  0.34827746872E-01  0.00000000000E+00 0.  1.
       22    1    1    2    0    0  0.60810961863E-02 -0.18771999216E-02  0.21824294834E-01  0.22733311579E-01  0.00000000000E+00 0. -1.
       22    1    1    2    0    0  0.38047886643E-03  0.10491402230E-02  0.12388777481E-01  0.12438941548E-01  0.00000000000E+00 0. -1.
</event>
<event>
 5   0  0.6221259E+05  0.9118800E+02  0.7546771E-02  0.1180000E+00
      -11   -1    0    0    0    0  0.00000000000E+00  0.00000000000E+00  0.34996269501E-01  0.35000000000E-01  0.51099999109E-03 0.  1.
       11   -1    0    0    0    0 -0.00000000000E+00 -0.00000000000E+00 -0.34996269501E-01  0.35000000000E-01  0.51099999109E-03 0. -1.
       22    1    1    2    0    0 -0.16938830445E-01 -0.29992592692E-01  0.55557858852E-02  0.34890490825E-01  0.00000000000E+00 0. -1.
       22    1    1    2    0    0 -0.21012980938E-05 -0.11319677986E-04  0.17896226921E-03  0.17933221786E-03  0.00000000000E+00 0.  1.
       22    1    1    2    0    0  0.16940931743E-01  0.30003912370E-01 -0.57347481544E-02  0.34930176957E-01  0.00000000000E+00 0.  1.
</event>
<event>
 5   0  0.6221259E+05  0.9118800E+02  0.7546771E-02  0.1180000E+00
      -11   -1    0    0    0    0  0.00000000000E+00  0.00000000000E+00  0.34996269501E-01  0.35000000000E-01  0.51099999109E-03 0. -1.
       11   -1    0    0    0    0 -0.00000000000E+00 -0.00000000000E+00 -0.34996269501E-01  0.35000000000E-01  0.51099999109E-03 0.  1.
       22    1    1    2    0    0 -0.57139270932E-05 -0.44268161503E-05  0.10371993850E-03  0.10397149276E-03  0.00000000000E+00 0. -1.
       22    1    1    2    0    0 -0.94237749118E-02  0.70674882721E-02  0.32850783023E-01  0.34898866304E-01  0.00000000000E+00 0. -1.
       22    1    1    2    0    0  0.94294888389E-02 -0.70630614560E-02 -0.32954502961E-01  0.34997162204E-01  0.00000000000E+00 0.  1.
</event>
<event>
 5   0  0.6221259E+05  0.9118800E+02  0.7546771E-02  0.1180000E+00
      -11   -1    0    0    0    0  0.00000000000E+00  0.00000000000E+00  0.34996269501E-01  0.35000000000E-01  0.51099999109E-03 0. -1.
       11   -1    0    0    0    0 -0.00000000000E+00 -0.00000000000E+00 -0.34996269501E-01  0.35000000000E-01  0.51099999109E-03 0.  1.
       22    1    1    2    0    0 -0.21272301127E-01 -0.10661740132E-02  0.27771025324E-01  0.34998248096E-01  0.00000000000E+00 0. -1.
       22    1    1    2    0    0 -0.59844981565E-07 -0.41425520215E-07  0.19318576527E-05  0.19332282550E-05  0.00000000000E+00 0. -1.
       22    1    1    2    0    0  0.21272360972E-01  0.10662154387E-02 -0.27772957182E-01  0.34999818675E-01  0.00000000000E+00 0.  1.
</event>
<event>
 5   0  0.6221259E+05  0.9118800E+02  0.7546771E-02  0.1180000E+00
      -11   -1    0    0    0    0  0.00000000000E+00  0.00000000000E+00  0.34996269501E-01  0.35000000000E-01  0.51099999109E-03 0. -1.
       11   -1    0    0    0    0 -0.00000000000E+00 -0.00000000000E+00 -0.34996269501E-01  0.35000000000E-01  0.51099999109E-03 0.  1.
       22    1    1    2    0    0  0.21000992185E-02  0.76525449099E-03  0.34815887371E-01  0.34887562893E-01  0.00000000000E+00 0. -1.
       22    1    1    2    0    0 -0.11638473102E-02 -0.15980818133E-02 -0.31588868387E-01  0.31650671589E-01  0.00000000000E+00 0.  1.
       22    1    1    2    0    0 -0.93625190824E-03  0.83282732227E-03 -0.32270189838E-02  0.34617655187E-02  0.00000000000E+00 0.  1.
</event>
<event>
 5   0  0.6221259E+05  0.9118800E+02  0.7546771E-02  0.1180000E+00
      -11   -1    0    0    0    0  0.00000000000E+00  0.00000000000E+00  0.34996269501E-01  0.35000000000E-01  0.51099999109E-03 0. -1.
       11   -1    0    0    0    0 -0.00000000000E+00 -0.00000000000E+00 -0.34996269501E-01  0.35000000000E-01  0.51099999109E-03 0.  1.
       22    1    1    2    0    0 -0.21719393569E-01  0.61272545591E-02  0.19839571404E-01  0.30048026540E-01  0.00000000000E+00 0. -1.
       22    1    1    2    0    0  0.24956362738E-01 -0.11088575309E-01 -0.11290023904E-01  0.29550654532E-01  0.00000000000E+00 0.  1.
       22    1    1    2    0    0 -0.32369691695E-02  0.49613207503E-02 -0.85495475005E-02  0.10401318929E-01  0.00000000000E+00 0.  1.
</event>
<event>
 5   0  0.6221259E+05  0.9118800E+02  0.7546771E-02  0.1180000E+00
      -11   -1    0    0    0    0  0.00000000000E+00  0.00000000000E+00  0.34996269501E-01  0.35000000000E-01  0.51099999109E-03 0. -1.
       11   -1    0    0    0    0 -0.00000000000E+00 -0.00000000000E+00 -0.34996269501E-01  0.35000000000E-01  0.51099999109E-03 0.  1.
       22    1    1    2    0    0  0.62385643719E-03 -0.63351818727E-03 -0.34987781206E-01  0.34999076786E-01  0.00000000000E+00 0.  1.
       22    1    1    2    0    0 -0.71862812370E-05 -0.99076566961E-06  0.12504759356E-04  0.14456599226E-04  0.00000000000E+00 0. -1.
       22    1    1    2    0    0 -0.61667015595E-03  0.63450895294E-03  0.34975276447E-01  0.34986466615E-01  0.00000000000E+00 0. -1.
</event>
<event>
 5   0  0.6221259E+05  0.9118800E+02  0.7546771E-02  0.1180000E+00
      -11   -1    0    0    0    0  0.00000000000E+00  0.00000000000E+00  0.34996269501E-01  0.35000000000E-01  0.51099999109E-03 0.  1.
       11   -1    0    0    0    0 -0.00000000000E+00 -0.00000000000E+00 -0.34996269501E-01  0.35000000000E-01  0.51099999109E-03 0. -1.
       22    1    1    2    0    0  0.38660617015E-02 -0.70180001083E-02  0.34065082984E-01  0.34994694417E-01  0.00000000000E+00 0.  1.
       22    1    1    2    0    0  0.15081394121E-05  0.15668422005E-05  0.52318276391E-05  0.56658185121E-05  0.00000000000E+00 0. -1.
       22    1    1    2    0    0 -0.38675698409E-02  0.70164332661E-02 -0.34070314812E-01  0.34999639765E-01  0.00000000000E+00 0. -1.
</event>
<event>
 5   0  0.6221259E+05  0.9118800E+02  0.7546771E-02  0.1180000E+00
      -11   -1    0    0    0    0  0.00000000000E+00  0.00000000000E+00  0.34996269501E-01  0.35000000000E-01  0.51099999109E-03 0. -1.
       11   -1    0    0    0    0 -0.00000000000E+00 -0.00000000000E+00 -0.34996269501E-01  0.35000000000E-01  0.51099999109E-03 0.  1.
       22    1    1    2    0    0  0.10895442266E-06 -0.31819641071E-07  0.14406264078E-06  0.18340556220E-06  0.00000000000E+00 0. -1.
       22    1    1    2    0    0 -0.39327818576E-03  0.85017697838E-03 -0.34987443783E-01  0.34999981301E-01  0.00000000000E+00 0.  1.
       22    1    1    2    0    0  0.39316923134E-03 -0.85014515874E-03  0.34987299720E-01  0.34999835293E-01  0.00000000000E+00 0. -1.
</event>
<event>
 5   0  0.6221259E+05  0.9118800E+02  0.7546771E-02  0.1180000E+00
      -11   -1    0    0    0    0  0.00000000000E+00  0.00000000000E+00  0.34996269501E-01  0.35000000000E-01  0.51099999109E-03 0.  1.
       11   -1    0    0    0    0 -0.00000000000E+00 -0.00000000000E+00 -0.34996269501E-01  0.35000000000E-01  0.51099999109E-03 0. -1.
       22    1    1    2    0    0  0.31844566606E-03 -0.29226488999E-03 -0.22269312402E-02  0.22684905018E-02  0.00000000000E+00 0. -1.
       22    1    1    2    0    0  0.13062584442E-02  0.13930011666E-02  0.34923714155E-01  0.34975885603E-01  0.00000000000E+00 0.  1.
       22    1    1    2    0    0 -0.16247041103E-02 -0.11007362766E-02 -0.32696782914E-01  0.32755623895E-01  0.00000000000E+00 0. -1.
</event>
<event>
 5   0  0.6221259E+05  0.9118800E+02  0.7546771E-02  0.1180000E+00
      -11   -1    0    0    0    0  0.00000000000E+00  0.00000000000E+00  0.34996269501E-01  0.35000000000E-01  0.51099999109E-03 0. -1.
       11   -1    0    0    0    0 -0.00000000000E+00 -0.00000000000E+00 -0.34996269501E-01  0.35000000000E-01  0.51099999109E-03 0. -1.
       22    1    1    2    0    0  0.14633278495E-03 -0.70519826321E-04 -0.22852225635E-01  0.22852802952E-01  0.00000000000E+00 0. -1.
       22    1    1    2    0    0 -0.11117437883E-02 -0.12731459063E-03  0.34970760464E-01  0.34988659172E-01  0.00000000000E+00 0. -1.
       22    1    1    2    0    0  0.96541100331E-03  0.19783441695E-03 -0.12118534829E-01  0.12158537875E-01  0.00000000000E+00 0. -1.
</event>
<event>
 5   0  0.6221259E+05  0.9118800E+02  0.7546771E-02  0.1180000E+00
      -11   -1    0    0    0    0  0.00000000000E+00  0.00000000000E+00  0.34996269501E-01  0.35000000000E-01  0.51099999109E-03 0.  1.
       11   -1    0    0    0    0 -0.00000000000E+00 -0.00000000000E+00 -0.34996269501E-01  0.35000000000E-01  0.51099999109E-03 0. -1.
       22    1    1    2    0    0 -0.27526738433E-10  0.11846269632E-08  0.13243005671E-07  0.13295912829E-07  0.00000000000E+00 0.  1.
       22    1    1    2    0    0 -0.28919888648E-02  0.80826016176E-03  0.34870936146E-01  0.34999986740E-01  0.00000000000E+00 0.  1.
       22    1    1    2    0    0  0.28919888923E-02 -0.80826134638E-03 -0.34870949389E-01  0.34999999964E-01  0.00000000000E+00 0. -1.
</event>
<event>
 5   0  0.6221259E+05  0.9118800E+02  0.7546771E-02  0.1180000E+00
      -11   -1    0    0    0    0  0.00000000000E+00  0.00000000000E+00  0.34996269501E-01  0.35000000000E-01  0.51099999109E-03 0. -1.
       11   -1    0    0    0    0 -0.00000000000E+00 -0.00000000000E+00 -0.34996269501E-01  0.35000000000E-01  0.51099999109E-03 0.  1.
       22    1    1    2    0    0 -0.86292662198E-02  0.85497526805E-02  0.31833066986E-01  0.34072080361E-01  0.00000000000E+00 0. -1.
       22    1    1    2    0    0 -0.92692812551E-03 -0.30139249866E-02 -0.17765731997E-01  0.18043396935E-01  0.00000000000E+00 0.  1.
       22    1    1    2    0    0  0.95561943453E-02 -0.55358276938E-02 -0.14067334990E-01  0.17884522704E-01  0.00000000000E+00 0.  1.
</event>
<event>
 5   0  0.6221259E+05  0.9118800E+02  0.7546771E-02  0.1180000E+00
      -11   -1    0    0    0    0  0.00000000000E+00  0.00000000000E+00  0.34996269501E-01  0.35000000000E-01  0.51099999109E-03 0. -1.
       11   -1    0    0    0    0 -0.00000000000E+00 -0.00000000000E+00 -0.34996269501E-01  0.35000000000E-01  0.51099999109E-03 0.  1.
       22    1    1    2    0    0  0.72881069628E-03 -0.20069709029E-02 -0.10738576097E-01  0.10948795086E-01  0.00000000000E+00 0.  1.
       22    1    1    2    0    0 -0.22043791187E-02  0.92463765491E-03  0.34819194822E-01  0.34901154281E-01  0.00000000000E+00 0. -1.
       22    1    1    2    0    0  0.14755684224E-02  0.10823332480E-02 -0.24080618725E-01  0.24150050633E-01  0.00000000000E+00 0.  1.
</event>
<event>
 5   0  0.6221259E+05  0.9118800E+02  0.7546771E-02  0.1180000E+00
      -11   -1    0    0    0    0  0.00000000000E+00  0.00000000000E+00  0.34996269501E-01  0.35000000000E-01  0.51099999109E-03 0.  1.
       11   -1    0    0    0    0 -0.00000000000E+00 -0.00000000000E+00 -0.34996269501E-01  0.35000000000E-01  0.51099999109E-03 0.  1.
       22    1    1    2    0    0 -0.40554782118E-10 -0.16169734773E-09  0.16637545256E-07  0.16638380416E-07  0.00000000000E+00 0.  1.
       22    1    1    2    0    0 -0.32143696690E-14 -0.12816122365E-13 -0.35001817075E-01  0.35000000000E-01  0.00000000000E+00 0.  1.
       22    1    1    2    0    0  0.40557996488E-10  0.16171016386E-09  0.35001800437E-01  0.34999983362E-01  0.00000000000E+00 0.  1.
</event>
<event>
 5   0  0.6221259E+05  0.9118800E+02  0.7546771E-02  0.1180000E+00
      -11   -1    0    0    0    0  0.00000000000E+00  0.00000000000E+00  0.34996269501E-01  0.35000000000E-01  0.51099999109E-03 0. -1.
       11   -1    0    0    0    0 -0.00000000000E+00 -0.00000000000E+00 -0.34996269501E-01  0.35000000000E-01  0.51099999109E-03 0. -1.
       22    1    1    2    0    0 -0.73475726344E-09 -0.38770375252E-08  0.35001257410E-01  0.34999980448E-01  0.00000000000E+00 0. -1.
       22    1    1    2    0    0  0.52562718098E-13  0.27735367942E-12 -0.35001276762E-01  0.34999999801E-01  0.00000000000E+00 0. -1.
       22    1    1    2    0    0  0.73470470072E-09  0.38767601715E-08  0.19352106297E-07  0.19750267810E-07  0.00000000000E+00 0.  1.
</event>
<event>
 5   0  0.6221259E+05  0.9118800E+02  0.7546771E-02  0.1180000E+00
      -11   -1    0    0    0    0  0.00000000000E+00  0.00000000000E+00  0.34996269501E-01  0.35000000000E-01  0.51099999109E-03 0.  1.
       11   -1    0    0    0    0 -0.00000000000E+00 -0.00000000000E+00 -0.34996269501E-01  0.35000000000E-01  0.51099999109E-03 0.  1.
       22    1    1    2    0    0  0.00000000000E+00  0.00000000000E+00  0.34923876532E-01  0.34921123124E-01  0.00000000000E+00 0.  1.
       22    1    1    2    0    0 -0.15469150321E-03 -0.24093995443E-03 -0.34734301818E-01  0.34735481921E-01  0.00000000000E+00 0.  1.
       22    1    1    2    0    0  0.15469150321E-03  0.24093995443E-03 -0.18957471409E-03  0.34339495487E-03  0.00000000000E+00 0.  1.
</event>
<event>
 5   0  0.6221259E+05  0.9118800E+02  0.7546771E-02  0.1180000E+00
      -11   -1    0    0    0    0  0.00000000000E+00  0.00000000000E+00  0.34996269501E-01  0.35000000000E-01  0.51099999109E-03 0.  1.
       11   -1    0    0    0    0 -0.00000000000E+00 -0.00000000000E+00 -0.34996269501E-01  0.35000000000E-01  0.51099999109E-03 0. -1.
       22    1    1    2    0    0  0.76002168816E-04 -0.31360450808E-01  0.15540771093E-01  0.34999988820E-01  0.00000000000E+00 0.  1.
       22    1    1    2    0    0 -0.76009165126E-04  0.31360435645E-01 -0.15540791911E-01  0.34999984492E-01  0.00000000000E+00 0. -1.
       22    1    1    2    0    0  0.69963101730E-08  0.15163656663E-07  0.20817392924E-07  0.26687987702E-07  0.00000000000E+00 0.  1.
</event>
<event>
 5   0  0.6221259E+05  0.9118800E+02  0.7546771E-02  0.1180000E+00
      -11   -1    0    0    0    0  0.00000000000E+00  0.00000000000E+00  0.34996269501E-01  0.35000000000E-01  0.51099999109E-03 0. -1.
       11   -1    0    0    0    0 -0.00000000000E+00 -0.00000000000E+00 -0.34996269501E-01  0.35000000000E-01  0.51099999109E-03 0.  1.
       22    1    1    2    0    0  0.46340978986E-02  0.33432667941E-02  0.34357600444E-01  0.34829542122E-01  0.00000000000E+00 0. -1.
       22    1    1    2    0    0 -0.46321620589E-02 -0.33624021919E-02 -0.34527876538E-01  0.34999099017E-01  0.00000000000E+00 0.  1.
       22    1    1    2    0    0 -0.19358396118E-05  0.19135397776E-04  0.17027609402E-03  0.17135886063E-03  0.00000000000E+00 0. -1.
</event>
<event>
 5   0  0.6221259E+05  0.9118800E+02  0.7546771E-02  0.1180000E+00
      -11   -1    0    0    0    0  0.00000000000E+00  0.00000000000E+00  0.34996269501E-01  0.35000000000E-01  0.51099999109E-03 0. -1.
       11   -1    0    0    0    0 -0.00000000000E+00 -0.00000000000E+00 -0.34996269501E-01  0.35000000000E-01  0.51099999109E-03 0.  1.
       22    1    1    2    0    0 -0.74906176160E-02  0.76571991147E-02  0.33217470523E-01  0.34901896775E-01  0.00000000000E+00 0. -1.
       22    1    1    2    0    0  0.74952845706E-02 -0.76362674550E-02 -0.33318672468E-01  0.34994653970E-01  0.00000000000E+00 0.  1.
       22    1    1    2    0    0 -0.46669546108E-05 -0.20931659626E-04  0.10120194423E-03  0.10344925498E-03  0.00000000000E+00 0.  1.
</event>
<event>
 5   0  0.6221259E+05  0.9118800E+02  0.7546771E-02  0.1180000E+00
      -11   -1    0    0    0    0  0.00000000000E+00  0.00000000000E+00  0.34996269501E-01  0.35000000000E-01  0.51099999109E-03 0.  1.
       11   -1    0    0    0    0 -0.00000000000E+00 -0.00000000000E+00 -0.34996269501E-01  0.35000000000E-01  0.51099999109E-03 0. -1.
       22    1    1    2    0    0 -0.22947346712E-01  0.14969533748E-01 -0.21779128025E-01  0.34999972561E-01  0.00000000000E+00 0. -1.
       22    1    1    2    0    0  0.22947329635E-01 -0.14969573198E-01  0.21779136638E-01  0.34999983597E-01  0.00000000000E+00 0.  1.
       22    1    1    2    0    0  0.17077215625E-07  0.39449604282E-07 -0.86130370143E-08  0.43841612403E-07  0.00000000000E+00 0. -1.
</event>
<event>
 5   0  0.6221259E+05  0.9118800E+02  0.7546771E-02  0.1180000E+00
      -11   -1    0    0    0    0  0.00000000000E+00  0.00000000000E+00  0.34996269501E-01  0.35000000000E-01  0.51099999109E-03 0.  1.
       11   -1    0    0    0    0 -0.00000000000E+00 -0.00000000000E+00 -0.34996269501E-01  0.35000000000E-01  0.51099999109E-03 0.  1.
       22    1    1    2    0    0 -0.00000000000E+00 -0.00000000000E+00  0.34953522640E-01  0.34949867264E-01  0.00000000000E+00 0.  1.
       22    1    1    2    0    0  0.10207255782E-03 -0.12096959141E-04 -0.65355112638E-05  0.10299444833E-03  0.00000000000E+00 0. -1.
       22    1    1    2    0    0 -0.10207255782E-03  0.12096959141E-04 -0.34946987128E-01  0.34947138288E-01  0.00000000000E+00 0.  1.
</event>
<event>
 5   0  0.6221259E+05  0.9118800E+02  0.7546771E-02  0.1180000E+00
      -11   -1    0    0    0    0  0.00000000000E+00  0.00000000000E+00  0.34996269501E-01  0.35000000000E-01  0.51099999109E-03 0. -1.
       11   -1    0    0    0    0 -0.00000000000E+00 -0.00000000000E+00 -0.34996269501E-01  0.35000000000E-01  0.51099999109E-03 0.  1.
       22    1    1    2    0    0 -0.37108688925E-02  0.57844737968E-02 -0.34230592981E-01  0.34913667537E-01  0.00000000000E+00 0.  1.
       22    1    1    2    0    0  0.35298720493E-02 -0.54349780672E-02  0.24342231417E-01  0.25190141199E-01  0.00000000000E+00 0. -1.
       22    1    1    2    0    0  0.18099684315E-03 -0.34949572963E-03  0.98883615636E-02  0.98961912641E-02  0.00000000000E+00 0. -1.
</event>
<event>
 5   0  0.6221259E+05  0.9118800E+02  0.7546771E-02  0.1180000E+00
      -11   -1    0    0    0    0  0.00000000000E+00  0.00000000000E+00  0.34996269501E-01  0.35000000000E-01  0.51099999109E-03 0.  1.
       11   -1    0    0    0    0 -0.00000000000E+00 -0.00000000000E+00 -0.34996269501E-01  0.35000000000E-01  0.51099999109E-03 0. -1.
       22    1    1    2    0    0 -0.70913635784E-05  0.11432624503E-04 -0.71514436453E-06  0.13472333573E-04  0.00000000000E+00 0. -1.
       22    1    1    2    0    0  0.73094465317E-02 -0.91625385834E-02 -0.32973948950E-01  0.34995162969E-01  0.00000000000E+00 0. -1.
       22    1    1    2    0    0 -0.73023551681E-02  0.91511059589E-02  0.32974664094E-01  0.34991364697E-01  0.00000000000E+00 0.  1.
</event>
<event>
 5   0  0.6221259E+05  0.9118800E+02  0.7546771E-02  0.1180000E+00
      -11   -1    0    0    0    0  0.00000000000E+00  0.00000000000E+00  0.34996269501E-01  0.35000000000E-01  0.51099999109E-03 0. -1.
       11   -1    0    0    0    0 -0.00000000000E+00 -0.00000000000E+00 -0.34996269501E-01  0.35000000000E-01  0.51099999109E-03 0.  1.
       22    1    1    2    0    0  0.14640054815E-02 -0.28128104077E-02  0.33936074952E-01  0.34083902324E-01  0.00000000000E+00 0. -1.
       22    1    1    2    0    0 -0.72073005161E-03  0.18497947360E-02 -0.34512777201E-01  0.34569827632E-01  0.00000000000E+00 0.  1.
       22    1    1    2    0    0 -0.74327542991E-03  0.96301567176E-03  0.57670224891E-03  0.13462700445E-02  0.00000000000E+00 0.  1.
</event>
<event>
 5   0  0.6221259E+05  0.9118800E+02  0.7546771E-02  0.1180000E+00
      -11   -1    0    0    0    0  0.00000000000E+00  0.00000000000E+00  0.34996269501E-01  0.35000000000E-01  0.51099999109E-03 0.  1.
       11   -1    0    0    0    0 -0.00000000000E+00 -0.00000000000E+00 -0.34996269501E-01  0.35000000000E-01  0.51099999109E-03 0. -1.
       22    1    1    2    0    0 -0.18524436006E-01  0.22565145138E-01  0.19297608049E-01  0.34996259527E-01  0.00000000000E+00 0.  1.
       22    1    1    2    0    0  0.18523629567E-01 -0.22569949118E-01 -0.19297494726E-01  0.34998867957E-01  0.00000000000E+00 0. -1.
       22    1    1    2    0    0  0.80643911857E-06  0.48039803344E-05 -0.11332301893E-06  0.48725161069E-05  0.00000000000E+00 0.  1.
</event>
<event>
 5   0  0.6221259E+05  0.9118800E+02  0.7546771E-02  0.1180000E+00
      -11   -1    0    0    0    0  0.00000000000E+00  0.00000000000E+00  0.34996269501E-01  0.35000000000E-01  0.51099999109E-03 0.  1.
       11   -1    0    0    0    0 -0.00000000000E+00 -0.00000000000E+00 -0.34996269501E-01  0.35000000000E-01  0.51099999109E-03 0.  1.
       22    1    1    2    0    0  0.22228403408E-03  0.23640406536E-03  0.34998456914E-01  0.34999961192E-01  0.00000000000E+00 0.  1.
       22    1    1    2    0    0 -0.67481951448E-08 -0.99168208905E-09  0.38534038421E-07  0.39133025542E-07  0.00000000000E+00 0.  1.
       22    1    1    2    0    0 -0.22227728588E-03 -0.23640307367E-03 -0.34998495448E-01  0.34999999675E-01  0.00000000000E+00 0.  1.
</event>
<event>
 5   0  0.6221259E+05  0.9118800E+02  0.7546771E-02  0.1180000E+00
      -11   -1    0    0    0    0  0.00000000000E+00  0.00000000000E+00  0.34996269501E-01  0.35000000000E-01  0.51099999109E-03 0. -1.
       11   -1    0    0    0    0 -0.00000000000E+00 -0.00000000000E+00 -0.34996269501E-01  0.35000000000E-01  0.51099999109E-03 0.  1.
       22    1    1    2    0    0 -0.23917230102E-02 -0.68687601992E-02  0.33897110504E-01  0.34668635770E-01  0.00000000000E+00 0. -1.
       22    1    1    2    0    0  0.65299383060E-03  0.76846328827E-02 -0.22794579443E-01  0.24063932253E-01  0.00000000000E+00 0.  1.
       22    1    1    2    0    0  0.17387291796E-02 -0.81587268352E-03 -0.11102531061E-01  0.11267431977E-01  0.00000000000E+00 0.  1.
</event>
<event>
 5   0  0.6221259E+05  0.9118800E+02  0.7546771E-02  0.1180000E+00
      -11   -1    0    0    0    0  0.00000000000E+00  0.00000000000E+00  0.34996269501E-01  0.35000000000E-01  0.51099999109E-03 0. -1.
       11   -1    0    0    0    0 -0.00000000000E+00 -0.00000000000E+00 -0.34996269501E-01  0.35000000000E-01  0.51099999109E-03 0.  1.
       22    1    1    2    0    0  0.37647337787E-02 -0.44913888131E-03  0.34793048442E-01  0.34999016644E-01  0.00000000000E+00 0. -1.
       22    1    1    2    0    0 -0.45097984440E-07  0.70496818366E-08  0.98820797129E-06  0.98926160379E-06  0.00000000000E+00 0. -1.
       22    1    1    2    0    0 -0.37646886807E-02  0.44913183162E-03 -0.34794036650E-01  0.34999994095E-01  0.00000000000E+00 0.  1.
</event>
<event>
 5   0  0.6221259E+05  0.9118800E+02  0.7546771E-02  0.1180000E+00
      -11   -1    0    0    0    0  0.00000000000E+00  0.00000000000E+00  0.34996269501E-01  0.35000000000E-01  0.51099999109E-03 0.  1.
       11   -1    0    0    0    0 -0.00000000000E+00 -0.00000000000E+00 -0.34996269501E-01  0.35000000000E-01  0.51099999109E-03 0. -1.
       22    1    1    2    0    0  0.32597235088E-03  0.37082997529E-03  0.29160120913E-02  0.29575157414E-02  0.00000000000E+00 0. -1.
       22    1    1    2    0    0  0.33591109049E-02 -0.41816046247E-02 -0.34551789749E-01  0.34965634818E-01  0.00000000000E+00 0. -1.
       22    1    1    2    0    0 -0.36850832558E-02  0.38107746494E-02  0.31635777658E-01  0.32076849441E-01  0.00000000000E+00 0.  1.
</event>
<event>
 5   0  0.6221259E+05  0.9118800E+02  0.7546771E-02  0.1180000E+00
      -11   -1    0    0    0    0  0.00000000000E+00  0.00000000000E+00  0.34996269501E-01  0.35000000000E-01  0.51099999109E-03 0. -1.
       11   -1    0    0    0    0 -0.00000000000E+00 -0.00000000000E+00 -0.34996269501E-01  0.35000000000E-01  0.51099999109E-03 0.  1.
       22    1    1    2    0    0 -0.60733388540E-02  0.11517215240E-01 -0.32464458853E-01  0.34978175772E-01  0.00000000000E+00 0.  1.
       22    1    1    2    0    0  0.61193920045E-02 -0.11518723164E-01  0.32015547622E-01  0.34570554398E-01  0.00000000000E+00 0. -1.
       22    1    1    2    0    0 -0.46053150550E-04  0.15079240236E-05  0.44891123074E-03  0.45126983014E-03  0.00000000000E+00 0.  1.
</event>
<event>
 5   0  0.6221259E+05  0.9118800E+02  0.7546771E-02  0.1180000E+00
      -11   -1    0    0    0    0  0.00000000000E+00  0.00000000000E+00  0.34996269501E-01  0.35000000000E-01  0.51099999109E-03 0. -1.
       11   -1    0    0    0    0 -0.00000000000E+00 -0.00000000000E+00 -0.34996269501E-01  0.35000000000E-01  0.51099999109E-03 0.  1.
       22    1    1    2    0    0 -0.94565907287E-04  0.52155826845E-02 -0.34581879651E-01  0.34973098885E-01  0.00000000000E+00 0.  1.
       22    1    1    2    0    0 -0.57002844084E-05 -0.53762877067E-02  0.33423930429E-01  0.33853561516E-01  0.00000000000E+00 0. -1.
       22    1    1    2    0    0  0.10026619170E-03  0.16070502221E-03  0.11579492222E-02  0.11733395990E-02  0.00000000000E+00 0. -1.
</event>
<event>
 5   0  0.6221259E+05  0.9118800E+02  0.7546771E-02  0.1180000E+00
      -11   -1    0    0    0    0  0.00000000000E+00  0.00000000000E+00  0.34996269501E-01  0.35000000000E-01  0.51099999109E-03 0. -1.
       11   -1    0    0    0    0 -0.00000000000E+00 -0.00000000000E+00 -0.34996269501E-01  0.35000000000E-01  0.51099999109E-03 0. -1.
       22    1    1    2    0    0 -0.12905956442E-06  0.34212371683E-07  0.92341651441E-06  0.93301924773E-06  0.00000000000E+00 0. -1.
       22    1    1    2    0    0  0.19679449270E-03  0.23991071329E-03  0.34997696479E-01  0.34999072046E-01  0.00000000000E+00 0. -1.
       22    1    1    2    0    0 -0.19666543314E-03 -0.23994492566E-03 -0.34998619896E-01  0.34999994935E-01  0.00000000000E+00 0. -1.
</event>
<event>
 5   0  0.6221259E+05  0.9118800E+02  0.7546771E-02  0.1180000E+00
      -11   -1    0    0    0    0  0.00000000000E+00  0.00000000000E+00  0.34996269501E-01  0.35000000000E-01  0.51099999109E-03 0.  1.
       11   -1    0    0    0    0 -0.00000000000E+00 -0.00000000000E+00 -0.34996269501E-01  0.35000000000E-01  0.51099999109E-03 0. -1.
       22    1    1    2    0    0 -0.19063046158E-03  0.37389622442E-02  0.34768201498E-01  0.34969186636E-01  0.00000000000E+00 0.  1.
       22    1    1    2    0    0  0.19074670163E-03 -0.37404444111E-02 -0.34799005879E-01  0.34999973126E-01  0.00000000000E+00 0. -1.
       22    1    1    2    0    0 -0.11624004630E-06  0.14821669683E-05  0.30804381255E-04  0.30840237275E-04  0.00000000000E+00 0.  1.
</event>
<event>
 5   0  0.6221259E+05  0.9118800E+02  0.7546771E-02  0.1180000E+00
      -11   -1    0    0    0    0  0.00000000000E+00  0.00000000000E+00  0.34996269501E-01  0.35000000000E-01  0.51099999109E-03 0. -1.
       11   -1    0    0    0    0 -0.00000000000E+00 -0.00000000000E+00 -0.34996269501E-01  0.35000000000E-01  0.51099999109E-03 0.  1.
       22    1    1    2    0    0  0.43270024821E-03 -0.74635020944E-03 -0.34988746802E-01  0.34999381007E-01  0.00000000000E+00 0.  1.
       22    1    1    2    0    0 -0.43386637654E-03  0.74855185936E-03  0.34986695457E-01  0.34997391744E-01  0.00000000000E+00 0. -1.
       22    1    1    2    0    0  0.11661283262E-05 -0.22016499245E-05  0.20513448180E-05  0.32272485534E-05  0.00000000000E+00 0. -1.
</event>
<event>
 5   0  0.6221259E+05  0.9118800E+02  0.7546771E-02  0.1180000E+00
      -11   -1    0    0    0    0  0.00000000000E+00  0.00000000000E+00  0.34996269501E-01  0.35000000000E-01  0.51099999109E-03 0.  1.
       11   -1    0    0    0    0 -0.00000000000E+00 -0.00000000000E+00 -0.34996269501E-01  0.35000000000E-01  0.51099999109E-03 0. -1.
       22    1    1    2    0    0 -0.12192821372E-03 -0.57496349928E-03 -0.34995048322E-01  0.34999983666E-01  0.00000000000E+00 0. -1.
       22    1    1    2    0    0 -0.77755466791E-07  0.39819795634E-06  0.21107207140E-05  0.21493602438E-05  0.00000000000E+00 0.  1.
       22    1    1    2    0    0  0.12200596919E-03  0.57456530132E-03  0.34992937602E-01  0.34997866974E-01  0.00000000000E+00 0.  1.
</event>
<event>
 5   0  0.6221259E+05  0.9118800E+02  0.7546771E-02  0.1180000E+00
      -11   -1    0    0    0    0  0.00000000000E+00  0.00000000000E+00  0.34996269501E-01  0.35000000000E-01  0.51099999109E-03 0.  1.
       11   -1    0    0    0    0 -0.00000000000E+00 -0.00000000000E+00 -0.34996269501E-01  0.35000000000E-01  0.51099999109E-03 0. -1.
       22    1    1    2    0    0  0.26112695849E-01  0.22820002704E-01 -0.47295528344E-02  0.34999915399E-01  0.00000000000E+00 0. -1.
       22    1    1    2    0    0 -0.26112701476E-01 -0.22820023950E-01  0.47293796727E-02  0.34999910050E-01  0.00000000000E+00 0.  1.
       22    1    1    2    0    0  0.56269531373E-08  0.21246121236E-07  0.17316173997E-06  0.17455099100E-06  0.00000000000E+00 0. -1.
</event>
<event>
 5   0  0.6221259E+05  0.9118800E+02  0.7546771E-02  0.1180000E+00
      -11   -1    0    0    0    0  0.00000000000E+00  0.00000000000E+00  0.34996269501E-01  0.35000000000E-01  0.51099999109E-03 0.  1.
       11   -1    0    0    0    0 -0.00000000000E+00 -0.00000000000E+00 -0.34996269501E-01  0.35000000000E-01  0.51099999109E-03 0.  1.
       22    1    1    2    0    0 -0.20737603758E-03  0.56097425517E-04  0.34998959491E-01  0.34999618815E-01  0.00000000000E+00 0.  1.
       22    1    1    2    0    0 -0.59406637764E-07  0.44231540802E-06  0.24984745098E-06  0.51146438541E-06  0.00000000000E+00 0. -1.
       22    1    1    2    0    0  0.20743544422E-03 -0.56539740925E-04 -0.34999209338E-01  0.34999869721E-01  0.00000000000E+00 0.  1.
</event>
<event>
 5   0  0.6221259E+05  0.9118800E+02  0.7546771E-02  0.1180000E+00
      -11   -1    0    0    0    0  0.00000000000E+00  0.00000000000E+00  0.34996269501E-01  0.35000000000E-01  0.51099999109E-03 0.  1.
       11   -1    0    0    0    0 -0.00000000000E+00 -0.00000000000E+00 -0.34996269501E-01  0.35000000000E-01  0.51099999109E-03 0. -1.
       22    1    1    2    0    0  0.28938679338E-05  0.13977119245E-04  0.27643889201E-04  0.31111395728E-04  0.00000000000E+00 0.  1.
       22    1    1    2    0    0 -0.12827593150E-02  0.10110333132E-02 -0.34959968480E-01  0.34998100748E-01  0.00000000000E+00 0. -1.
       22    1    1    2    0    0  0.12798654470E-02 -0.10250104325E-02  0.34932324591E-01  0.34970787856E-01  0.00000000000E+00 0.  1.
</event>
<event>
 5   0  0.6221259E+05  0.9118800E+02  0.7546771E-02  0.1180000E+00
      -11   -1    0    0    0    0  0.00000000000E+00  0.00000000000E+00  0.34996269501E-01  0.35000000000E-01  0.51099999109E-03 0. -1.
       11   -1    0    0    0    0 -0.00000000000E+00 -0.00000000000E+00 -0.34996269501E-01  0.35000000000E-01  0.51099999109E-03 0.  1.
       22    1    1    2    0    0  0.40666597487E-02 -0.46214807820E-02  0.34445505727E-01  0.34991265638E-01  0.00000000000E+00 0. -1.
       22    1    1    2    0    0  0.43572604258E-04  0.22073747224E-04 -0.86655488406E-03  0.86793040576E-03  0.00000000000E+00 0.  1.
       22    1    1    2    0    0 -0.41102323530E-02  0.45994070348E-02 -0.33578950843E-01  0.34140803956E-01  0.00000000000E+00 0.  1.
</event>
<event>
 5   0  0.6221259E+05  0.9118800E+02  0.7546771E-02  0.1180000E+00
      -11   -1    0    0    0    0  0.00000000000E+00  0.00000000000E+00  0.34996269501E-01  0.35000000000E-01  0.51099999109E-03 0. -1.
       11   -1    0    0    0    0 -0.00000000000E+00 -0.00000000000E+00 -0.34996269501E-01  0.35000000000E-01  0.51099999109E-03 0.  1.
       22    1    1    2    0    0 -0.15537746175E-01 -0.12549502925E-01  0.28567255074E-01  0.34856844985E-01  0.00000000000E+00 0. -1.
       22    1    1    2    0    0  0.15430776963E-01  0.12798846300E-01 -0.27438265549E-01  0.33982021138E-01  0.00000000000E+00 0.  1.
       22    1    1    2    0    0  0.10696921194E-03 -0.24934337501E-03 -0.11289895256E-02  0.11611338769E-02  0.00000000000E+00 0. -1.
</event>
<event>
 5   0  0.6221259E+05  0.9118800E+02  0.7546771E-02  0.1180000E+00
      -11   -1    0    0    0    0  0.00000000000E+00  0.00000000000E+00  0.34996269501E-01  0.35000000000E-01  0.51099999109E-03 0. -1.
       11   -1    0    0    0    0 -0.00000000000E+00 -0.00000000000E+00 -0.34996269501E-01  0.35000000000E-01  0.51099999109E-03 0.  1.
       22    1    1    2    0    0 -0.87329002311E-03 -0.20309363980E-01 -0.28491526334E-01  0.34999999623E-01  0.00000000000E+00 0.  1.
       22    1    1    2    0    0 -0.25561662806E-08  0.44946830588E-08  0.39159563008E-08  0.64862065649E-08  0.00000000000E+00 0. -1.
       22    1    1    2    0    0  0.87329257927E-03  0.20309359485E-01  0.28491522418E-01  0.34999993891E-01  0.00000000000E+00 0. -1.
</event>
<event>
 5   0  0.6221259E+05  0.9118800E+02  0.7546771E-02  0.1180000E+00
      -11   -1    0    0    0    0  0.00000000000E+00  0.00000000000E+00  0.34996269501E-01  0.35000000000E-01  0.51099999109E-03 0.  1.
       11   -1    0    0    0    0 -0.00000000000E+00 -0.00000000000E+00 -0.34996269501E-01  0.35000000000E-01  0.51099999109E-03 0. -1.
       22    1    1    2    0    0  0.29130676736E-02 -0.91731718487E-02  0.32853873003E-01  0.34234631827E-01  0.00000000000E+00 0.  1.
       22    1    1    2    0    0 -0.96763314824E-03  0.10383422701E-02  0.40089273894E-03  0.14748503543E-02  0.00000000000E+00 0. -1.
       22    1    1    2    0    0 -0.19454345254E-02  0.81348295786E-02 -0.33254765742E-01  0.34290517819E-01  0.00000000000E+00 0. -1.
</event>
<event>
 5   0  0.6221259E+05  0.9118800E+02  0.7546771E-02  0.1180000E+00
      -11   -1    0    0    0    0  0.00000000000E+00  0.00000000000E+00  0.34996269501E-01  0.35000000000E-01  0.51099999109E-03 0.  1.
       11   -1    0    0    0    0 -0.00000000000E+00 -0.00000000000E+00 -0.34996269501E-01  0.35000000000E-01  0.51099999109E-03 0. -1.
       22    1    1    2    0    0  0.79638443656E-02 -0.23192436108E-01 -0.24973747718E-01  0.34999999783E-01  0.00000000000E+00 0. -1.
       22    1    1    2    0    0 -0.79638436743E-02  0.23192436234E-01  0.24973746727E-01  0.34999999002E-01  0.00000000000E+00 0.  1.
       22    1    1    2    0    0 -0.69133115929E-09 -0.12661903550E-09  0.99185974357E-09  0.12156302492E-08  0.00000000000E+00 0.  1.
</event>
<event>
 5   0  0.6221259E+05  0.9118800E+02  0.7546771E-02  0.1180000E+00
      -11   -1    0    0    0    0  0.00000000000E+00  0.00000000000E+00  0.34996269501E-01  0.35000000000E-01  0.51099999109E-03 0.  1.
       11   -1    0    0    0    0 -0.00000000000E+00 -0.00000000000E+00 -0.34996269501E-01  0.35000000000E-01  0.51099999109E-03 0. -1.
       22    1    1    2    0    0 -0.23570072470E-03 -0.23443292520E-02 -0.17742180724E-01  0.17897944332E-01  0.00000000000E+00 0. -1.
       22    1    1    2    0    0  0.22983237136E-02  0.16032174143E-02  0.34795657876E-01  0.34908314268E-01  0.00000000000E+00 0.  1.
       22    1    1    2    0    0 -0.20626229889E-02  0.74111183771E-03 -0.17053477152E-01  0.17193741400E-01  0.00000000000E+00 0.  1.
</event>
<event>
 5   0  0.6221259E+05  0.9118800E+02  0.7546771E-02  0.1180000E+00
      -11   -1    0    0    0    0  0.00000000000E+00  0.00000000000E+00  0.34996269501E-01  0.35000000000E-01  0.51099999109E-03 0. -1.
       11   -1    0    0    0    0 -0.00000000000E+00 -0.00000000000E+00 -0.34996269501E-01  0.35000000000E-01  0.51099999109E-03 0.  1.
       22    1    1    2    0    0  0.27506483491E-01 -0.13494344534E-01 -0.13087481386E-01  0.33316454455E-01  0.00000000000E+00 0.  1.
       22    1    1    2    0    0  0.64391908864E-03 -0.11139053725E-02 -0.13253308823E-02  0.18471380347E-02  0.00000000000E+00 0.  1.
       22    1    1    2    0    0 -0.28150402579E-01  0.14608249907E-01  0.14412812269E-01  0.34836407510E-01  0.00000000000E+00 0. -1.
</event>
<event>
 5   0  0.6221259E+05  0.9118800E+02  0.7546771E-02  0.1180000E+00
      -11   -1    0    0    0    0  0.00000000000E+00  0.00000000000E+00  0.34996269501E-01  0.35000000000E-01  0.51099999109E-03 0.  1.
       11   -1    0    0    0    0 -0.00000000000E+00 -0.00000000000E+00 -0.34996269501E-01  0.35000000000E-01  0.51099999109E-03 0. -1.
       22    1    1    2    0    0  0.13559355674E-02 -0.36891899200E-03  0.34971761668E-01  0.34999982523E-01  0.00000000000E+00 0.  1.
       22    1    1    2    0    0 -0.13559363924E-02  0.36891933463E-03 -0.34971779122E-01  0.34999999999E-01  0.00000000000E+00 0. -1.
       22    1    1    2    0    0  0.82493974366E-09 -0.34263590187E-09  0.17454459020E-07  0.17477301412E-07  0.00000000000E+00 0.  1.
</event>
<event>
 5   0  0.6221259E+05  0.9118800E+02  0.7546771E-02  0.1180000E+00
      -11   -1    0    0    0    0  0.00000000000E+00  0.00000000000E+00  0.34996269501E-01  0.35000000000E-01  0.51099999109E-03 0. -1.
       11   -1    0    0    0    0 -0.00000000000E+00 -0.00000000000E+00 -0.34996269501E-01  0.35000000000E-01  0.51099999109E-03 0. -1.
       22    1    1    2    0    0  0.65128699036E-07 -0.19904081916E-06  0.63946687589E-06  0.67288697453E-06  0.00000000000E+00 0.  1.
       22    1    1    2    0    0  0.39369147319E-11 -0.12031665684E-10 -0.35000483643E-01  0.34999983294E-01  0.00000000000E+00 0. -1.
       22    1    1    2    0    0 -0.65132635950E-07  0.19905285083E-06  0.34999844176E-01  0.34999343819E-01  0.00000000000E+00 0. -1.
</event>
<event>
 5   0  0.6221259E+05  0.9118800E+02  0.7546771E-02  0.1180000E+00
      -11   -1    0    0    0    0  0.00000000000E+00  0.00000000000E+00  0.34996269501E-01  0.35000000000E-01  0.51099999109E-03 0. -1.
       11   -1    0    0    0    0 -0.00000000000E+00 -0.00000000000E+00 -0.34996269501E-01  0.35000000000E-01  0.51099999109E-03 0.  1.
       22    1    1    2    0    0  0.35734479047E-03 -0.85249216827E-02  0.33943949721E-01  0.34999910110E-01  0.00000000000E+00 0. -1.
       22    1    1    2    0    0 -0.35730267081E-03  0.85249751245E-02 -0.33944020718E-01  0.34999991551E-01  0.00000000000E+00 0.  1.
       22    1    1    2    0    0 -0.42119655907E-07 -0.53441809515E-07  0.70996523018E-07  0.98339202247E-07  0.00000000000E+00 0. -1.
</event>
<event>
 5   0  0.6221259E+05  0.9118800E+02  0.7546771E-02  0.1180000E+00
      -11   -1    0    0    0    0  0.00000000000E+00  0.00000000000E+00  0.34996269501E-01  0.35000000000E-01  0.51099999109E-03 0.  1.
       11   -1    0    0    0    0 -0.00000000000E+00 -0.00000000000E+00 -0.34996269501E-01  0.35000000000E-01  0.51099999109E-03 0. -1.
       22    1    1    2    0    0  0.75275872176E-03  0.26141652040E-02  0.34894004482E-01  0.34999886488E-01  0.00000000000E+00 0.  1.
       22    1    1    2    0    0 -0.75292995351E-03 -0.26141164921E-02 -0.34894048263E-01  0.34999930182E-01  0.00000000000E+00 0. -1.
       22    1    1    2    0    0  0.17123175282E-06 -0.48711980157E-07  0.43781089088E-07  0.18333017740E-06  0.00000000000E+00 0. -1.
</event>
<event>
 5   0  0.6221259E+05  0.9118800E+02  0.7546771E-02  0.1180000E+00
      -11   -1    0    0    0    0  0.00000000000E+00  0.00000000000E+00  0.34996269501E-01  0.35000000000E-01  0.51099999109E-03 0. -1.
       11   -1    0    0    0    0 -0.00000000000E+00 -0.00000000000E+00 -0.34996269501E-01  0.35000000000E-01  0.51099999109E-03 0.  1.
       22    1    1    2    0    0 -0.96765449036E-03 -0.10569753725E-01 -0.33279977360E-01  0.34931546517E-01  0.00000000000E+00 0.  1.
       22    1    1    2    0    0  0.96195424692E-03  0.10641506763E-01  0.33316354008E-01  0.34987804541E-01  0.00000000000E+00 0. -1.
       22    1    1    2    0    0  0.57002434430E-05 -0.71753038356E-04 -0.36376648846E-04  0.80648942150E-04  0.00000000000E+00 0.  1.
</event>
<event>
 5   0  0.6221259E+05  0.9118800E+02  0.7546771E-02  0.1180000E+00
      -11   -1    0    0    0    0  0.00000000000E+00  0.00000000000E+00  0.34996269501E-01  0.35000000000E-01  0.51099999109E-03 0.  1.
       11   -1    0    0    0    0 -0.00000000000E+00 -0.00000000000E+00 -0.34996269501E-01  0.35000000000E-01  0.51099999109E-03 0. -1.
       22    1    1    2    0    0 -0.76160292632E-02  0.33637425889E-02 -0.33991125444E-01  0.34995932262E-01  0.00000000000E+00 0. -1.
       22    1    1    2    0    0  0.35833177250E-04 -0.83896991102E-04  0.23232032778E-03  0.24959057756E-03  0.00000000000E+00 0.  1.
       22    1    1    2    0    0  0.75801960859E-02 -0.32798455978E-02  0.33758805116E-01  0.34754477161E-01  0.00000000000E+00 0.  1.
</event>
<event>
 5   0  0.6221259E+05  0.9118800E+02  0.7546771E-02  0.1180000E+00
      -11   -1    0    0    0    0  0.00000000000E+00  0.00000000000E+00  0.34996269501E-01  0.35000000000E-01  0.51099999109E-03 0. -1.
       11   -1    0    0    0    0 -0.00000000000E+00 -0.00000000000E+00 -0.34996269501E-01  0.35000000000E-01  0.51099999109E-03 0. -1.
       22    1    1    2    0    0 -0.73589933419E-07 -0.12972999866E-06  0.34999670825E-01  0.34999244209E-01  0.00000000000E+00 0. -1.
       22    1    1    2    0    0  0.73585562818E-07  0.12972229383E-06  0.74842889636E-06  0.76314384062E-06  0.00000000000E+00 0. -1.
       22    1    1    2    0    0  0.43706012823E-11  0.77048323346E-11 -0.35000419254E-01  0.34999992647E-01  0.00000000000E+00 0. -1.
</event>
<event>
 5   0  0.6221259E+05  0.9118800E+02  0.7546771E-02  0.1180000E+00
      -11   -1    0    0    0    0  0.00000000000E+00  0.00000000000E+00  0.34996269501E-01  0.35000000000E-01  0.51099999109E-03 0. -1.
       11   -1    0    0    0    0 -0.00000000000E+00 -0.00000000000E+00 -0.34996269501E-01  0.35000000000E-01  0.51099999109E-03 0.  1.
       22    1    1    2    0    0 -0.44026023769E-03  0.39799467717E-03 -0.34994911562E-01  0.34999943772E-01  0.00000000000E+00 0.  1.
       22    1    1    2    0    0  0.44165221125E-03 -0.39492093555E-03  0.34948732202E-01  0.34953753758E-01  0.00000000000E+00 0. -1.
       22    1    1    2    0    0 -0.13919735643E-05 -0.30737416158E-05  0.46179359375E-04  0.46302469806E-04  0.00000000000E+00 0.  1.
</event>
<event>
 5   0  0.6221259E+05  0.9118800E+02  0.7546771E-02  0.1180000E+00
      -11   -1    0    0    0    0  0.00000000000E+00  0.00000000000E+00  0.34996269501E-01  0.35000000000E-01  0.51099999109E-03 0. -1.
       11   -1    0    0    0    0 -0.00000000000E+00 -0.00000000000E+00 -0.34996269501E-01  0.35000000000E-01  0.51099999109E-03 0.  1.
       22    1    1    2    0    0  0.12304984108E-02  0.14759291224E-02  0.23607143827E-01  0.23685221822E-01  0.00000000000E+00 0. -1.
       22    1    1    2    0    0 -0.23394156152E-02 -0.54308208135E-03 -0.34873255003E-01  0.34955853845E-01  0.00000000000E+00 0.  1.
       22    1    1    2    0    0  0.11089172044E-02 -0.93284704106E-03  0.11266111176E-01  0.11358924333E-01  0.00000000000E+00 0. -1.
</event>
<event>
 5   0  0.6221259E+05  0.9118800E+02  0.7546771E-02  0.1180000E+00
      -11   -1    0    0    0    0  0.00000000000E+00  0.00000000000E+00  0.34996269501E-01  0.35000000000E-01  0.51099999109E-03 0.  1.
       11   -1    0    0    0    0 -0.00000000000E+00 -0.00000000000E+00 -0.34996269501E-01  0.35000000000E-01  0.51099999109E-03 0. -1.
       22    1    1    2    0    0 -0.15626491563E-01  0.30971288536E-01  0.46212211582E-02  0.34996623225E-01  0.00000000000E+00 0.  1.
       22    1    1    2    0    0  0.13506460890E-04 -0.25228078592E-04  0.16331569406E-04  0.32948453598E-04  0.00000000000E+00 0. -1.
       22    1    1    2    0    0  0.15612985103E-01 -0.30946060458E-01 -0.46375527276E-02  0.34970428321E-01  0.00000000000E+00 0. -1.
</event>
<event>
 5   0  0.6221259E+05  0.9118800E+02  0.7546771E-02  0.1180000E+00
      -11   -1    0    0    0    0  0.00000000000E+00  0.00000000000E+00  0.34996269501E-01  0.35000000000E-01  0.51099999109E-03 0. -1.
       11   -1    0    0    0    0 -0.00000000000E+00 -0.00000000000E+00 -0.34996269501E-01  0.35000000000E-01  0.51099999109E-03 0.  1.
       22    1    1    2    0    0  0.30386979230E-02 -0.17962525011E-02  0.25726608457E-02  0.43679276484E-02  0.00000000000E+00 0.  1.
       22    1    1    2    0    0 -0.47853580548E-02 -0.95233411066E-02 -0.32173350961E-01  0.33892745383E-01  0.00000000000E+00 0.  1.
       22    1    1    2    0    0  0.17466601318E-02  0.11319593608E-01  0.29600690116E-01  0.31739326968E-01  0.00000000000E+00 0. -1.
</event>
<event>
 5   0  0.6221259E+05  0.9118800E+02  0.7546771E-02  0.1180000E+00
      -11   -1    0    0    0    0  0.00000000000E+00  0.00000000000E+00  0.34996269501E-01  0.35000000000E-01  0.51099999109E-03 0. -1.
       11   -1    0    0    0    0 -0.00000000000E+00 -0.00000000000E+00 -0.34996269501E-01  0.35000000000E-01  0.51099999109E-03 0.  1.
       22    1    1    2    0    0 -0.78312170909E-02 -0.45706689146E-03 -0.34109574983E-01  0.34999999669E-01  0.00000000000E+00 0.  1.
       22    1    1    2    0    0  0.96331175433E-08  0.88579741525E-08  0.58321174560E-07  0.59771398359E-07  0.00000000000E+00 0.  1.
       22    1    1    2    0    0  0.78312074578E-02  0.45705803349E-03  0.34109516662E-01  0.34999940560E-01  0.00000000000E+00 0. -1.
</event>
<event>
 5   0  0.6221259E+05  0.9118800E+02  0.7546771E-02  0.1180000E+00
      -11   -1    0    0    0    0  0.00000000000E+00  0.00000000000E+00  0.34996269501E-01  0.35000000000E-01  0.51099999109E-03 0. -1.
       11   -1    0    0    0    0 -0.00000000000E+00 -0.00000000000E+00 -0.34996269501E-01  0.35000000000E-01  0.51099999109E-03 0.  1.
       22    1    1    2    0    0  0.45876720712E-02 -0.16656461401E-01  0.30438606603E-01  0.34999903048E-01  0.00000000000E+00 0. -1.
       22    1    1    2    0    0 -0.19943762833E-08 -0.45874187580E-08  0.10261707420E-06  0.10273892088E-06  0.00000000000E+00 0. -1.
       22    1    1    2    0    0 -0.45876700768E-02  0.16656465989E-01 -0.30438709220E-01  0.34999994213E-01  0.00000000000E+00 0.  1.
</event>
<event>
 5   0  0.6221259E+05  0.9118800E+02  0.7546771E-02  0.1180000E+00
      -11   -1    0    0    0    0  0.00000000000E+00  0.00000000000E+00  0.34996269501E-01  0.35000000000E-01  0.51099999109E-03 0.  1.
       11   -1    0    0    0    0 -0.00000000000E+00 -0.00000000000E+00 -0.34996269501E-01  0.35000000000E-01  0.51099999109E-03 0. -1.
       22    1    1    2    0    0 -0.82817373136E-07 -0.13680178071E-06  0.27260545546E-06  0.31604932976E-06  0.00000000000E+00 0.  1.
       22    1    1    2    0    0 -0.83954392057E-02  0.71916148818E-02  0.33208093141E-01  0.34999716772E-01  0.00000000000E+00 0.  1.
       22    1    1    2    0    0  0.83955220231E-02 -0.71914780800E-02 -0.33208365746E-01  0.34999967179E-01  0.00000000000E+00 0. -1.
</event>
<event>
 5   0  0.6221259E+05  0.9118800E+02  0.7546771E-02  0.1180000E+00
      -11   -1    0    0    0    0  0.00000000000E+00  0.00000000000E+00  0.34996269501E-01  0.35000000000E-01  0.51099999109E-03 0. -1.
       11   -1    0    0    0    0 -0.00000000000E+00 -0.00000000000E+00 -0.34996269501E-01  0.35000000000E-01  0.51099999109E-03 0.  1.
       22    1    1    2    0    0 -0.20526868273E-02  0.69687341762E-02  0.34235910522E-01  0.34998204932E-01  0.00000000000E+00 0. -1.
       22    1    1    2    0    0  0.20533141320E-02 -0.69662416280E-02 -0.34237138331E-01  0.34998946590E-01  0.00000000000E+00 0.  1.
       22    1    1    2    0    0 -0.62730467373E-06 -0.24925481670E-05  0.12278089351E-05  0.28484771896E-05  0.00000000000E+00 0. -1.
</event>
<event>
 5   0  0.6221259E+05  0.9118800E+02  0.7546771E-02  0.1180000E+00
      -11   -1    0    0    0    0  0.00000000000E+00  0.00000000000E+00  0.34996269501E-01  0.35000000000E-01  0.51099999109E-03 0.  1.
       11   -1    0    0    0    0 -0.00000000000E+00 -0.00000000000E+00 -0.34996269501E-01  0.35000000000E-01  0.51099999109E-03 0. -1.
       22    1    1    2    0    0  0.33265585934E-02  0.20360066894E-03  0.34836713809E-01  0.34995772235E-01  0.00000000000E+00 0.  1.
       22    1    1    2    0    0 -0.33257508187E-02 -0.20337094624E-03 -0.34840949018E-01  0.34999910096E-01  0.00000000000E+00 0. -1.
       22    1    1    2    0    0 -0.80777464301E-06 -0.22972270263E-06  0.42352087714E-05  0.43176690159E-05  0.00000000000E+00 0.  1.
</event>
<event>
 5   0  0.6221259E+05  0.9118800E+02  0.7546771E-02  0.1180000E+00
      -11   -1    0    0    0    0  0.00000000000E+00  0.00000000000E+00  0.34996269501E-01  0.35000000000E-01  0.51099999109E-03 0. -1.
       11   -1    0    0    0    0 -0.00000000000E+00 -0.00000000000E+00 -0.34996269501E-01  0.35000000000E-01  0.51099999109E-03 0.  1.
       22    1    1    2    0    0  0.18924809014E-01 -0.48425510743E-02  0.28991142767E-01  0.34958333142E-01  0.00000000000E+00 0. -1.
       22    1    1    2    0    0 -0.26012574473E-04 -0.63524498244E-05 -0.55459034008E-03  0.55523639377E-03  0.00000000000E+00 0.  1.
       22    1    1    2    0    0 -0.18898796439E-01  0.48489035241E-02 -0.28436552427E-01  0.34486430464E-01  0.00000000000E+00 0.  1.
</event>
<event>
 5   0  0.6221259E+05  0.9118800E+02  0.7546771E-02  0.1180000E+00
      -11   -1    0    0    0    0  0.00000000000E+00  0.00000000000E+00  0.34996269501E-01  0.35000000000E-01  0.51099999109E-03 0.  1.
       11   -1    0    0    0    0 -0.00000000000E+00 -0.00000000000E+00 -0.34996269501E-01  0.35000000000E-01  0.51099999109E-03 0. -1.
       22    1    1    2    0    0  0.94962782622E-04 -0.76114197916E-03  0.34991593342E-01  0.34999999424E-01  0.00000000000E+00 0.  1.
       22    1    1    2    0    0 -0.94963076945E-04  0.76114184596E-03 -0.34991593874E-01  0.34999999954E-01  0.00000000000E+00 0. -1.
       22    1    1    2    0    0  0.29432299927E-09  0.13319804316E-09  0.53181682113E-09  0.62225145869E-09  0.00000000000E+00 0.  1.
</event>
<event>
 5   0  0.6221259E+05  0.9118800E+02  0.7546771E-02  0.1180000E+00
      -11   -1    0    0    0    0  0.00000000000E+00  0.00000000000E+00  0.34996269501E-01  0.35000000000E-01  0.51099999109E-03 0.  1.
       11   -1    0    0    0    0 -0.00000000000E+00 -0.00000000000E+00 -0.34996269501E-01  0.35000000000E-01  0.51099999109E-03 0. -1.
       22    1    1    2    0    0 -0.11633123404E-01  0.45697897801E-02  0.32691659266E-01  0.34999387485E-01  0.00000000000E+00 0.  1.
       22    1    1    2    0    0 -0.25496653863E-06 -0.63002332827E-06  0.44128394424E-06  0.81035106555E-06  0.00000000000E+00 0. -1.
       22    1    1    2    0    0  0.11633378370E-01 -0.45691597568E-02 -0.32692100550E-01  0.34999802164E-01  0.00000000000E+00 0. -1.
</event>
<event>
 5   0  0.6221259E+05  0.9118800E+02  0.7546771E-02  0.1180000E+00
      -11   -1    0    0    0    0  0.00000000000E+00  0.00000000000E+00  0.34996269501E-01  0.35000000000E-01  0.51099999109E-03 0. -1.
       11   -1    0    0    0    0 -0.00000000000E+00 -0.00000000000E+00 -0.34996269501E-01  0.35000000000E-01  0.51099999109E-03 0.  1.
       22    1    1    2    0    0  0.30785773258E-04  0.10280769956E-03  0.16019965907E-03  0.19282405890E-03  0.00000000000E+00 0. -1.
       22    1    1    2    0    0  0.24721888888E-02  0.69352951530E-03 -0.34886912437E-01  0.34981271567E-01  0.00000000000E+00 0.  1.
       22    1    1    2    0    0 -0.25029746621E-02 -0.79633721486E-03  0.34726712778E-01  0.34825904374E-01  0.00000000000E+00 0. -1.
</event>
<event>
 5   0  0.6221259E+05  0.9118800E+02  0.7546771E-02  0.1180000E+00
      -11   -1    0    0    0    0  0.00000000000E+00  0.00000000000E+00  0.34996269501E-01  0.35000000000E-01  0.51099999109E-03 0.  1.
       11   -1    0    0    0    0 -0.00000000000E+00 -0.00000000000E+00 -0.34996269501E-01  0.35000000000E-01  0.51099999109E-03 0. -1.
       22    1    1    2    0    0 -0.73006071467E-04  0.50106696643E-04 -0.26141625865E-04  0.92325251813E-04  0.00000000000E+00 0.  1.
       22    1    1    2    0    0 -0.47777120436E-02 -0.18360001319E-01 -0.29353945387E-01  0.34950969809E-01  0.00000000000E+00 0. -1.
       22    1    1    2    0    0  0.48507181150E-02  0.18309894622E-01  0.29380087013E-01  0.34956704939E-01  0.00000000000E+00 0.  1.
</event>
<event>
 5   0  0.6221259E+05  0.9118800E+02  0.7546771E-02  0.1180000E+00
      -11   -1    0    0    0    0  0.00000000000E+00  0.00000000000E+00  0.34996269501E-01  0.35000000000E-01  0.51099999109E-03 0. -1.
       11   -1    0    0    0    0 -0.00000000000E+00 -0.00000000000E+00 -0.34996269501E-01  0.35000000000E-01  0.51099999109E-03 0.  1.
       22    1    1    2    0    0  0.58468527544E-02  0.96669843110E-02  0.33126427258E-01  0.34999949367E-01  0.00000000000E+00 0. -1.
       22    1    1    2    0    0  0.78831170024E-08 -0.94143886019E-08  0.51949149723E-07  0.53380599503E-07  0.00000000000E+00 0. -1.
       22    1    1    2    0    0 -0.58468606375E-02 -0.96669748966E-02 -0.33126479208E-01  0.34999997252E-01  0.00000000000E+00 0.  1.
</event>
<event>
 5   0  0.6221259E+05  0.9118800E+02  0.7546771E-02  0.1180000E+00
      -11   -1    0    0    0    0  0.00000000000E+00  0.00000000000E+00  0.34996269501E-01  0.35000000000E-01  0.51099999109E-03 0. -1.
       11   -1    0    0    0    0 -0.00000000000E+00 -0.00000000000E+00 -0.34996269501E-01  0.35000000000E-01  0.51099999109E-03 0.  1.
       22    1    1    2    0    0 -0.43083030721E-03  0.32158653067E-02  0.63405647880E-03  0.33059691533E-02  0.00000000000E+00 0.  1.
       22    1    1    2    0    0 -0.33631495301E-02 -0.26841241874E-02  0.32779927681E-01  0.33061139668E-01  0.00000000000E+00 0. -1.
       22    1    1    2    0    0  0.37939798373E-02 -0.53174111932E-03 -0.33413984159E-01  0.33632891179E-01  0.00000000000E+00 0.  1.
</event>
<event>
 5   0  0.6221259E+05  0.9118800E+02  0.7546771E-02  0.1180000E+00
      -11   -1    0    0    0    0  0.00000000000E+00  0.00000000000E+00  0.34996269501E-01  0.35000000000E-01  0.51099999109E-03 0.  1.
       11   -1    0    0    0    0 -0.00000000000E+00 -0.00000000000E+00 -0.34996269501E-01  0.35000000000E-01  0.51099999109E-03 0. -1.
       22    1    1    2    0    0 -0.19195044885E-03  0.96329799371E-03  0.34978944036E-01  0.34992732301E-01  0.00000000000E+00 0.  1.
       22    1    1    2    0    0  0.19599006470E-03 -0.95916237849E-03 -0.34985116237E-01  0.34998810875E-01  0.00000000000E+00 0. -1.
       22    1    1    2    0    0 -0.40396158517E-05 -0.41356152155E-05  0.61722003619E-05  0.84568236796E-05  0.00000000000E+00 0.  1.
</event>
<event>
 5   0  0.6221259E+05  0.9118800E+02  0.7546771E-02  0.1180000E+00
      -11   -1    0    0    0    0  0.00000000000E+00  0.00000000000E+00  0.34996269501E-01  0.35000000000E-01  0.51099999109E-03 0. -1.
       11   -1    0    0    0    0 -0.00000000000E+00 -0.00000000000E+00 -0.34996269501E-01  0.35000000000E-01  0.51099999109E-03 0.  1.
       22    1    1    2    0    0 -0.17713639888E-01 -0.17748613623E-01  0.24265268527E-01  0.34893976276E-01  0.00000000000E+00 0. -1.
       22    1    1    2    0    0  0.86638565053E-03  0.12406132027E-03 -0.31833117403E-03  0.93131629589E-03  0.00000000000E+00 0. -1.
       22    1    1    2    0    0  0.16847254238E-01  0.17624552303E-01 -0.23946937353E-01  0.34174707428E-01  0.00000000000E+00 0.  1.
</event>
<event>
 5   0  0.6221259E+05  0.9118800E+02  0.7546771E-02  0.1180000E+00
      -11   -1    0    0    0    0  0.00000000000E+00  0.00000000000E+00  0.34996269501E-01  0.35000000000E-01  0.51099999109E-03 0. -1.
       11   -1    0    0    0    0 -0.00000000000E+00 -0.00000000000E+00 -0.34996269501E-01  0.35000000000E-01  0.51099999109E-03 0.  1.
       22    1    1    2    0    0 -0.78515491638E-09 -0.12915945956E-08  0.62236223201E-07  0.62254575439E-07  0.00000000000E+00 0.  1.
       22    1    1    2    0    0  0.33056906504E-01  0.27618012813E-02  0.11162909206E-01  0.34999959370E-01  0.00000000000E+00 0. -1.
       22    1    1    2    0    0 -0.33056905719E-01 -0.27617999897E-02 -0.11162971442E-01  0.34999978376E-01  0.00000000000E+00 0.  1.
</event>
<event>
 5   0  0.6221259E+05  0.9118800E+02  0.7546771E-02  0.1180000E+00
      -11   -1    0    0    0    0  0.00000000000E+00  0.00000000000E+00  0.34996269501E-01  0.35000000000E-01  0.51099999109E-03 0.  1.
       11   -1    0    0    0    0 -0.00000000000E+00 -0.00000000000E+00 -0.34996269501E-01  0.35000000000E-01  0.51099999109E-03 0. -1.
       22    1    1    2    0    0  0.56765296921E-02 -0.20959035196E-02  0.34291602982E-01  0.34821399110E-01  0.00000000000E+00 0.  1.
       22    1    1    2    0    0 -0.20653170247E-02 -0.54215884325E-03 -0.21915236274E-01  0.22019015681E-01  0.00000000000E+00 0. -1.
       22    1    1    2    0    0 -0.36112126674E-02  0.26380623629E-02 -0.12376366709E-01  0.13159585209E-01  0.00000000000E+00 0. -1.
</event>
<event>
 5   0  0.6221259E+05  0.9118800E+02  0.7546771E-02  0.1180000E+00
      -11   -1    0    0    0    0  0.00000000000E+00  0.00000000000E+00  0.34996269501E-01  0.35000000000E-01  0.51099999109E-03 0. -1.
       11   -1    0    0    0    0 -0.00000000000E+00 -0.00000000000E+00 -0.34996269501E-01  0.35000000000E-01  0.51099999109E-03 0.  1.
       22    1    1    2    0    0 -0.28726417057E-02  0.42223318182E-02 -0.34625421590E-01  0.34999999666E-01  0.00000000000E+00 0.  1.
       22    1    1    2    0    0  0.28726439609E-02 -0.42223311515E-02  0.34625374506E-01  0.34999953191E-01  0.00000000000E+00 0. -1.
       22    1    1    2    0    0 -0.22551901253E-08 -0.66674265626E-09  0.47084061562E-07  0.47142754284E-07  0.00000000000E+00 0. -1.
</event>
<event>
 5   0  0.6221259E+05  0.9118800E+02  0.7546771E-02  0.1180000E+00
      -11   -1    0    0    0    0  0.00000000000E+00  0.00000000000E+00  0.34996269501E-01  0.35000000000E-01  0.51099999109E-03 0. -1.
       11   -1    0    0    0    0 -0.00000000000E+00 -0.00000000000E+00 -0.34996269501E-01  0.35000000000E-01  0.51099999109E-03 0. -1.
       22    1    1    2    0    0  0.20980846551E-08 -0.14039412028E-07  0.35001388436E-01  0.34999952361E-01  0.00000000000E+00 0. -1.
       22    1    1    2    0    0 -0.20979297938E-08  0.14038375768E-07  0.46580730779E-07  0.48695397971E-07  0.00000000000E+00 0.  1.
       22    1    1    2    0    0 -0.15486135022E-12  0.10362605235E-11 -0.35001435017E-01  0.34999998944E-01  0.00000000000E+00 0. -1.
</event>
<event>
 5   0  0.6221259E+05  0.9118800E+02  0.7546771E-02  0.1180000E+00
      -11   -1    0    0    0    0  0.00000000000E+00  0.00000000000E+00  0.34996269501E-01  0.35000000000E-01  0.51099999109E-03 0.  1.
       11   -1    0    0    0    0 -0.00000000000E+00 -0.00000000000E+00 -0.34996269501E-01  0.35000000000E-01  0.51099999109E-03 0. -1.
       22    1    1    2    0    0  0.27333803498E-02 -0.10739742945E-02 -0.34876571073E-01  0.34999999982E-01  0.00000000000E+00 0. -1.
       22    1    1    2    0    0 -0.27333801560E-02  0.10739735095E-02  0.34876565191E-01  0.34999994081E-01  0.00000000000E+00 0.  1.
       22    1    1    2    0    0 -0.19381564686E-09  0.78504555087E-09  0.58820185781E-08  0.59373397726E-08  0.00000000000E+00 0.  1.
</event>
<event>
 5   0  0.6221259E+05  0.9118800E+02  0.7546771E-02  0.1180000E+00
      -11   -1    0    0    0    0  0.00000000000E+00  0.00000000000E+00  0.34996269501E-01  0.35000000000E-01  0.51099999109E-03 0. -1.
       11   -1    0    0    0    0 -0.00000000000E+00 -0.00000000000E+00 -0.34996269501E-01  0.35000000000E-01  0.51099999109E-03 0.  1.
       22    1    1    2    0    0 -0.19915950129E-02  0.21223229357E-02 -0.34735075684E-01  0.34856795436E-01  0.00000000000E+00 0.  1.
       22    1    1    2    0    0  0.22331909805E-02 -0.18713438969E-02  0.34665788644E-01  0.34788014779E-01  0.00000000000E+00 0. -1.
       22    1    1    2    0    0 -0.24159596767E-03 -0.25097903881E-03  0.69287039480E-04  0.35518978498E-03  0.00000000000E+00 0. -1.
</event>
<event>
 5   0  0.6221259E+05  0.9118800E+02  0.7546771E-02  0.1180000E+00
      -11   -1    0    0    0    0  0.00000000000E+00  0.00000000000E+00  0.34996269501E-01  0.35000000000E-01  0.51099999109E-03 0. -1.
       11   -1    0    0    0    0 -0.00000000000E+00 -0.00000000000E+00 -0.34996269501E-01  0.35000000000E-01  0.51099999109E-03 0.  1.
       22    1    1    2    0    0  0.31678767948E-01 -0.10705837316E-01  0.60096722274E-03  0.33444288794E-01  0.00000000000E+00 0. -1.
       22    1    1    2    0    0 -0.31424188330E-01  0.10784577261E-01 -0.37149574104E-02  0.33430339924E-01  0.00000000000E+00 0.  1.
       22    1    1    2    0    0 -0.25457961825E-03 -0.78739945078E-04  0.31139901876E-02  0.31253712819E-02  0.00000000000E+00 0.  1.
</event>
<event>
 5   0  0.6221259E+05  0.9118800E+02  0.7546771E-02  0.1180000E+00
      -11   -1    0    0    0    0  0.00000000000E+00  0.00000000000E+00  0.34996269501E-01  0.35000000000E-01  0.51099999109E-03 0. -1.
       11   -1    0    0    0    0 -0.00000000000E+00 -0.00000000000E+00 -0.34996269501E-01  0.35000000000E-01  0.51099999109E-03 0. -1.
       22    1    1    2    0    0  0.32375014553E-02 -0.98361584316E-02  0.52861032132E-02  0.11626448965E-01  0.00000000000E+00 0.  1.
       22    1    1    2    0    0 -0.00000000000E+00  0.00000000000E+00  0.25702590276E-01  0.25700464977E-01  0.00000000000E+00 0. -1.
       22    1    1    2    0    0 -0.32375014553E-02  0.98361584316E-02 -0.30988693490E-01  0.32673086058E-01  0.00000000000E+00 0. -1.
</event>
<event>
 5   0  0.6221259E+05  0.9118800E+02  0.7546771E-02  0.1180000E+00
      -11   -1    0    0    0    0  0.00000000000E+00  0.00000000000E+00  0.34996269501E-01  0.35000000000E-01  0.51099999109E-03 0.  1.
       11   -1    0    0    0    0 -0.00000000000E+00 -0.00000000000E+00 -0.34996269501E-01  0.35000000000E-01  0.51099999109E-03 0. -1.
       22    1    1    2    0    0 -0.11484533334E-01 -0.13402193676E-01 -0.29225801923E-02  0.17890074796E-01  0.00000000000E+00 0. -1.
       22    1    1    2    0    0  0.14969760291E-01  0.85136984118E-02  0.24368456794E-01  0.29839545411E-01  0.00000000000E+00 0.  1.
       22    1    1    2    0    0 -0.34852269571E-02  0.48884952641E-02 -0.21445876602E-01  0.22270379793E-01  0.00000000000E+00 0. -1.
</event>
<event>
 5   0  0.6221259E+05  0.9118800E+02  0.7546771E-02  0.1180000E+00
      -11   -1    0    0    0    0  0.00000000000E+00  0.00000000000E+00  0.34996269501E-01  0.35000000000E-01  0.51099999109E-03 0. -1.
       11   -1    0    0    0    0 -0.00000000000E+00 -0.00000000000E+00 -0.34996269501E-01  0.35000000000E-01  0.51099999109E-03 0.  1.
       22    1    1    2    0    0 -0.58464439529E-02 -0.28849835516E-02  0.32222233321E-01  0.32875163226E-01  0.00000000000E+00 0. -1.
       22    1    1    2    0    0 -0.11117397057E-02  0.90517163109E-02 -0.16847200418E-01  0.19157183908E-01  0.00000000000E+00 0.  1.
       22    1    1    2    0    0  0.69581836586E-02 -0.61667327593E-02 -0.15375032903E-01  0.17967652866E-01  0.00000000000E+00 0.  1.
</event>
<event>
 5   0  0.6221259E+05  0.9118800E+02  0.7546771E-02  0.1180000E+00
      -11   -1    0    0    0    0  0.00000000000E+00  0.00000000000E+00  0.34996269501E-01  0.35000000000E-01  0.51099999109E-03 0.  1.
       11   -1    0    0    0    0 -0.00000000000E+00 -0.00000000000E+00 -0.34996269501E-01  0.35000000000E-01  0.51099999109E-03 0. -1.
       22    1    1    2    0    0  0.15420638566E-09 -0.20981168381E-09  0.43454787511E-09  0.50658899298E-09  0.00000000000E+00 0.  1.
       22    1    1    2    0    0  0.15280986601E-01  0.31187012319E-01 -0.43430058100E-02  0.34999999833E-01  0.00000000000E+00 0. -1.
       22    1    1    2    0    0 -0.15280986755E-01 -0.31187012109E-01  0.43430053755E-02  0.34999999660E-01  0.00000000000E+00 0.  1.
</event>
<event>
 5   0  0.6221259E+05  0.9118800E+02  0.7546771E-02  0.1180000E+00
      -11   -1    0    0    0    0  0.00000000000E+00  0.00000000000E+00  0.34996269501E-01  0.35000000000E-01  0.51099999109E-03 0. -1.
       11   -1    0    0    0    0 -0.00000000000E+00 -0.00000000000E+00 -0.34996269501E-01  0.35000000000E-01  0.51099999109E-03 0.  1.
       22    1    1    2    0    0 -0.46529513370E-03 -0.23570935305E-02 -0.34916805333E-01  0.34999366911E-01  0.00000000000E+00 0.  1.
       22    1    1    2    0    0  0.46949200562E-03  0.23520715696E-02  0.34284372314E-01  0.34368166206E-01  0.00000000000E+00 0. -1.
       22    1    1    2    0    0 -0.41968719202E-05  0.50219609246E-05  0.63243301920E-03  0.63246688262E-03  0.00000000000E+00 0. -1.
</event>
<event>
 5   0  0.6221259E+05  0.9118800E+02  0.7546771E-02  0.1180000E+00
      -11   -1    0    0    0    0  0.00000000000E+00  0.00000000000E+00  0.34996269501E-01  0.35000000000E-01  0.51099999109E-03 0. -1.
       11   -1    0    0    0    0 -0.00000000000E+00 -0.00000000000E+00 -0.34996269501E-01  0.35000000000E-01  0.51099999109E-03 0.  1.
       22    1    1    2    0    0  0.23695251436E-02 -0.10904484425E-02  0.34896689935E-01  0.34994038001E-01  0.00000000000E+00 0. -1.
       22    1    1    2    0    0  0.15037978666E-06  0.21491104187E-05  0.58049892907E-05  0.61918648513E-05  0.00000000000E+00 0.  1.
       22    1    1    2    0    0 -0.23696755234E-02  0.10882993320E-02 -0.34902494924E-01  0.34999770134E-01  0.00000000000E+00 0.  1.
</event>
<event>
 5   0  0.6221259E+05  0.9118800E+02  0.7546771E-02  0.1180000E+00
      -11   -1    0    0    0    0  0.00000000000E+00  0.00000000000E+00  0.34996269501E-01  0.35000000000E-01  0.51099999109E-03 0.  1.
       11   -1    0    0    0    0 -0.00000000000E+00 -0.00000000000E+00 -0.34996269501E-01  0.35000000000E-01  0.51099999109E-03 0. -1.
       22    1    1    2    0    0  0.48785068281E-04  0.22490241053E-02  0.34872129845E-01  0.34944612307E-01  0.00000000000E+00 0.  1.
       22    1    1    2    0    0  0.93376742375E-06  0.49121294535E-05  0.55173118980E-04  0.55399223780E-04  0.00000000000E+00 0.  1.
       22    1    1    2    0    0 -0.49718835705E-04 -0.22539362347E-02 -0.34927302964E-01  0.34999988469E-01  0.00000000000E+00 0. -1.
</event>
<event>
 5   0  0.6221259E+05  0.9118800E+02  0.7546771E-02  0.1180000E+00
      -11   -1    0    0    0    0  0.00000000000E+00  0.00000000000E+00  0.34996269501E-01  0.35000000000E-01  0.51099999109E-03 0. -1.
       11   -1    0    0    0    0 -0.00000000000E+00 -0.00000000000E+00 -0.34996269501E-01  0.35000000000E-01  0.51099999109E-03 0.  1.
       22    1    1    2    0    0 -0.52245983987E-07  0.10536713363E-06  0.14140949259E-06  0.18392531171E-06  0.00000000000E+00 0.  1.
       22    1    1    2    0    0 -0.82307776729E-02 -0.75272499972E-02  0.33175051482E-01  0.34999846206E-01  0.00000000000E+00 0. -1.
       22    1    1    2    0    0  0.82308299188E-02  0.75271446301E-02 -0.33175192891E-01  0.34999969869E-01  0.00000000000E+00 0.  1.
</event>
<event>
 5   0  0.6221259E+05  0.9118800E+02  0.7546771E-02  0.1180000E+00
      -11   -1    0    0    0    0  0.00000000000E+00  0.00000000000E+00  0.34996269501E-01  0.35000000000E-01  0.51099999109E-03 0.  1.
       11   -1    0    0    0    0 -0.00000000000E+00 -0.00000000000E+00 -0.34996269501E-01  0.35000000000E-01  0.51099999109E-03 0. -1.
       22    1    1    2    0    0  0.66972471836E-08 -0.14329897539E-07  0.12881066651E-07  0.20399043149E-07  0.00000000000E+00 0.  1.
       22    1    1    2    0    0  0.68175467577E-04 -0.89721565000E-03  0.34988414914E-01  0.34999983172E-01  0.00000000000E+00 0.  1.
       22    1    1    2    0    0 -0.68182164824E-04  0.89722997990E-03 -0.34988427795E-01  0.34999996429E-01  0.00000000000E+00 0. -1.
</event>
<event>
 5   0  0.6221259E+05  0.9118800E+02  0.7546771E-02  0.1180000E+00
      -11   -1    0    0    0    0  0.00000000000E+00  0.00000000000E+00  0.34996269501E-01  0.35000000000E-01  0.51099999109E-03 0. -1.
       11   -1    0    0    0    0 -0.00000000000E+00 -0.00000000000E+00 -0.34996269501E-01  0.35000000000E-01  0.51099999109E-03 0.  1.
       22    1    1    2    0    0 -0.38322835946E-02  0.89071118638E-02  0.33457170737E-01  0.34833967804E-01  0.00000000000E+00 0. -1.
       22    1    1    2    0    0 -0.10522964761E-02 -0.72674081164E-03 -0.32793929806E-02  0.35199287495E-02  0.00000000000E+00 0.  1.
       22    1    1    2    0    0  0.48845800706E-02 -0.81803710521E-02 -0.30177777756E-01  0.31646103446E-01  0.00000000000E+00 0.  1.
</event>
<event>
 5   0  0.6221259E+05  0.9118800E+02  0.7546771E-02  0.1180000E+00
      -11   -1    0    0    0    0  0.00000000000E+00  0.00000000000E+00  0.34996269501E-01  0.35000000000E-01  0.51099999109E-03 0. -1.
       11   -1    0    0    0    0 -0.00000000000E+00 -0.00000000000E+00 -0.34996269501E-01  0.35000000000E-01  0.51099999109E-03 0.  1.
       22    1    1    2    0    0 -0.56448449837E-02  0.63086101149E-02  0.33949817658E-01  0.34989326307E-01  0.00000000000E+00 0. -1.
       22    1    1    2    0    0  0.56403191578E-02 -0.63065602199E-02 -0.33960659809E-01  0.34998747359E-01  0.00000000000E+00 0.  1.
       22    1    1    2    0    0  0.45258259477E-05 -0.20498949414E-05  0.10842151970E-04  0.11926333432E-04  0.00000000000E+00 0.  1.
</event>
<event>
 5   0  0.6221259E+05  0.9118800E+02  0.7546771E-02  0.1180000E+00
      -11   -1    0    0    0    0  0.00000000000E+00  0.00000000000E+00  0.34996269501E-01  0.35000000000E-01  0.51099999109E-03 0.  1.
       11   -1    0    0    0    0 -0.00000000000E+00 -0.00000000000E+00 -0.34996269501E-01  0.35000000000E-01  0.51099999109E-03 0.  1.
       22    1    1    2    0    0 -0.28748378070E-04  0.43058153913E-03  0.34996433675E-01  0.34999094229E-01  0.00000000000E+00 0.  1.
       22    1    1    2    0    0  0.60619723862E-06  0.46297450742E-06  0.74215082938E-06  0.10642407341E-05  0.00000000000E+00 0.  1.
       22    1    1    2    0    0  0.28142180831E-04 -0.43104451363E-03 -0.34997175826E-01  0.34999841530E-01  0.00000000000E+00 0.  1.
</event>
<event>
 5   0  0.6221259E+05  0.9118800E+02  0.7546771E-02  0.1180000E+00
      -11   -1    0    0    0    0  0.00000000000E+00  0.00000000000E+00  0.34996269501E-01  0.35000000000E-01  0.51099999109E-03 0. -1.
       11   -1    0    0    0    0 -0.00000000000E+00 -0.00000000000E+00 -0.34996269501E-01  0.35000000000E-01  0.51099999109E-03 0.  1.
       22    1    1    2    0    0 -0.19660642725E-03 -0.17711610758E-04  0.76485228513E-03  0.78991569579E-03  0.00000000000E+00 0.  1.
       22    1    1    2    0    0  0.19820455832E-02  0.23716955275E-02  0.34090201898E-01  0.34230035200E-01  0.00000000000E+00 0. -1.
       22    1    1    2    0    0 -0.17854391560E-02 -0.23539839167E-02 -0.34855054183E-01  0.34980049104E-01  0.00000000000E+00 0.  1.
</event>
<event>
 5   0  0.6221259E+05  0.9118800E+02  0.7546771E-02  0.1180000E+00
      -11   -1    0    0    0    0  0.00000000000E+00  0.00000000000E+00  0.34996269501E-01  0.35000000000E-01  0.51099999109E-03 0.  1.
       11   -1    0    0    0    0 -0.00000000000E+00 -0.00000000000E+00 -0.34996269501E-01  0.35000000000E-01  0.51099999109E-03 0. -1.
       22    1    1    2    0    0 -0.35881919183E-02  0.20363096848E-01  0.28230642792E-01  0.34992856799E-01  0.00000000000E+00 0.  1.
       22    1    1    2    0    0  0.86491605367E-05  0.10954572173E-04 -0.29002483228E-04  0.32186249593E-04  0.00000000000E+00 0. -1.
       22    1    1    2    0    0  0.35795427577E-02 -0.20374051420E-01 -0.28201640309E-01  0.34974956951E-01  0.00000000000E+00 0. -1.
</event>
<event>
 5   0  0.6221259E+05  0.9118800E+02  0.7546771E-02  0.1180000E+00
      -11   -1    0    0    0    0  0.00000000000E+00  0.00000000000E+00  0.34996269501E-01  0.35000000000E-01  0.51099999109E-03 0. -1.
       11   -1    0    0    0    0 -0.00000000000E+00 -0.00000000000E+00 -0.34996269501E-01  0.35000000000E-01  0.51099999109E-03 0. -1.
       22    1    1    2    0    0  0.20532830972E-02  0.37267781045E-02  0.22163872898E-01  0.22568608915E-01  0.00000000000E+00 0.  1.
       22    1    1    2    0    0 -0.17729430217E-02 -0.35389158781E-02 -0.34682791074E-01  0.34907925307E-01  0.00000000000E+00 0. -1.
       22    1    1    2    0    0 -0.28034007556E-03 -0.18786222643E-03  0.12518918176E-01  0.12523465777E-01  0.00000000000E+00 0. -1.
</event>
<event>
 5   0  0.6221259E+05  0.9118800E+02  0.7546771E-02  0.1180000E+00
      -11   -1    0    0    0    0  0.00000000000E+00  0.00000000000E+00  0.34996269501E-01  0.35000000000E-01  0.51099999109E-03 0.  1.
       11   -1    0    0    0    0 -0.00000000000E+00 -0.00000000000E+00 -0.34996269501E-01  0.35000000000E-01  0.51099999109E-03 0. -1.
       22    1    1    2    0    0 -0.22070165450E-02 -0.74094004736E-03  0.34917597918E-01  0.34995121925E-01  0.00000000000E+00 0.  1.
       22    1    1    2    0    0  0.41690556401E-07 -0.25653398198E-07  0.48844051326E-05  0.48846504172E-05  0.00000000000E+00 0.  1.
       22    1    1    2    0    0  0.22069748544E-02  0.74096570076E-03 -0.34922482323E-01  0.34999993425E-01  0.00000000000E+00 0. -1.
</event>
<event>
 5   0  0.6221259E+05  0.9118800E+02  0.7546771E-02  0.1180000E+00
      -11   -1    0    0    0    0  0.00000000000E+00  0.00000000000E+00  0.34996269501E-01  0.35000000000E-01  0.51099999109E-03 0. -1.
       11   -1    0    0    0    0 -0.00000000000E+00 -0.00000000000E+00 -0.34996269501E-01  0.35000000000E-01  0.51099999109E-03 0.  1.
       22    1    1    2    0    0  0.94897701817E-08  0.39731213852E-07  0.18362176706E-05  0.18366719791E-05  0.00000000000E+00 0. -1.
       22    1    1    2    0    0 -0.38313353720E-02 -0.26610159657E-02  0.34685905365E-01  0.34998173776E-01  0.00000000000E+00 0. -1.
       22    1    1    2    0    0  0.38313258823E-02  0.26609762345E-02 -0.34687741582E-01  0.34999989552E-01  0.00000000000E+00 0.  1.
</event>
<event>
 5   0  0.6221259E+05  0.9118800E+02  0.7546771E-02  0.1180000E+00
      -11   -1    0    0    0    0  0.00000000000E+00  0.00000000000E+00  0.34996269501E-01  0.35000000000E-01  0.51099999109E-03 0. -1.
       11   -1    0    0    0    0 -0.00000000000E+00 -0.00000000000E+00 -0.34996269501E-01  0.35000000000E-01  0.51099999109E-03 0.  1.
       22    1    1    2    0    0 -0.19457026399E-02  0.55107409460E-02 -0.34496054887E-01  0.34987595335E-01  0.00000000000E+00 0.  1.
       22    1    1    2    0    0  0.18902311724E-02 -0.54759572332E-02  0.32300314931E-01  0.32815688720E-01  0.00000000000E+00 0. -1.
       22    1    1    2    0    0  0.55471467559E-04 -0.34783712768E-04  0.21957399558E-02  0.21967159452E-02  0.00000000000E+00 0. -1.
</event>
<event>
 5   0  0.6221259E+05  0.9118800E+02  0.7546771E-02  0.1180000E+00
      -11   -1    0    0    0    0  0.00000000000E+00  0.00000000000E+00  0.34996269501E-01  0.35000000000E-01  0.51099999109E-03 0. -1.
       11   -1    0    0    0    0 -0.00000000000E+00 -0.00000000000E+00 -0.34996269501E-01  0.35000000000E-01  0.51099999109E-03 0.  1.
       22    1    1    2    0    0 -0.36492811414E-02  0.40170537573E-02 -0.34433397076E-01  0.34858468238E-01  0.00000000000E+00 0.  1.
       22    1    1    2    0    0  0.37658451156E-02 -0.40823060392E-02  0.34531815078E-01  0.34975606708E-01  0.00000000000E+00 0. -1.
       22    1    1    2    0    0 -0.11656397419E-03  0.65252281883E-04 -0.98418002089E-04  0.16592505388E-03  0.00000000000E+00 0. -1.
</event>
<event>
 5   0  0.6221259E+05  0.9118800E+02  0.7546771E-02  0.1180000E+00
      -11   -1    0    0    0    0  0.00000000000E+00  0.00000000000E+00  0.34996269501E-01  0.35000000000E-01  0.51099999109E-03 0. -1.
       11   -1    0    0    0    0 -0.00000000000E+00 -0.00000000000E+00 -0.34996269501E-01  0.35000000000E-01  0.51099999109E-03 0.  1.
       22    1    1    2    0    0 -0.33914522752E-01  0.35362359300E-03  0.86377350994E-02  0.34999005283E-01  0.00000000000E+00 0. -1.
       22    1    1    2    0    0  0.11496936185E-06 -0.99446455544E-07  0.16802578237E-05  0.16871200034E-05  0.00000000000E+00 0.  1.
       22    1    1    2    0    0  0.33914407783E-01 -0.35352414654E-03 -0.86394153572E-02  0.34999307597E-01  0.00000000000E+00 0.  1.
</event>
<event>
 5   0  0.6221259E+05  0.9118800E+02  0.7546771E-02  0.1180000E+00
      -11   -1    0    0    0    0  0.00000000000E+00  0.00000000000E+00  0.34996269501E-01  0.35000000000E-01  0.51099999109E-03 0. -1.
       11   -1    0    0    0    0 -0.00000000000E+00 -0.00000000000E+00 -0.34996269501E-01  0.35000000000E-01  0.51099999109E-03 0.  1.
       22    1    1    2    0    0  0.18641113857E-09 -0.10032054311E-09  0.79979771623E-09  0.82733893347E-09  0.00000000000E+00 0. -1.
       22    1    1    2    0    0 -0.65472567399E-02  0.12719327480E-01 -0.31942951284E-01  0.34999999987E-01  0.00000000000E+00 0.  1.
       22    1    1    2    0    0  0.65472565535E-02 -0.12719327379E-01  0.31942950484E-01  0.34999999186E-01  0.00000000000E+00 0. -1.
</event>
<event>
 5   0  0.6221259E+05  0.9118800E+02  0.7546771E-02  0.1180000E+00
      -11   -1    0    0    0    0  0.00000000000E+00  0.00000000000E+00  0.34996269501E-01  0.35000000000E-01  0.51099999109E-03 0.  1.
       11   -1    0    0    0    0 -0.00000000000E+00 -0.00000000000E+00 -0.34996269501E-01  0.35000000000E-01  0.51099999109E-03 0.  1.
       22    1    1    2    0    0 -0.42666780062E-02 -0.20930451027E-02 -0.19477776243E-02  0.51360701596E-02  0.00000000000E+00 0. -1.
       22    1    1    2    0    0 -0.00000000000E+00 -0.00000000000E+00  0.33226573556E-01  0.33226160419E-01  0.00000000000E+00 0.  1.
       22    1    1    2    0    0  0.42666780062E-02  0.20930451027E-02 -0.31278795932E-01  0.31637769421E-01  0.00000000000E+00 0.  1.
</event>
<event>
 5   0  0.6221259E+05  0.9118800E+02  0.7546771E-02  0.1180000E+00
      -11   -1    0    0    0    0  0.00000000000E+00  0.00000000000E+00  0.34996269501E-01  0.35000000000E-01  0.51099999109E-03 0. -1.
       11   -1    0    0    0    0 -0.00000000000E+00 -0.00000000000E+00 -0.34996269501E-01  0.35000000000E-01  0.51099999109E-03 0. -1.
       22    1    1    2    0    0  0.83561220263E-10  0.30420713551E-09 -0.35000439228E-01  0.34999934524E-01  0.00000000000E+00 0. -1.
       22    1    1    2    0    0 -0.13770121724E-05 -0.50130542278E-05  0.34898177089E-01  0.34897671294E-01  0.00000000000E+00 0. -1.
       22    1    1    2    0    0  0.13769286112E-05  0.50127500206E-05  0.10226213863E-03  0.10239418242E-03  0.00000000000E+00 0. -1.
</event>
<event>
 5   0  0.6221259E+05  0.9118800E+02  0.7546771E-02  0.1180000E+00
      -11   -1    0    0    0    0  0.00000000000E+00  0.00000000000E+00  0.34996269501E-01  0.35000000000E-01  0.51099999109E-03 0. -1.
       11   -1    0    0    0    0 -0.00000000000E+00 -0.00000000000E+00 -0.34996269501E-01  0.35000000000E-01  0.51099999109E-03 0. -1.
       22    1    1    2    0    0 -0.11271308077E-03  0.36840873105E-03  0.34997176028E-01  0.34999296553E-01  0.00000000000E+00 0. -1.
       22    1    1    2    0    0 -0.15082007731E-08  0.52022136134E-07  0.70222940821E-06  0.70415532311E-06  0.00000000000E+00 0. -1.
       22    1    1    2    0    0  0.11271458897E-03 -0.36846075319E-03 -0.34997878258E-01  0.34999999292E-01  0.00000000000E+00 0. -1.
</event>
<event>
 5   0  0.6221259E+05  0.9118800E+02  0.7546771E-02  0.1180000E+00
      -11   -1    0    0    0    0  0.00000000000E+00  0.00000000000E+00  0.34996269501E-01  0.35000000000E-01  0.51099999109E-03 0.  1.
       11   -1    0    0    0    0 -0.00000000000E+00 -0.00000000000E+00 -0.34996269501E-01  0.35000000000E-01  0.51099999109E-03 0.  1.
       22    1    1    2    0    0 -0.23849401679E-02  0.10926011902E-02 -0.34901481137E-01  0.34999930036E-01  0.00000000000E+00 0.  1.
       22    1    1    2    0    0  0.23857218211E-02 -0.10927951994E-02  0.34877705281E-01  0.34976280471E-01  0.00000000000E+00 0.  1.
       22    1    1    2    0    0 -0.78165318292E-06  0.19400920503E-06  0.23775856345E-04  0.23789492769E-04  0.00000000000E+00 0.  1.
</event>
<event>
 5   0  0.6221259E+05  0.9118800E+02  0.7546771E-02  0.1180000E+00
      -11   -1    0    0    0    0  0.00000000000E+00  0.00000000000E+00  0.34996269501E-01  0.35000000000E-01  0.51099999109E-03 0.  1.
       11   -1    0    0    0    0 -0.00000000000E+00 -0.00000000000E+00 -0.34996269501E-01  0.35000000000E-01  0.51099999109E-03 0. -1.
       22    1    1    2    0    0  0.63316459559E-04 -0.11566966479E-02  0.34980815167E-01  0.34999991226E-01  0.00000000000E+00 0.  1.
       22    1    1    2    0    0  0.10520257726E-07  0.18800123876E-07 -0.37129064190E-08  0.21861064806E-07  0.00000000000E+00 0.  1.
       22    1    1    2    0    0 -0.63326979816E-04  0.11566778478E-02 -0.34980811454E-01  0.34999986913E-01  0.00000000000E+00 0. -1.
</event>
<event>
 5   0  0.6221259E+05  0.9118800E+02  0.7546771E-02  0.1180000E+00
      -11   -1    0    0    0    0  0.00000000000E+00  0.00000000000E+00  0.34996269501E-01  0.35000000000E-01  0.51099999109E-03 0.  1.
       11   -1    0    0    0    0 -0.00000000000E+00 -0.00000000000E+00 -0.34996269501E-01  0.35000000000E-01  0.51099999109E-03 0.  1.
       22    1    1    2    0    0 -0.00000000000E+00  0.00000000000E+00  0.34989212200E-01  0.34985697775E-01  0.00000000000E+00 0.  1.
       22    1    1    2    0    0 -0.82457499934E-04 -0.35866159447E-03 -0.32053516602E-01  0.32055629208E-01  0.00000000000E+00 0.  1.
       22    1    1    2    0    0  0.82457499934E-04  0.35866159447E-03 -0.29356955978E-02  0.29586730170E-02  0.00000000000E+00 0. -1.
</event>
<event>
 5   0  0.6221259E+05  0.9118800E+02  0.7546771E-02  0.1180000E+00
      -11   -1    0    0    0    0  0.00000000000E+00  0.00000000000E+00  0.34996269501E-01  0.35000000000E-01  0.51099999109E-03 0.  1.
       11   -1    0    0    0    0 -0.00000000000E+00 -0.00000000000E+00 -0.34996269501E-01  0.35000000000E-01  0.51099999109E-03 0. -1.
       22    1    1    2    0    0 -0.21065288355E-03 -0.21001785429E-02  0.25490118891E-02  0.33094691660E-02  0.00000000000E+00 0. -1.
       22    1    1    2    0    0 -0.42153875732E-02  0.12453441974E-02  0.31772071490E-01  0.32074676948E-01  0.00000000000E+00 0.  1.
       22    1    1    2    0    0  0.44260404567E-02  0.85483434548E-03 -0.34321083379E-01  0.34615853886E-01  0.00000000000E+00 0. -1.
</event>
<event>
 5   0  0.6221259E+05  0.9118800E+02  0.7546771E-02  0.1180000E+00
      -11   -1    0    0    0    0  0.00000000000E+00  0.00000000000E+00  0.34996269501E-01  0.35000000000E-01  0.51099999109E-03 0.  1.
       11   -1    0    0    0    0 -0.00000000000E+00 -0.00000000000E+00 -0.34996269501E-01  0.35000000000E-01  0.51099999109E-03 0. -1.
       22    1    1    2    0    0 -0.84567998475E-02  0.13878463282E-01  0.30997843327E-01  0.34999935681E-01  0.00000000000E+00 0.  1.
       22    1    1    2    0    0 -0.16928823560E-07 -0.45801678469E-08  0.65795012483E-07  0.68092192447E-07  0.00000000000E+00 0.  1.
       22    1    1    2    0    0  0.84568167764E-02 -0.13878458702E-01 -0.30997909122E-01  0.34999996227E-01  0.00000000000E+00 0. -1.
</event>
<event>
 5   0  0.6221259E+05  0.9118800E+02  0.7546771E-02  0.1180000E+00
      -11   -1    0    0    0    0  0.00000000000E+00  0.00000000000E+00  0.34996269501E-01  0.35000000000E-01  0.51099999109E-03 0.  1.
       11   -1    0    0    0    0 -0.00000000000E+00 -0.00000000000E+00 -0.34996269501E-01  0.35000000000E-01  0.51099999109E-03 0. -1.
       22    1    1    2    0    0 -0.90826099716E-06 -0.10118192652E-05  0.24729764202E-05  0.28221142145E-05  0.00000000000E+00 0. -1.
       22    1    1    2    0    0  0.93486789333E-02  0.16379555229E-01  0.29481617222E-01  0.34997905385E-01  0.00000000000E+00 0.  1.
       22    1    1    2    0    0 -0.93477706723E-02 -0.16378543409E-01 -0.29484090199E-01  0.34999272501E-01  0.00000000000E+00 0. -1.
</event>
<event>
 5   0  0.6221259E+05  0.9118800E+02  0.7546771E-02  0.1180000E+00
      -11   -1    0    0    0    0  0.00000000000E+00  0.00000000000E+00  0.34996269501E-01  0.35000000000E-01  0.51099999109E-03 0. -1.
       11   -1    0    0    0    0 -0.00000000000E+00 -0.00000000000E+00 -0.34996269501E-01  0.35000000000E-01  0.51099999109E-03 0.  1.
       22    1    1    2    0    0  0.12754590676E-02 -0.14467423263E-03  0.34976448367E-01  0.34999995240E-01  0.00000000000E+00 0. -1.
       22    1    1    2    0    0 -0.12754603152E-02  0.14467401018E-03 -0.34976453021E-01  0.34999999936E-01  0.00000000000E+00 0.  1.
       22    1    1    2    0    0  0.12475917490E-08  0.22245248200E-09  0.46542370142E-08  0.48236803857E-08  0.00000000000E+00 0. -1.
</event>
<event>
 5   0  0.6221259E+05  0.9118800E+02  0.7546771E-02  0.1180000E+00
      -11   -1    0    0    0    0  0.00000000000E+00  0.00000000000E+00  0.34996269501E-01  0.35000000000E-01  0.51099999109E-03 0. -1.
       11   -1    0    0    0    0 -0.00000000000E+00 -0.00000000000E+00 -0.34996269501E-01  0.35000000000E-01  0.51099999109E-03 0.  1.
       22    1    1    2    0    0  0.82580104751E-03  0.62552468887E-03  0.34930767232E-01  0.34946126079E-01  0.00000000000E+00 0. -1.
       22    1    1    2    0    0 -0.63680316464E-06  0.10404094637E-05  0.53877043409E-04  0.53890850584E-04  0.00000000000E+00 0.  1.
       22    1    1    2    0    0 -0.82516424435E-03 -0.62656509834E-03 -0.34984644275E-01  0.34999983070E-01  0.00000000000E+00 0.  1.
</event>
<event>
 5   0  0.6221259E+05  0.9118800E+02  0.7546771E-02  0.1180000E+00
      -11   -1    0    0    0    0  0.00000000000E+00  0.00000000000E+00  0.34996269501E-01  0.35000000000E-01  0.51099999109E-03 0.  1.
       11   -1    0    0    0    0 -0.00000000000E+00 -0.00000000000E+00 -0.34996269501E-01  0.35000000000E-01  0.51099999109E-03 0. -1.
       22    1    1    2    0    0  0.24617547873E-02 -0.10135065965E-02 -0.34898600089E-01  0.34999996006E-01  0.00000000000E+00 0. -1.
       22    1    1    2    0    0  0.27034108043E-07  0.11821544319E-06  0.12392381116E-05  0.12451573520E-05  0.00000000000E+00 0.  1.
       22    1    1    2    0    0 -0.24617818214E-02  0.10133883810E-02  0.34897360851E-01  0.34998758837E-01  0.00000000000E+00 0.  1.
</event>
<event>
 5   0  0.6221259E+05  0.9118800E+02  0.7546771E-02  0.1180000E+00
      -11   -1    0    0    0    0  0.00000000000E+00  0.00000000000E+00  0.34996269501E-01  0.35000000000E-01  0.51099999109E-03 0. -1.
       11   -1    0    0    0    0 -0.00000000000E+00 -0.00000000000E+00 -0.34996269501E-01  0.35000000000E-01  0.51099999109E-03 0.  1.
       22    1    1    2    0    0 -0.25469962597E-06 -0.73325697681E-06  0.89265471428E-05  0.89602333444E-05  0.00000000000E+00 0.  1.
       22    1    1    2    0    0 -0.17748851874E-01  0.29751219671E-01  0.49500166924E-02  0.34995135091E-01  0.00000000000E+00 0. -1.
       22    1    1    2    0    0  0.17749106574E-01 -0.29750486414E-01 -0.49589432395E-02  0.34995904676E-01  0.00000000000E+00 0.  1.
</event>
<event>
 5   0  0.6221259E+05  0.9118800E+02  0.7546771E-02  0.1180000E+00
      -11   -1    0    0    0    0  0.00000000000E+00  0.00000000000E+00  0.34996269501E-01  0.35000000000E-01  0.51099999109E-03 0. -1.
       11   -1    0    0    0    0 -0.00000000000E+00 -0.00000000000E+00 -0.34996269501E-01  0.35000000000E-01  0.51099999109E-03 0.  1.
       22    1    1    2    0    0 -0.30665267415E-01  0.16619747376E-01  0.29023156201E-02  0.34999972349E-01  0.00000000000E+00 0. -1.
       22    1    1    2    0    0  0.30665262212E-01 -0.16619753665E-01 -0.29023675504E-02  0.34999975083E-01  0.00000000000E+00 0.  1.
       22    1    1    2    0    0  0.52029178341E-08  0.62881467775E-08  0.51930251541E-07  0.52567691304E-07  0.00000000000E+00 0.  1.
</event>
<event>
 5   0  0.6221259E+05  0.9118800E+02  0.7546771E-02  0.1180000E+00
      -11   -1    0    0    0    0  0.00000000000E+00  0.00000000000E+00  0.34996269501E-01  0.35000000000E-01  0.51099999109E-03 0.  1.
       11   -1    0    0    0    0 -0.00000000000E+00 -0.00000000000E+00 -0.34996269501E-01  0.35000000000E-01  0.51099999109E-03 0. -1.
       22    1    1    2    0    0 -0.41141863401E-02  0.33102511089E-02 -0.33724929947E-01  0.34135834420E-01  0.00000000000E+00 0. -1.
       22    1    1    2    0    0  0.44018662251E-02 -0.34767532669E-02  0.34535511351E-01  0.34988080597E-01  0.00000000000E+00 0.  1.
       22    1    1    2    0    0 -0.28767988500E-03  0.16650215798E-03 -0.81058140435E-03  0.87608498328E-03  0.00000000000E+00 0.  1.
</event>
<event>
 5   0  0.6221259E+05  0.9118800E+02  0.7546771E-02  0.1180000E+00
      -11   -1    0    0    0    0  0.00000000000E+00  0.00000000000E+00  0.34996269501E-01  0.35000000000E-01  0.51099999109E-03 0.  1.
       11   -1    0    0    0    0 -0.00000000000E+00 -0.00000000000E+00 -0.34996269501E-01  0.35000000000E-01  0.51099999109E-03 0.  1.
       22    1    1    2    0    0  0.12619639962E-02  0.26233192979E-04  0.34560015795E-01  0.34583058469E-01  0.00000000000E+00 0.  1.
       22    1    1    2    0    0 -0.12279493783E-02 -0.51851158999E-04 -0.34976599792E-01  0.34998186828E-01  0.00000000000E+00 0.  1.
       22    1    1    2    0    0 -0.34014617882E-04  0.25617966020E-04  0.41658399725E-03  0.41875470287E-03  0.00000000000E+00 0.  1.
</event>
<event>
 5   0  0.6221259E+05  0.9118800E+02  0.7546771E-02  0.1180000E+00
      -11   -1    0    0    0    0  0.00000000000E+00  0.00000000000E+00  0.34996269501E-01  0.35000000000E-01  0.51099999109E-03 0. -1.
       11   -1    0    0    0    0 -0.00000000000E+00 -0.00000000000E+00 -0.34996269501E-01  0.35000000000E-01  0.51099999109E-03 0.  1.
       22    1    1    2    0    0 -0.53409479229E-02  0.13293958203E-01  0.30976720528E-01  0.34129346083E-01  0.00000000000E+00 0. -1.
       22    1    1    2    0    0  0.30415295106E-02 -0.11091000838E-01 -0.30568396201E-01  0.32660190563E-01  0.00000000000E+00 0.  1.
       22    1    1    2    0    0  0.22994184123E-02 -0.22029573653E-02 -0.40832432683E-03  0.32104633535E-02  0.00000000000E+00 0. -1.
</event>
<event>
 5   0  0.6221259E+05  0.9118800E+02  0.7546771E-02  0.1180000E+00
      -11   -1    0    0    0    0  0.00000000000E+00  0.00000000000E+00  0.34996269501E-01  0.35000000000E-01  0.51099999109E-03 0. -1.
       11   -1    0    0    0    0 -0.00000000000E+00 -0.00000000000E+00 -0.34996269501E-01  0.35000000000E-01  0.51099999109E-03 0. -1.
       22    1    1    2    0    0  0.22535640413E-03 -0.62167363102E-04  0.34991860124E-01  0.34992641015E-01  0.00000000000E+00 0. -1.
       22    1    1    2    0    0 -0.31616651869E-03 -0.21072075419E-03 -0.31873474428E-01  0.31875738997E-01  0.00000000000E+00 0. -1.
       22    1    1    2    0    0  0.90810114567E-04  0.27288811729E-03 -0.31183856953E-02  0.31316199875E-02  0.00000000000E+00 0.  1.
</event>
<event>
 5   0  0.6221259E+05  0.9118800E+02  0.7546771E-02  0.1180000E+00
      -11   -1    0    0    0    0  0.00000000000E+00  0.00000000000E+00  0.34996269501E-01  0.35000000000E-01  0.51099999109E-03 0.  1.
       11   -1    0    0    0    0 -0.00000000000E+00 -0.00000000000E+00 -0.34996269501E-01  0.35000000000E-01  0.51099999109E-03 0. -1.
       22    1    1    2    0    0 -0.80981788766E-08  0.98246126124E-08  0.47344890213E-07  0.49026953233E-07  0.00000000000E+00 0.  1.
       22    1    1    2    0    0 -0.50934846167E-03  0.39570962935E-03  0.34994008020E-01  0.34999951704E-01  0.00000000000E+00 0.  1.
       22    1    1    2    0    0  0.50935655985E-03 -0.39571945396E-03 -0.34994055365E-01  0.34999999269E-01  0.00000000000E+00 0. -1.
</event>
<event>
 5   0  0.6221259E+05  0.9118800E+02  0.7546771E-02  0.1180000E+00
      -11   -1    0    0    0    0  0.00000000000E+00  0.00000000000E+00  0.34996269501E-01  0.35000000000E-01  0.51099999109E-03 0. -1.
       11   -1    0    0    0    0 -0.00000000000E+00 -0.00000000000E+00 -0.34996269501E-01  0.35000000000E-01  0.51099999109E-03 0.  1.
       22    1    1    2    0    0  0.12384194795E-01 -0.61208882704E-02 -0.32116223669E-01  0.34961198159E-01  0.00000000000E+00 0.  1.
       22    1    1    2    0    0 -0.12446299452E-01  0.61298717056E-02  0.32105722067E-01  0.34975178150E-01  0.00000000000E+00 0. -1.
       22    1    1    2    0    0  0.62104656718E-04 -0.89834352321E-05  0.10501601913E-04  0.63623691636E-04  0.00000000000E+00 0. -1.
</event>
<event>
 5   0  0.6221259E+05  0.9118800E+02  0.7546771E-02  0.1180000E+00
      -11   -1    0    0    0    0  0.00000000000E+00  0.00000000000E+00  0.34996269501E-01  0.35000000000E-01  0.51099999109E-03 0. -1.
       11   -1    0    0    0    0 -0.00000000000E+00 -0.00000000000E+00 -0.34996269501E-01  0.35000000000E-01  0.51099999109E-03 0. -1.
       22    1    1    2    0    0  0.14982534695E-03 -0.15169028758E-02 -0.34963976366E-01  0.34997186819E-01  0.00000000000E+00 0. -1.
       22    1    1    2    0    0 -0.15502892317E-03  0.14941866509E-02  0.34925763527E-01  0.34958054661E-01  0.00000000000E+00 0. -1.
       22    1    1    2    0    0  0.52035762229E-05  0.22716224905E-04  0.38212838538E-04  0.44758519955E-04  0.00000000000E+00 0.  1.
</event>
<event>
 5   0  0.6221259E+05  0.9118800E+02  0.7546771E-02  0.1180000E+00
      -11   -1    0    0    0    0  0.00000000000E+00  0.00000000000E+00  0.34996269501E-01  0.35000000000E-01  0.51099999109E-03 0.  1.
       11   -1    0    0    0    0 -0.00000000000E+00 -0.00000000000E+00 -0.34996269501E-01  0.35000000000E-01  0.51099999109E-03 0. -1.
       22    1    1    2    0    0  0.24734008374E-02  0.54815203604E-03 -0.14077326789E-02  0.28982570024E-02  0.00000000000E+00 0.  1.
       22    1    1    2    0    0 -0.24884770619E-02 -0.10640459588E-02 -0.32789305915E-01  0.32900809934E-01  0.00000000000E+00 0. -1.
       22    1    1    2    0    0  0.15076224579E-04  0.51589392279E-03  0.34197038594E-01  0.34200933064E-01  0.00000000000E+00 0.  1.
</event>
<event>
 5   0  0.6221259E+05  0.9118800E+02  0.7546771E-02  0.1180000E+00
      -11   -1    0    0    0    0  0.00000000000E+00  0.00000000000E+00  0.34996269501E-01  0.35000000000E-01  0.51099999109E-03 0.  1.
       11   -1    0    0    0    0 -0.00000000000E+00 -0.00000000000E+00 -0.34996269501E-01  0.35000000000E-01  0.51099999109E-03 0. -1.
       22    1    1    2    0    0 -0.29419086729E-08 -0.15052390280E-08  0.49437049845E-07  0.49547376001E-07  0.00000000000E+00 0.  1.
       22    1    1    2    0    0  0.30866048058E-03  0.12490498188E-02 -0.34976343448E-01  0.34999999968E-01  0.00000000000E+00 0. -1.
       22    1    1    2    0    0 -0.30865753867E-03 -0.12490483136E-02  0.34976294011E-01  0.34999950485E-01  0.00000000000E+00 0.  1.
</event>
<event>
 5   0  0.6221259E+05  0.9118800E+02  0.7546771E-02  0.1180000E+00
      -11   -1    0    0    0    0  0.00000000000E+00  0.00000000000E+00  0.34996269501E-01  0.35000000000E-01  0.51099999109E-03 0.  1.
       11   -1    0    0    0    0 -0.00000000000E+00 -0.00000000000E+00 -0.34996269501E-01  0.35000000000E-01  0.51099999109E-03 0. -1.
       22    1    1    2    0    0 -0.17723785378E-03  0.10512614669E-03 -0.69531975412E-02  0.69562504850E-02  0.00000000000E+00 0.  1.
       22    1    1    2    0    0  0.31048138882E-01  0.42342000305E-03  0.82926129658E-02  0.32139285032E-01  0.00000000000E+00 0.  1.
       22    1    1    2    0    0 -0.30870901028E-01 -0.52854614974E-03 -0.13394154247E-02  0.30904464483E-01  0.00000000000E+00 0. -1.
</event>
<event>
 5   0  0.6221259E+05  0.9118800E+02  0.7546771E-02  0.1180000E+00
      -11   -1    0    0    0    0  0.00000000000E+00  0.00000000000E+00  0.34996269501E-01  0.35000000000E-01  0.51099999109E-03 0.  1.
       11   -1    0    0    0    0 -0.00000000000E+00 -0.00000000000E+00 -0.34996269501E-01  0.35000000000E-01  0.51099999109E-03 0. -1.
       22    1    1    2    0    0 -0.37596056442E-03  0.21414731560E-03 -0.34997132270E-01  0.34999806750E-01  0.00000000000E+00 0. -1.
       22    1    1    2    0    0  0.37582067309E-03 -0.19541800317E-03  0.34624149305E-01  0.34626740309E-01  0.00000000000E+00 0.  1.
       22    1    1    2    0    0  0.13989133494E-06 -0.18729312434E-04  0.37298296496E-03  0.37345294063E-03  0.00000000000E+00 0. -1.
</event>
<event>
 5   0  0.6221259E+05  0.9118800E+02  0.7546771E-02  0.1180000E+00
      -11   -1    0    0    0    0  0.00000000000E+00  0.00000000000E+00  0.34996269501E-01  0.35000000000E-01  0.51099999109E-03 0. -1.
       11   -1    0    0    0    0 -0.00000000000E+00 -0.00000000000E+00 -0.34996269501E-01  0.35000000000E-01  0.51099999109E-03 0.  1.
       22    1    1    2    0    0 -0.21393865962E-06  0.39839560308E-06  0.24730955657E-06  0.51541325497E-06  0.00000000000E+00 0.  1.
       22    1    1    2    0    0 -0.61520328082E-02  0.20509763416E-02  0.34393564947E-01  0.34999590303E-01  0.00000000000E+00 0. -1.
       22    1    1    2    0    0  0.61522467468E-02 -0.20513747372E-02 -0.34393812256E-01  0.34999894284E-01  0.00000000000E+00 0.  1.
</event>
<event>
 5   0  0.6221259E+05  0.9118800E+02  0.7546771E-02  0.1180000E+00
      -11   -1    0    0    0    0  0.00000000000E+00  0.00000000000E+00  0.34996269501E-01  0.35000000000E-01  0.51099999109E-03 0.  1.
       11   -1    0    0    0    0 -0.00000000000E+00 -0.00000000000E+00 -0.34996269501E-01  0.35000000000E-01  0.51099999109E-03 0. -1.
       22    1    1    2    0    0  0.38733414997E-06 -0.50281506174E-06  0.43140334064E-06  0.76743701524E-06  0.00000000000E+00 0. -1.
       22    1    1    2    0    0 -0.79940574382E-03 -0.11670948005E-02  0.34970796618E-01  0.34999396793E-01  0.00000000000E+00 0.  1.
       22    1    1    2    0    0  0.79901840967E-03  0.11675976155E-02 -0.34971228021E-01  0.34999835770E-01  0.00000000000E+00 0. -1.
</event>
<event>
 5   0  0.6221259E+05  0.9118800E+02  0.7546771E-02  0.1180000E+00
      -11   -1    0    0    0    0  0.00000000000E+00  0.00000000000E+00  0.34996269501E-01  0.35000000000E-01  0.51099999109E-03 0. -1.
       11   -1    0    0    0    0 -0.00000000000E+00 -0.00000000000E+00 -0.34996269501E-01  0.35000000000E-01  0.51099999109E-03 0.  1.
       22    1    1    2    0    0 -0.13587554461E-01  0.11787497948E-01  0.12756856975E-01  0.22052304732E-01  0.00000000000E+00 0.  1.
       22    1    1    2    0    0  0.20888094708E-03  0.61345482906E-03 -0.25618964154E-01  0.25627159078E-01  0.00000000000E+00 0.  1.
       22    1    1    2    0    0  0.13378673513E-01 -0.12400952777E-01  0.12862107178E-01  0.22320536190E-01  0.00000000000E+00 0. -1.
</event>
<event>
 5   0  0.6221259E+05  0.9118800E+02  0.7546771E-02  0.1180000E+00
      -11   -1    0    0    0    0  0.00000000000E+00  0.00000000000E+00  0.34996269501E-01  0.35000000000E-01  0.51099999109E-03 0.  1.
       11   -1    0    0    0    0 -0.00000000000E+00 -0.00000000000E+00 -0.34996269501E-01  0.35000000000E-01  0.51099999109E-03 0. -1.
       22    1    1    2    0    0 -0.14763159049E-02 -0.66048608314E-02  0.34335104689E-01  0.34995758446E-01  0.00000000000E+00 0.  1.
       22    1    1    2    0    0  0.14760501318E-02  0.65964100177E-02 -0.34336630191E-01  0.34995650044E-01  0.00000000000E+00 0. -1.
       22    1    1    2    0    0  0.26577308309E-06  0.84508137420E-05  0.15255022927E-05  0.85915100814E-05  0.00000000000E+00 0.  1.
</event>
<event>
 5   0  0.6221259E+05  0.9118800E+02  0.7546771E-02  0.1180000E+00
      -11   -1    0    0    0    0  0.00000000000E+00  0.00000000000E+00  0.34996269501E-01  0.35000000000E-01  0.51099999109E-03 0.  1.
       11   -1    0    0    0    0 -0.00000000000E+00 -0.00000000000E+00 -0.34996269501E-01  0.35000000000E-01  0.51099999109E-03 0. -1.
       22    1    1    2    0    0 -0.88036047639E-08  0.15253334771E-08 -0.14376049029E-08  0.90496854593E-08  0.00000000000E+00 0.  1.
       22    1    1    2    0    0  0.12016789412E-02 -0.75451890043E-02 -0.34155903543E-01  0.34999995089E-01  0.00000000000E+00 0. -1.
       22    1    1    2    0    0 -0.12016701376E-02  0.75451874790E-02  0.34155904981E-01  0.34999995861E-01  0.00000000000E+00 0.  1.
</event>
<event>
 5   0  0.6221259E+05  0.9118800E+02  0.7546771E-02  0.1180000E+00
      -11   -1    0    0    0    0  0.00000000000E+00  0.00000000000E+00  0.34996269501E-01  0.35000000000E-01  0.51099999109E-03 0. -1.
       11   -1    0    0    0    0 -0.00000000000E+00 -0.00000000000E+00 -0.34996269501E-01  0.35000000000E-01  0.51099999109E-03 0.  1.
       22    1    1    2    0    0 -0.25668151730E-02 -0.25296255650E-03  0.34005733536E-01  0.34103408092E-01  0.00000000000E+00 0. -1.
       22    1    1    2    0    0  0.43859379691E-04  0.27119776961E-04  0.89879435441E-03  0.90027241378E-03  0.00000000000E+00 0.  1.
       22    1    1    2    0    0  0.25229557933E-02  0.22584277954E-03 -0.34904527890E-01  0.34996319494E-01  0.00000000000E+00 0.  1.
</event>
<event>
 5   0  0.6221259E+05  0.9118800E+02  0.7546771E-02  0.1180000E+00
      -11   -1    0    0    0    0  0.00000000000E+00  0.00000000000E+00  0.34996269501E-01  0.35000000000E-01  0.51099999109E-03 0.  1.
       11   -1    0    0    0    0 -0.00000000000E+00 -0.00000000000E+00 -0.34996269501E-01  0.35000000000E-01  0.51099999109E-03 0. -1.
       22    1    1    2    0    0  0.22923251072E-01 -0.52894165119E-02 -0.25911937800E-01  0.34998312635E-01  0.00000000000E+00 0. -1.
       22    1    1    2    0    0  0.46578377673E-06 -0.35317581187E-05  0.59982667063E-05  0.69763510100E-05  0.00000000000E+00 0. -1.
       22    1    1    2    0    0 -0.22923716856E-01  0.52929482700E-02  0.25905939533E-01  0.34994711014E-01  0.00000000000E+00 0.  1.
</event>
<event>
 5   0  0.6221259E+05  0.9118800E+02  0.7546771E-02  0.1180000E+00
      -11   -1    0    0    0    0  0.00000000000E+00  0.00000000000E+00  0.34996269501E-01  0.35000000000E-01  0.51099999109E-03 0. -1.
       11   -1    0    0    0    0 -0.00000000000E+00 -0.00000000000E+00 -0.34996269501E-01  0.35000000000E-01  0.51099999109E-03 0.  1.
       22    1    1    2    0    0  0.89225842494E-03 -0.13245087639E-02  0.34958011930E-01  0.34994471659E-01  0.00000000000E+00 0. -1.
       22    1    1    2    0    0 -0.44451113885E-07 -0.38613828590E-06  0.55176373933E-05  0.55313109731E-05  0.00000000000E+00 0. -1.
       22    1    1    2    0    0 -0.89221397382E-03  0.13248949022E-02 -0.34963529568E-01  0.34999997030E-01  0.00000000000E+00 0.  1.
</event>
<event>
 5   0  0.6221259E+05  0.9118800E+02  0.7546771E-02  0.1180000E+00
      -11   -1    0    0    0    0  0.00000000000E+00  0.00000000000E+00  0.34996269501E-01  0.35000000000E-01  0.51099999109E-03 0. -1.
       11   -1    0    0    0    0 -0.00000000000E+00 -0.00000000000E+00 -0.34996269501E-01  0.35000000000E-01  0.51099999109E-03 0.  1.
       22    1    1    2    0    0  0.22615106919E-09 -0.34039477265E-08 -0.37865227438E-09  0.34324017795E-08  0.00000000000E+00 0.  1.
       22    1    1    2    0    0  0.19918882082E-03  0.55887715213E-02  0.34550338184E-01  0.34999998742E-01  0.00000000000E+00 0. -1.
       22    1    1    2    0    0 -0.19918904698E-03 -0.55887681174E-02 -0.34550337805E-01  0.34999997826E-01  0.00000000000E+00 0.  1.
</event>
<event>
 5   0  0.6221259E+05  0.9118800E+02  0.7546771E-02  0.1180000E+00
      -11   -1    0    0    0    0  0.00000000000E+00  0.00000000000E+00  0.34996269501E-01  0.35000000000E-01  0.51099999109E-03 0. -1.
       11   -1    0    0    0    0 -0.00000000000E+00 -0.00000000000E+00 -0.34996269501E-01  0.35000000000E-01  0.51099999109E-03 0.  1.
       22    1    1    2    0    0  0.58258339756E-03 -0.20066348517E-02 -0.34936877278E-01  0.34999305433E-01  0.00000000000E+00 0.  1.
       22    1    1    2    0    0 -0.58416597432E-03  0.20085642239E-02  0.34935008333E-01  0.34997576878E-01  0.00000000000E+00 0. -1.
       22    1    1    2    0    0  0.15825767690E-05 -0.19293721199E-05  0.18689456503E-05  0.31176888636E-05  0.00000000000E+00 0.  1.
</event>
<event>
 5   0  0.6221259E+05  0.9118800E+02  0.7546771E-02  0.1180000E+00
      -11   -1    0    0    0    0  0.00000000000E+00  0.00000000000E+00  0.34996269501E-01  0.35000000000E-01  0.51099999109E-03 0. -1.
       11   -1    0    0    0    0 -0.00000000000E+00 -0.00000000000E+00 -0.34996269501E-01  0.35000000000E-01  0.51099999109E-03 0. -1.
       22    1    1    2    0    0 -0.75253905756E-04 -0.27976553958E-03 -0.34997817187E-01  0.34999016269E-01  0.00000000000E+00 0. -1.
       22    1    1    2    0    0  0.72664076797E-04  0.29303331336E-03  0.34949692367E-01  0.34950996340E-01  0.00000000000E+00 0. -1.
       22    1    1    2    0    0  0.25898289594E-05 -0.13267773778E-04  0.48124820076E-04  0.49987391834E-04  0.00000000000E+00 0.  1.
</event>
<event>
 5   0  0.6221259E+05  0.9118800E+02  0.7546771E-02  0.1180000E+00
      -11   -1    0    0    0    0  0.00000000000E+00  0.00000000000E+00  0.34996269501E-01  0.35000000000E-01  0.51099999109E-03 0.  1.
       11   -1    0    0    0    0 -0.00000000000E+00 -0.00000000000E+00 -0.34996269501E-01  0.35000000000E-01  0.51099999109E-03 0. -1.
       22    1    1    2    0    0 -0.50379223566E-08  0.10925819467E-09  0.21153013780E-07  0.21744944033E-07  0.00000000000E+00 0.  1.
       22    1    1    2    0    0  0.73512100975E-02  0.19562222634E-01 -0.28076307154E-01  0.34999998110E-01  0.00000000000E+00 0. -1.
       22    1    1    2    0    0 -0.73512050596E-02 -0.19562222744E-01  0.28076286001E-01  0.34999980145E-01  0.00000000000E+00 0.  1.
</event>
<event>
 5   0  0.6221259E+05  0.9118800E+02  0.7546771E-02  0.1180000E+00
      -11   -1    0    0    0    0  0.00000000000E+00  0.00000000000E+00  0.34996269501E-01  0.35000000000E-01  0.51099999109E-03 0. -1.
       11   -1    0    0    0    0 -0.00000000000E+00 -0.00000000000E+00 -0.34996269501E-01  0.35000000000E-01  0.51099999109E-03 0.  1.
       22    1    1    2    0    0 -0.25848955404E-02  0.86916235510E-02 -0.33030454442E-01  0.34252546264E-01  0.00000000000E+00 0.  1.
       22    1    1    2    0    0  0.16952505195E-04  0.98517912084E-03 -0.23087531407E-03  0.10120122026E-02  0.00000000000E+00 0.  1.
       22    1    1    2    0    0  0.25679430352E-02 -0.96768026718E-02  0.33261329756E-01  0.34735441534E-01  0.00000000000E+00 0. -1.
</event>
<event>
 5   0  0.6221259E+05  0.9118800E+02  0.7546771E-02  0.1180000E+00
      -11   -1    0    0    0    0  0.00000000000E+00  0.00000000000E+00  0.34996269501E-01  0.35000000000E-01  0.51099999109E-03 0.  1.
       11   -1    0    0    0    0 -0.00000000000E+00 -0.00000000000E+00 -0.34996269501E-01  0.35000000000E-01  0.51099999109E-03 0.  1.
       22    1    1    2    0    0  0.24626280400E-12 -0.21006747931E-12 -0.35001909916E-01  0.34999998624E-01  0.00000000000E+00 0.  1.
       22    1    1    2    0    0 -0.30553795103E-08  0.26063045724E-08  0.35001908364E-01  0.34999997071E-01  0.00000000000E+00 0.  1.
       22    1    1    2    0    0  0.30551332475E-08 -0.26060945049E-08  0.15524035239E-08  0.43052902840E-08  0.00000000000E+00 0.  1.
</event>
<event>
 5   0  0.6221259E+05  0.9118800E+02  0.7546771E-02  0.1180000E+00
      -11   -1    0    0    0    0  0.00000000000E+00  0.00000000000E+00  0.34996269501E-01  0.35000000000E-01  0.51099999109E-03 0.  1.
       11   -1    0    0    0    0 -0.00000000000E+00 -0.00000000000E+00 -0.34996269501E-01  0.35000000000E-01  0.51099999109E-03 0. -1.
       22    1    1    2    0    0 -0.25202226554E-02 -0.19184470192E-02  0.34847207539E-01  0.34990853583E-01  0.00000000000E+00 0.  1.
       22    1    1    2    0    0 -0.65622412663E-06 -0.49417317159E-06  0.91094531406E-05  0.91464186296E-05  0.00000000000E+00 0.  1.
       22    1    1    2    0    0  0.25208788795E-02  0.19189411924E-02 -0.34856316992E-01  0.34999999998E-01  0.00000000000E+00 0. -1.
</event>
<event>
 5   0  0.6221259E+05  0.9118800E+02  0.7546771E-02  0.1180000E+00
      -11   -1    0    0    0    0  0.00000000000E+00  0.00000000000E+00  0.34996269501E-01  0.35000000000E-01  0.51099999109E-03 0.  1.
       11   -1    0    0    0    0 -0.00000000000E+00 -0.00000000000E+00 -0.34996269501E-01  0.35000000000E-01  0.51099999109E-03 0. -1.
       22    1    1    2    0    0 -0.33985077054E-04  0.22407331032E-03  0.34836166450E-01  0.34836903662E-01  0.00000000000E+00 0.  1.
       22    1    1    2    0    0  0.64832752031E-03 -0.56992898955E-03 -0.34207842144E-01  0.34218731885E-01  0.00000000000E+00 0. -1.
       22    1    1    2    0    0 -0.61434244326E-03  0.34585567923E-03 -0.62832430516E-03  0.94436445342E-03  0.00000000000E+00 0. -1.
</event>
<event>
 5   0  0.6221259E+05  0.9118800E+02  0.7546771E-02  0.1180000E+00
      -11   -1    0    0    0    0  0.00000000000E+00  0.00000000000E+00  0.34996269501E-01  0.35000000000E-01  0.51099999109E-03 0.  1.
       11   -1    0    0    0    0 -0.00000000000E+00 -0.00000000000E+00 -0.34996269501E-01  0.35000000000E-01  0.51099999109E-03 0. -1.
       22    1    1    2    0    0  0.32882113154E-05  0.52924523973E-05  0.55276690996E-04  0.55626746746E-04  0.00000000000E+00 0.  1.
       22    1    1    2    0    0 -0.21109931426E-02 -0.11134792013E-02  0.34863198716E-01  0.34944795789E-01  0.00000000000E+00 0.  1.
       22    1    1    2    0    0  0.21077049313E-02  0.11081867489E-02 -0.34918475407E-01  0.34999577465E-01  0.00000000000E+00 0. -1.
</event>
<event>
 5   0  0.6221259E+05  0.9118800E+02  0.7546771E-02  0.1180000E+00
      -11   -1    0    0    0    0  0.00000000000E+00  0.00000000000E+00  0.34996269501E-01  0.35000000000E-01  0.51099999109E-03 0. -1.
       11   -1    0    0    0    0 -0.00000000000E+00 -0.00000000000E+00 -0.34996269501E-01  0.35000000000E-01  0.51099999109E-03 0.  1.
       22    1    1    2    0    0 -0.25055493206E-01 -0.12724925879E-01  0.20861011676E-01  0.34998332626E-01  0.00000000000E+00 0. -1.
       22    1    1    2    0    0  0.25055391614E-01  0.12725032536E-01 -0.20863119067E-01  0.34999554843E-01  0.00000000000E+00 0.  1.
       22    1    1    2    0    0  0.10159153341E-06 -0.10665703319E-06  0.21073903998E-05  0.21125318600E-05  0.00000000000E+00 0. -1.
</event>
<event>
 5   0  0.6221259E+05  0.9118800E+02  0.7546771E-02  0.1180000E+00
      -11   -1    0    0    0    0  0.00000000000E+00  0.00000000000E+00  0.34996269501E-01  0.35000000000E-01  0.51099999109E-03 0.  1.
       11   -1    0    0    0    0 -0.00000000000E+00 -0.00000000000E+00 -0.34996269501E-01  0.35000000000E-01  0.51099999109E-03 0. -1.
       22    1    1    2    0    0 -0.12641457105E-02 -0.78527884012E-02 -0.34051398576E-01  0.34968015314E-01  0.00000000000E+00 0. -1.
       22    1    1    2    0    0  0.27335635906E-04  0.31256158412E-04 -0.24416986384E-04  0.48170256935E-04  0.00000000000E+00 0.  1.
       22    1    1    2    0    0  0.12368100746E-02  0.78215322428E-02  0.34075815562E-01  0.34983814429E-01  0.00000000000E+00 0.  1.
</event>
<event>
 5   0  0.6221259E+05  0.9118800E+02  0.7546771E-02  0.1180000E+00
      -11   -1    0    0    0    0  0.00000000000E+00  0.00000000000E+00  0.34996269501E-01  0.35000000000E-01  0.51099999109E-03 0. -1.
       11   -1    0    0    0    0 -0.00000000000E+00 -0.00000000000E+00 -0.34996269501E-01  0.35000000000E-01  0.51099999109E-03 0.  1.
       22    1    1    2    0    0  0.14997743073E-08  0.15455234957E-08  0.62778672098E-08  0.66369859539E-08  0.00000000000E+00 0. -1.
       22    1    1    2    0    0 -0.33137752180E-02  0.37784306911E-02 -0.34637296944E-01  0.34999999775E-01  0.00000000000E+00 0.  1.
       22    1    1    2    0    0  0.33137737182E-02 -0.37784322366E-02  0.34637290666E-01  0.34999993588E-01  0.00000000000E+00 0. -1.
</event>
<event>
 5   0  0.6221259E+05  0.9118800E+02  0.7546771E-02  0.1180000E+00
      -11   -1    0    0    0    0  0.00000000000E+00  0.00000000000E+00  0.34996269501E-01  0.35000000000E-01  0.51099999109E-03 0. -1.
       11   -1    0    0    0    0 -0.00000000000E+00 -0.00000000000E+00 -0.34996269501E-01  0.35000000000E-01  0.51099999109E-03 0.  1.
       22    1    1    2    0    0 -0.75804842902E-07  0.52139262638E-07  0.51280662258E-06  0.52099473037E-06  0.00000000000E+00 0. -1.
       22    1    1    2    0    0 -0.22863404011E-01 -0.87692859800E-02 -0.25007152846E-01  0.34999904472E-01  0.00000000000E+00 0.  1.
       22    1    1    2    0    0  0.22863479816E-01  0.87692338407E-02  0.25006640040E-01  0.34999574533E-01  0.00000000000E+00 0. -1.
</event>
<event>
 5   0  0.6221259E+05  0.9118800E+02  0.7546771E-02  0.1180000E+00
      -11   -1    0    0    0    0  0.00000000000E+00  0.00000000000E+00  0.34996269501E-01  0.35000000000E-01  0.51099999109E-03 0. -1.
       11   -1    0    0    0    0 -0.00000000000E+00 -0.00000000000E+00 -0.34996269501E-01  0.35000000000E-01  0.51099999109E-03 0.  1.
       22    1    1    2    0    0 -0.92082434908E-04  0.62320667737E-02 -0.34431185833E-01  0.34990765829E-01  0.00000000000E+00 0.  1.
       22    1    1    2    0    0  0.37645115829E-04 -0.62636369537E-02  0.33850593288E-01  0.34425241190E-01  0.00000000000E+00 0. -1.
       22    1    1    2    0    0  0.54437319078E-04  0.31570180045E-04  0.58059254532E-03  0.58399298083E-03  0.00000000000E+00 0.  1.
</event>
<event>
 5   0  0.6221259E+05  0.9118800E+02  0.7546771E-02  0.1180000E+00
      -11   -1    0    0    0    0  0.00000000000E+00  0.00000000000E+00  0.34996269501E-01  0.35000000000E-01  0.51099999109E-03 0. -1.
       11   -1    0    0    0    0 -0.00000000000E+00 -0.00000000000E+00 -0.34996269501E-01  0.35000000000E-01  0.51099999109E-03 0.  1.
       22    1    1    2    0    0  0.14666248604E-02 -0.17447894853E-01  0.30298876651E-01  0.34994313103E-01  0.00000000000E+00 0. -1.
       22    1    1    2    0    0  0.89782877441E-07 -0.12145477541E-06  0.60603131776E-05  0.60621949852E-05  0.00000000000E+00 0.  1.
       22    1    1    2    0    0 -0.14667146432E-02  0.17448016307E-01 -0.30304936964E-01  0.34999624702E-01  0.00000000000E+00 0.  1.
</event>
<event>
 5   0  0.6221259E+05  0.9118800E+02  0.7546771E-02  0.1180000E+00
      -11   -1    0    0    0    0  0.00000000000E+00  0.00000000000E+00  0.34996269501E-01  0.35000000000E-01  0.51099999109E-03 0.  1.
       11   -1    0    0    0    0 -0.00000000000E+00 -0.00000000000E+00 -0.34996269501E-01  0.35000000000E-01  0.51099999109E-03 0. -1.
       22    1    1    2    0    0  0.21729756372E-02 -0.50611064572E-02 -0.34562884792E-01  0.34998994655E-01  0.00000000000E+00 0. -1.
       22    1    1    2    0    0 -0.21717915442E-02  0.50557689030E-02  0.34558963501E-01  0.34994277189E-01  0.00000000000E+00 0.  1.
       22    1    1    2    0    0 -0.11840930030E-05  0.53375542242E-05  0.39212908219E-05  0.67281559915E-05  0.00000000000E+00 0.  1.
</event>
<event>
 5   0  0.6221259E+05  0.9118800E+02  0.7546771E-02  0.1180000E+00
      -11   -1    0    0    0    0  0.00000000000E+00  0.00000000000E+00  0.34996269501E-01  0.35000000000E-01  0.51099999109E-03 0. -1.
       11   -1    0    0    0    0 -0.00000000000E+00 -0.00000000000E+00 -0.34996269501E-01  0.35000000000E-01  0.51099999109E-03 0.  1.
       22    1    1    2    0    0 -0.14697431285E-01  0.30235773024E-01 -0.97356005856E-02  0.34999976793E-01  0.00000000000E+00 0.  1.
       22    1    1    2    0    0  0.13537956925E-06 -0.31187625307E-06  0.30698868007E-06  0.45807911400E-06  0.00000000000E+00 0. -1.
       22    1    1    2    0    0  0.14697295905E-01 -0.30235461148E-01  0.97352935969E-02  0.34999565128E-01  0.00000000000E+00 0. -1.
</event>
<event>
 5   0  0.6221259E+05  0.9118800E+02  0.7546771E-02  0.1180000E+00
      -11   -1    0    0    0    0  0.00000000000E+00  0.00000000000E+00  0.34996269501E-01  0.35000000000E-01  0.51099999109E-03 0.  1.
       11   -1    0    0    0    0 -0.00000000000E+00 -0.00000000000E+00 -0.34996269501E-01  0.35000000000E-01  0.51099999109E-03 0. -1.
       22    1    1    2    0    0 -0.22998987969E-02 -0.24817767258E-01 -0.23529875805E-01  0.34276320712E-01  0.00000000000E+00 0. -1.
       22    1    1    2    0    0  0.45040672397E-04 -0.36487531332E-05 -0.85442852235E-03  0.85562262439E-03  0.00000000000E+00 0.  1.
       22    1    1    2    0    0  0.22548581245E-02  0.24821416011E-01  0.24384304327E-01  0.34868056664E-01  0.00000000000E+00 0.  1.
</event>
<event>
 5   0  0.6221259E+05  0.9118800E+02  0.7546771E-02  0.1180000E+00
      -11   -1    0    0    0    0  0.00000000000E+00  0.00000000000E+00  0.34996269501E-01  0.35000000000E-01  0.51099999109E-03 0. -1.
       11   -1    0    0    0    0 -0.00000000000E+00 -0.00000000000E+00 -0.34996269501E-01  0.35000000000E-01  0.51099999109E-03 0.  1.
       22    1    1    2    0    0  0.25389516287E-03  0.16555691711E-02 -0.34958978640E-01  0.34999079410E-01  0.00000000000E+00 0.  1.
       22    1    1    2    0    0 -0.25349409991E-03 -0.16579949252E-02  0.34958093832E-01  0.34998307542E-01  0.00000000000E+00 0. -1.
       22    1    1    2    0    0 -0.40106296505E-06  0.24257540969E-05  0.88480716572E-06  0.26130476768E-05  0.00000000000E+00 0.  1.
</event>
<event>
 5   0  0.6221259E+05  0.9118800E+02  0.7546771E-02  0.1180000E+00
      -11   -1    0    0    0    0  0.00000000000E+00  0.00000000000E+00  0.34996269501E-01  0.35000000000E-01  0.51099999109E-03 0.  1.
       11   -1    0    0    0    0 -0.00000000000E+00 -0.00000000000E+00 -0.34996269501E-01  0.35000000000E-01  0.51099999109E-03 0. -1.
       22    1    1    2    0    0 -0.28444595306E-01 -0.72681331447E-02  0.19054626246E-01  0.34999993470E-01  0.00000000000E+00 0.  1.
       22    1    1    2    0    0 -0.43201103920E-09 -0.62080478184E-08  0.55991189178E-08  0.83711781673E-08  0.00000000000E+00 0.  1.
       22    1    1    2    0    0  0.28444595738E-01  0.72681393528E-02 -0.19054631845E-01  0.34999998159E-01  0.00000000000E+00 0. -1.
</event>
<event>
 5   0  0.6221259E+05  0.9118800E+02  0.7546771E-02  0.1180000E+00
      -11   -1    0    0    0    0  0.00000000000E+00  0.00000000000E+00  0.34996269501E-01  0.35000000000E-01  0.51099999109E-03 0. -1.
       11   -1    0    0    0    0 -0.00000000000E+00 -0.00000000000E+00 -0.34996269501E-01  0.35000000000E-01  0.51099999109E-03 0.  1.
       22    1    1    2    0    0  0.23638946435E-02 -0.32278178664E-01  0.13297170140E-01  0.34989763495E-01  0.00000000000E+00 0. -1.
       22    1    1    2    0    0 -0.27939518170E-06  0.56836322513E-06 -0.33866898141E-04  0.33872819311E-04  0.00000000000E+00 0.  1.
       22    1    1    2    0    0 -0.23636152483E-02  0.32277610300E-01 -0.13263303242E-01  0.34976363685E-01  0.00000000000E+00 0.  1.
</event>
<event>
 5   0  0.6221259E+05  0.9118800E+02  0.7546771E-02  0.1180000E+00
      -11   -1    0    0    0    0  0.00000000000E+00  0.00000000000E+00  0.34996269501E-01  0.35000000000E-01  0.51099999109E-03 0. -1.
       11   -1    0    0    0    0 -0.00000000000E+00 -0.00000000000E+00 -0.34996269501E-01  0.35000000000E-01  0.51099999109E-03 0.  1.
       22    1    1    2    0    0 -0.14062251561E-03  0.21146908544E-03  0.82260144102E-02  0.82299335928E-02  0.00000000000E+00 0.  1.
       22    1    1    2    0    0  0.55757373946E-02 -0.95034973003E-02  0.24744428791E-01  0.27086750721E-01  0.00000000000E+00 0. -1.
       22    1    1    2    0    0 -0.54351148790E-02  0.92920282149E-02 -0.32970443201E-01  0.34683315686E-01  0.00000000000E+00 0.  1.
</event>
<event>
 5   0  0.6221259E+05  0.9118800E+02  0.7546771E-02  0.1180000E+00
      -11   -1    0    0    0    0  0.00000000000E+00  0.00000000000E+00  0.34996269501E-01  0.35000000000E-01  0.51099999109E-03 0. -1.
       11   -1    0    0    0    0 -0.00000000000E+00 -0.00000000000E+00 -0.34996269501E-01  0.35000000000E-01  0.51099999109E-03 0.  1.
       22    1    1    2    0    0 -0.16846492046E-04  0.91609937008E-04 -0.19628462977E-03  0.21726444886E-03  0.00000000000E+00 0. -1.
       22    1    1    2    0    0 -0.19671670934E-03  0.20919614423E-02  0.34923315117E-01  0.34986467940E-01  0.00000000000E+00 0. -1.
       22    1    1    2    0    0  0.21356320139E-03 -0.21835713793E-02 -0.34727030487E-01  0.34796267611E-01  0.00000000000E+00 0.  1.
</event>
<event>
 5   0  0.6221259E+05  0.9118800E+02  0.7546771E-02  0.1180000E+00
      -11   -1    0    0    0    0  0.00000000000E+00  0.00000000000E+00  0.34996269501E-01  0.35000000000E-01  0.51099999109E-03 0.  1.
       11   -1    0    0    0    0 -0.00000000000E+00 -0.00000000000E+00 -0.34996269501E-01  0.35000000000E-01  0.51099999109E-03 0. -1.
       22    1    1    2    0    0  0.18773351728E-02  0.11595560824E-02 -0.34930366819E-01  0.34999992625E-01  0.00000000000E+00 0. -1.
       22    1    1    2    0    0 -0.18773382103E-02 -0.11595191664E-02  0.34930331102E-01  0.34999955919E-01  0.00000000000E+00 0.  1.
       22    1    1    2    0    0  0.30374903131E-08 -0.36915984917E-07  0.35717069969E-07  0.51456052870E-07  0.00000000000E+00 0.  1.
</event>
<event>
 5   0  0.6221259E+05  0.9118800E+02  0.7546771E-02  0.1180000E+00
      -11   -1    0    0    0    0  0.00000000000E+00  0.00000000000E+00  0.34996269501E-01  0.35000000000E-01  0.51099999109E-03 0.  1.
       11   -1    0    0    0    0 -0.00000000000E+00 -0.00000000000E+00 -0.34996269501E-01  0.35000000000E-01  0.51099999109E-03 0. -1.
       22    1    1    2    0    0 -0.11341107847E-02  0.27549983554E-02  0.34872848127E-01  0.34999882281E-01  0.00000000000E+00 0.  1.
       22    1    1    2    0    0  0.25831157443E-06 -0.15496083962E-06 -0.49430040479E-07  0.30525572919E-06  0.00000000000E+00 0.  1.
       22    1    1    2    0    0  0.11338524731E-02 -0.27548433945E-02 -0.34872798696E-01  0.34999812464E-01  0.00000000000E+00 0. -1.
</event>
<event>
 5   0  0.6221259E+05  0.9118800E+02  0.7546771E-02  0.1180000E+00
      -11   -1    0    0    0    0  0.00000000000E+00  0.00000000000E+00  0.34996269501E-01  0.35000000000E-01  0.51099999109E-03 0.  1.
       11   -1    0    0    0    0 -0.00000000000E+00 -0.00000000000E+00 -0.34996269501E-01  0.35000000000E-01  0.51099999109E-03 0. -1.
       22    1    1    2    0    0  0.28216631782E-07  0.11704978135E-09  0.53324829446E-06  0.53399432165E-06  0.00000000000E+00 0.  1.
       22    1    1    2    0    0  0.64613354507E-02  0.15893493061E-02  0.34361139644E-01  0.34999468634E-01  0.00000000000E+00 0.  1.
       22    1    1    2    0    0 -0.64613636674E-02 -0.15893494232E-02 -0.34361672893E-01  0.34999997371E-01  0.00000000000E+00 0. -1.
</event>
<event>
 5   0  0.6221259E+05  0.9118800E+02  0.7546771E-02  0.1180000E+00
      -11   -1    0    0    0    0  0.00000000000E+00  0.00000000000E+00  0.34996269501E-01  0.35000000000E-01  0.51099999109E-03 0.  1.
       11   -1    0    0    0    0 -0.00000000000E+00 -0.00000000000E+00 -0.34996269501E-01  0.35000000000E-01  0.51099999109E-03 0. -1.
       22    1    1    2    0    0 -0.12094839766E-02  0.13408409926E-02 -0.34953352806E-01  0.34999965406E-01  0.00000000000E+00 0. -1.
       22    1    1    2    0    0  0.12095928854E-02 -0.13409032525E-02  0.34953259191E-01  0.34999878065E-01  0.00000000000E+00 0.  1.
       22    1    1    2    0    0 -0.10890876918E-06  0.62259888225E-07  0.93615316015E-07  0.15652872286E-06  0.00000000000E+00 0. -1.
</event>
<event>
 5   0  0.6221259E+05  0.9118800E+02  0.7546771E-02  0.1180000E+00
      -11   -1    0    0    0    0  0.00000000000E+00  0.00000000000E+00  0.34996269501E-01  0.35000000000E-01  0.51099999109E-03 0.  1.
       11   -1    0    0    0    0 -0.00000000000E+00 -0.00000000000E+00 -0.34996269501E-01  0.35000000000E-01  0.51099999109E-03 0. -1.
       22    1    1    2    0    0 -0.41377241731E-02 -0.56731378831E-02 -0.26015843202E-01  0.26946787420E-01  0.00000000000E+00 0. -1.
       22    1    1    2    0    0  0.10081435164E-01  0.15496216723E-01  0.50741447798E-02  0.19170681076E-01  0.00000000000E+00 0. -1.
       22    1    1    2    0    0 -0.59437109905E-02 -0.98230788397E-02  0.20941698422E-01  0.23882531504E-01  0.00000000000E+00 0.  1.
</event>
<event>
 5   0  0.6221259E+05  0.9118800E+02  0.7546771E-02  0.1180000E+00
      -11   -1    0    0    0    0  0.00000000000E+00  0.00000000000E+00  0.34996269501E-01  0.35000000000E-01  0.51099999109E-03 0. -1.
       11   -1    0    0    0    0 -0.00000000000E+00 -0.00000000000E+00 -0.34996269501E-01  0.35000000000E-01  0.51099999109E-03 0. -1.
       22    1    1    2    0    0 -0.17925415438E-11  0.24944783199E-11 -0.35002519233E-01  0.34999996619E-01  0.00000000000E+00 0. -1.
       22    1    1    2    0    0  0.20066052438E-07 -0.27923666789E-07  0.35002435273E-01  0.34999912653E-01  0.00000000000E+00 0. -1.
       22    1    1    2    0    0 -0.20064259897E-07  0.27921172310E-07  0.83960515361E-07  0.90727804603E-07  0.00000000000E+00 0.  1.
</event>
<event>
 5   0  0.6221259E+05  0.9118800E+02  0.7546771E-02  0.1180000E+00
      -11   -1    0    0    0    0  0.00000000000E+00  0.00000000000E+00  0.34996269501E-01  0.35000000000E-01  0.51099999109E-03 0. -1.
       11   -1    0    0    0    0 -0.00000000000E+00 -0.00000000000E+00 -0.34996269501E-01  0.35000000000E-01  0.51099999109E-03 0.  1.
       22    1    1    2    0    0 -0.28313972136E-04  0.14514922560E-04 -0.16726323635E-04  0.35946264025E-04  0.00000000000E+00 0.  1.
       22    1    1    2    0    0  0.21250069751E-01 -0.34707316538E-03 -0.27788442755E-01  0.34984046006E-01  0.00000000000E+00 0.  1.
       22    1    1    2    0    0 -0.21221755779E-01  0.33255824282E-03  0.27805169079E-01  0.34980007730E-01  0.00000000000E+00 0. -1.
</event>
<event>
 5   0  0.6221259E+05  0.9118800E+02  0.7546771E-02  0.1180000E+00
      -11   -1    0    0    0    0  0.00000000000E+00  0.00000000000E+00  0.34996269501E-01  0.35000000000E-01  0.51099999109E-03 0. -1.
       11   -1    0    0    0    0 -0.00000000000E+00 -0.00000000000E+00 -0.34996269501E-01  0.35000000000E-01  0.51099999109E-03 0.  1.
       22    1    1    2    0    0  0.15352076622E-04  0.23991200200E-04  0.40449786410E-03  0.40549942788E-03  0.00000000000E+00 0. -1.
       22    1    1    2    0    0 -0.58314643558E-03 -0.25600167493E-02  0.34496803096E-01  0.34596577423E-01  0.00000000000E+00 0. -1.
       22    1    1    2    0    0  0.56779435896E-03  0.25360255491E-02 -0.34901300960E-01  0.34997923149E-01  0.00000000000E+00 0.  1.
</event>
<event>
 5   0  0.6221259E+05  0.9118800E+02  0.7546771E-02  0.1180000E+00
      -11   -1    0    0    0    0  0.00000000000E+00  0.00000000000E+00  0.34996269501E-01  0.35000000000E-01  0.51099999109E-03 0.  1.
       11   -1    0    0    0    0 -0.00000000000E+00 -0.00000000000E+00 -0.34996269501E-01  0.35000000000E-01  0.51099999109E-03 0. -1.
       22    1    1    2    0    0 -0.18230683926E-01 -0.34085091693E-02 -0.29665950565E-01  0.34986345824E-01  0.00000000000E+00 0. -1.
       22    1    1    2    0    0  0.22933502526E-05 -0.96351000858E-05  0.17860989540E-03  0.17888429038E-03  0.00000000000E+00 0. -1.
       22    1    1    2    0    0  0.18228390576E-01  0.34181442694E-02  0.29487340670E-01  0.34834769886E-01  0.00000000000E+00 0.  1.
</event>
<event>
 5   0  0.6221259E+05  0.9118800E+02  0.7546771E-02  0.1180000E+00
      -11   -1    0    0    0    0  0.00000000000E+00  0.00000000000E+00  0.34996269501E-01  0.35000000000E-01  0.51099999109E-03 0.  1.
       11   -1    0    0    0    0 -0.00000000000E+00 -0.00000000000E+00 -0.34996269501E-01  0.35000000000E-01  0.51099999109E-03 0. -1.
       22    1    1    2    0    0  0.43770787347E-06 -0.89846096679E-06  0.58632924815E-05  0.59478583553E-05  0.00000000000E+00 0.  1.
       22    1    1    2    0    0 -0.15839003648E-02  0.49108808432E-02  0.34611681557E-01  0.34994199394E-01  0.00000000000E+00 0.  1.
       22    1    1    2    0    0  0.15834626569E-02 -0.49099823822E-02 -0.34617544849E-01  0.34999852748E-01  0.00000000000E+00 0. -1.
</event>
<event>
 5   0  0.6221259E+05  0.9118800E+02  0.7546771E-02  0.1180000E+00
      -11   -1    0    0    0    0  0.00000000000E+00  0.00000000000E+00  0.34996269501E-01  0.35000000000E-01  0.51099999109E-03 0. -1.
       11   -1    0    0    0    0 -0.00000000000E+00 -0.00000000000E+00 -0.34996269501E-01  0.35000000000E-01  0.51099999109E-03 0.  1.
       22    1    1    2    0    0 -0.95486985433E-02  0.15071395599E-01 -0.30111050087E-01  0.34999999236E-01  0.00000000000E+00 0.  1.
       22    1    1    2    0    0  0.14065026318E-08 -0.49048605776E-08  0.15075636975E-08  0.53205878661E-08  0.00000000000E+00 0.  1.
       22    1    1    2    0    0  0.95486971368E-02 -0.15071390695E-01  0.30111048579E-01  0.34999995443E-01  0.00000000000E+00 0. -1.
</event>
<event>
 5   0  0.6221259E+05  0.9118800E+02  0.7546771E-02  0.1180000E+00
      -11   -1    0    0    0    0  0.00000000000E+00  0.00000000000E+00  0.34996269501E-01  0.35000000000E-01  0.51099999109E-03 0. -1.
       11   -1    0    0    0    0 -0.00000000000E+00 -0.00000000000E+00 -0.34996269501E-01  0.35000000000E-01  0.51099999109E-03 0.  1.
       22    1    1    2    0    0 -0.39537611184E-02  0.47096564971E-02 -0.34248924853E-01  0.34796579500E-01  0.00000000000E+00 0.  1.
       22    1    1    2    0    0  0.40809992573E-02 -0.49862378172E-02  0.21354939614E-01  0.22305841576E-01  0.00000000000E+00 0. -1.
       22    1    1    2    0    0 -0.12723813888E-03  0.27658132005E-03  0.12893985239E-01  0.12897578925E-01  0.00000000000E+00 0.  1.
</event>
<event>
 5   0  0.6221259E+05  0.9118800E+02  0.7546771E-02  0.1180000E+00
      -11   -1    0    0    0    0  0.00000000000E+00  0.00000000000E+00  0.34996269501E-01  0.35000000000E-01  0.51099999109E-03 0.  1.
       11   -1    0    0    0    0 -0.00000000000E+00 -0.00000000000E+00 -0.34996269501E-01  0.35000000000E-01  0.51099999109E-03 0. -1.
       22    1    1    2    0    0  0.43055382940E-02 -0.70285184978E-03  0.34716225204E-01  0.34989254824E-01  0.00000000000E+00 0.  1.
       22    1    1    2    0    0  0.26732018138E-06  0.19809081650E-06  0.10770161129E-04  0.10775299105E-04  0.00000000000E+00 0. -1.
       22    1    1    2    0    0 -0.43058056142E-02  0.70265375897E-03 -0.34726995365E-01  0.34999969877E-01  0.00000000000E+00 0. -1.
</event>
<event>
 5   0  0.6221259E+05  0.9118800E+02  0.7546771E-02  0.1180000E+00
      -11   -1    0    0    0    0  0.00000000000E+00  0.00000000000E+00  0.34996269501E-01  0.35000000000E-01  0.51099999109E-03 0.  1.
       11   -1    0    0    0    0 -0.00000000000E+00 -0.00000000000E+00 -0.34996269501E-01  0.35000000000E-01  0.51099999109E-03 0. -1.
       22    1    1    2    0    0 -0.12706726220E-03 -0.10032662711E-02  0.88807856433E-02  0.89381789499E-02  0.00000000000E+00 0. -1.
       22    1    1    2    0    0  0.10961416036E-01  0.21998860009E-01 -0.22896655982E-01  0.33591060393E-01  0.00000000000E+00 0. -1.
       22    1    1    2    0    0 -0.10834348774E-01 -0.20995593737E-01  0.14015870338E-01  0.27470760657E-01  0.00000000000E+00 0.  1.
</event>
<event>
 5   0  0.6221259E+05  0.9118800E+02  0.7546771E-02  0.1180000E+00
      -11   -1    0    0    0    0  0.00000000000E+00  0.00000000000E+00  0.34996269501E-01  0.35000000000E-01  0.51099999109E-03 0. -1.
       11   -1    0    0    0    0 -0.00000000000E+00 -0.00000000000E+00 -0.34996269501E-01  0.35000000000E-01  0.51099999109E-03 0.  1.
       22    1    1    2    0    0 -0.32549338461E-02  0.26130988351E-01  0.23012582205E-01  0.34971446729E-01  0.00000000000E+00 0. -1.
       22    1    1    2    0    0 -0.58259207104E-04 -0.44408807114E-04  0.15169621620E-04  0.74809055480E-04  0.00000000000E+00 0. -1.
       22    1    1    2    0    0  0.33131930532E-02 -0.26086579544E-01 -0.23027751826E-01  0.34953744216E-01  0.00000000000E+00 0.  1.
</event>
<event>
 5   0  0.6221259E+05  0.9118800E+02  0.7546771E-02  0.1180000E+00
      -11   -1    0    0    0    0  0.00000000000E+00  0.00000000000E+00  0.34996269501E-01  0.35000000000E-01  0.51099999109E-03 0.  1.
       11   -1    0    0    0    0 -0.00000000000E+00 -0.00000000000E+00 -0.34996269501E-01  0.35000000000E-01  0.51099999109E-03 0. -1.
       22    1    1    2    0    0 -0.40875328657E-02  0.32547913775E-03 -0.34758968071E-01  0.34999996042E-01  0.00000000000E+00 0. -1.
       22    1    1    2    0    0  0.40875159704E-02 -0.32546359050E-03  0.34758946344E-01  0.34999972348E-01  0.00000000000E+00 0.  1.
       22    1    1    2    0    0  0.16895323374E-07 -0.15547240863E-07  0.21726555974E-07  0.31610312951E-07  0.00000000000E+00 0.  1.
</event>
<event>
 5   0  0.6221259E+05  0.9118800E+02  0.7546771E-02  0.1180000E+00
      -11   -1    0    0    0    0  0.00000000000E+00  0.00000000000E+00  0.34996269501E-01  0.35000000000E-01  0.51099999109E-03 0.  1.
       11   -1    0    0    0    0 -0.00000000000E+00 -0.00000000000E+00 -0.34996269501E-01  0.35000000000E-01  0.51099999109E-03 0. -1.
       22    1    1    2    0    0  0.43638892220E-04  0.41553193191E-04 -0.77428824200E-03  0.77662944991E-03  0.00000000000E+00 0. -1.
       22    1    1    2    0    0 -0.19831357114E-01 -0.26139581709E-01 -0.10713190158E-01  0.34515690639E-01  0.00000000000E+00 0. -1.
       22    1    1    2    0    0  0.19787718222E-01  0.26098028516E-01  0.11487478400E-01  0.34707679911E-01  0.00000000000E+00 0.  1.
</event>
<event>
 5   0  0.6221259E+05  0.9118800E+02  0.7546771E-02  0.1180000E+00
      -11   -1    0    0    0    0  0.00000000000E+00  0.00000000000E+00  0.34996269501E-01  0.35000000000E-01  0.51099999109E-03 0. -1.
       11   -1    0    0    0    0 -0.00000000000E+00 -0.00000000000E+00 -0.34996269501E-01  0.35000000000E-01  0.51099999109E-03 0.  1.
       22    1    1    2    0    0 -0.23125908984E-03 -0.60296907884E-03  0.20343736879E-01  0.20353984442E-01  0.00000000000E+00 0. -1.
       22    1    1    2    0    0 -0.10223950430E-01 -0.35497055199E-03  0.11925260801E-01  0.15712002153E-01  0.00000000000E+00 0. -1.
       22    1    1    2    0    0  0.10455209520E-01  0.95793963083E-03 -0.32268997680E-01  0.33934013404E-01  0.00000000000E+00 0.  1.
</event>
<event>
 5   0  0.6221259E+05  0.9118800E+02  0.7546771E-02  0.1180000E+00
      -11   -1    0    0    0    0  0.00000000000E+00  0.00000000000E+00  0.34996269501E-01  0.35000000000E-01  0.51099999109E-03 0.  1.
       11   -1    0    0    0    0 -0.00000000000E+00 -0.00000000000E+00 -0.34996269501E-01  0.35000000000E-01  0.51099999109E-03 0. -1.
       22    1    1    2    0    0 -0.24625695522E-02 -0.36110507862E-02 -0.15987931573E-01  0.16574615910E-01  0.00000000000E+00 0.  1.
       22    1    1    2    0    0  0.72301785771E-02 -0.33619353024E-02 -0.17317749410E-01  0.19065217960E-01  0.00000000000E+00 0. -1.
       22    1    1    2    0    0 -0.47676090249E-02  0.69729860887E-02  0.33305680982E-01  0.34360166130E-01  0.00000000000E+00 0.  1.
</event>
<event>
 5   0  0.6221259E+05  0.9118800E+02  0.7546771E-02  0.1180000E+00
      -11   -1    0    0    0    0  0.00000000000E+00  0.00000000000E+00  0.34996269501E-01  0.35000000000E-01  0.51099999109E-03 0.  1.
       11   -1    0    0    0    0 -0.00000000000E+00 -0.00000000000E+00 -0.34996269501E-01  0.35000000000E-01  0.51099999109E-03 0. -1.
       22    1    1    2    0    0  0.43953711525E-02 -0.53756592204E-03  0.34713783893E-01  0.34995071894E-01  0.00000000000E+00 0.  1.
       22    1    1    2    0    0 -0.43929072652E-02  0.53379693691E-03 -0.34717923705E-01  0.34998811405E-01  0.00000000000E+00 0. -1.
       22    1    1    2    0    0 -0.24638873351E-05  0.37689851322E-05  0.41398115549E-05  0.61167008621E-05  0.00000000000E+00 0. -1.
</event>
<event>
 5   0  0.6221259E+05  0.9118800E+02  0.7546771E-02  0.1180000E+00
      -11   -1    0    0    0    0  0.00000000000E+00  0.00000000000E+00  0.34996269501E-01  0.35000000000E-01  0.51099999109E-03 0.  1.
       11   -1    0    0    0    0 -0.00000000000E+00 -0.00000000000E+00 -0.34996269501E-01  0.35000000000E-01  0.51099999109E-03 0. -1.
       22    1    1    2    0    0 -0.54683984944E-05 -0.40219812789E-05  0.40718239708E-04  0.41280198164E-04  0.00000000000E+00 0.  1.
       22    1    1    2    0    0  0.23910809127E-02 -0.50874932816E-02  0.34504245836E-01  0.34959159551E-01  0.00000000000E+00 0.  1.
       22    1    1    2    0    0 -0.23856125142E-02  0.50915152629E-02 -0.34544964076E-01  0.34999560251E-01  0.00000000000E+00 0. -1.
</event>
<event>
 5   0  0.6221259E+05  0.9118800E+02  0.7546771E-02  0.1180000E+00
      -11   -1    0    0    0    0  0.00000000000E+00  0.00000000000E+00  0.34996269501E-01  0.35000000000E-01  0.51099999109E-03 0. -1.
       11   -1    0    0    0    0 -0.00000000000E+00 -0.00000000000E+00 -0.34996269501E-01  0.35000000000E-01  0.51099999109E-03 0.  1.
       22    1    1    2    0    0 -0.14447819303E-06  0.12294644127E-06  0.70236564569E-06  0.72753506852E-06  0.00000000000E+00 0. -1.
       22    1    1    2    0    0  0.37893172214E-03  0.28268799257E-02  0.34882874073E-01  0.34999282034E-01  0.00000000000E+00 0. -1.
       22    1    1    2    0    0 -0.37878724395E-03 -0.28270028721E-02 -0.34883576438E-01  0.34999990430E-01  0.00000000000E+00 0.  1.
</event>
<event>
 5   0  0.6221259E+05  0.9118800E+02  0.7546771E-02  0.1180000E+00
      -11   -1    0    0    0    0  0.00000000000E+00  0.00000000000E+00  0.34996269501E-01  0.35000000000E-01  0.51099999109E-03 0. -1.
       11   -1    0    0    0    0 -0.00000000000E+00 -0.00000000000E+00 -0.34996269501E-01  0.35000000000E-01  0.51099999109E-03 0.  1.
       22    1    1    2    0    0  0.79960779198E-03 -0.91969639052E-04  0.34895572193E-01  0.34904853383E-01  0.00000000000E+00 0. -1.
       22    1    1    2    0    0 -0.79885584804E-03  0.93928868531E-04 -0.34990725840E-01  0.34999969831E-01  0.00000000000E+00 0.  1.
       22    1    1    2    0    0 -0.75194394055E-06 -0.19592294792E-05  0.95153647756E-04  0.95176786461E-04  0.00000000000E+00 0. -1.
</event>
<event>
 5   0  0.6221259E+05  0.9118800E+02  0.7546771E-02  0.1180000E+00
      -11   -1    0    0    0    0  0.00000000000E+00  0.00000000000E+00  0.34996269501E-01  0.35000000000E-01  0.51099999109E-03 0.  1.
       11   -1    0    0    0    0 -0.00000000000E+00 -0.00000000000E+00 -0.34996269501E-01  0.35000000000E-01  0.51099999109E-03 0. -1.
       22    1    1    2    0    0 -0.78074743609E-02  0.61967038240E-02  0.28586448878E-01  0.30274425736E-01  0.00000000000E+00 0.  1.
       22    1    1    2    0    0  0.73703507803E-02 -0.63594494698E-02 -0.33451013202E-01  0.34838699063E-01  0.00000000000E+00 0. -1.
       22    1    1    2    0    0  0.43712358059E-03  0.16274564577E-03  0.48645643237E-02  0.48868752009E-02  0.00000000000E+00 0. -1.
</event>
<event>
 5   0  0.6221259E+05  0.9118800E+02  0.7546771E-02  0.1180000E+00
      -11   -1    0    0    0    0  0.00000000000E+00  0.00000000000E+00  0.34996269501E-01  0.35000000000E-01  0.51099999109E-03 0. -1.
       11   -1    0    0    0    0 -0.00000000000E+00 -0.00000000000E+00 -0.34996269501E-01  0.35000000000E-01  0.51099999109E-03 0.  1.
       22    1    1    2    0    0  0.59878545786E-02 -0.55011047768E-02 -0.33735352166E-01  0.34701448701E-01  0.00000000000E+00 0.  1.
       22    1    1    2    0    0 -0.59526151185E-02  0.53690548737E-02  0.34036547248E-01  0.34967798409E-01  0.00000000000E+00 0. -1.
       22    1    1    2    0    0 -0.35239460096E-04  0.13204990303E-03 -0.30119508259E-03  0.33075288996E-03  0.00000000000E+00 0.  1.
</event>
<event>
 5   0  0.6221259E+05  0.9118800E+02  0.7546771E-02  0.1180000E+00
      -11   -1    0    0    0    0  0.00000000000E+00  0.00000000000E+00  0.34996269501E-01  0.35000000000E-01  0.51099999109E-03 0. -1.
       11   -1    0    0    0    0 -0.00000000000E+00 -0.00000000000E+00 -0.34996269501E-01  0.35000000000E-01  0.51099999109E-03 0. -1.
       22    1    1    2    0    0  0.66952791779E-03 -0.23923177357E-03  0.34992642082E-01  0.34999864277E-01  0.00000000000E+00 0. -1.
       22    1    1    2    0    0 -0.66954028879E-03  0.23911510421E-03 -0.34992752797E-01  0.34999974408E-01  0.00000000000E+00 0. -1.
       22    1    1    2    0    0  0.12370996013E-07  0.11666936188E-06  0.11071506857E-06  0.16131524402E-06  0.00000000000E+00 0. -1.
</event>
<event>
 5   0  0.6221259E+05  0.9118800E+02  0.7546771E-02  0.1180000E+00
      -11   -1    0    0    0    0  0.00000000000E+00  0.00000000000E+00  0.34996269501E-01  0.35000000000E-01  0.51099999109E-03 0. -1.
       11   -1    0    0    0    0 -0.00000000000E+00 -0.00000000000E+00 -0.34996269501E-01  0.35000000000E-01  0.51099999109E-03 0.  1.
       22    1    1    2    0    0  0.14175973327E-01 -0.56480178998E-02  0.28836363900E-01  0.32625054926E-01  0.00000000000E+00 0. -1.
       22    1    1    2    0    0  0.25540136253E-03 -0.55156882236E-02 -0.62446589478E-02  0.83356950406E-02  0.00000000000E+00 0. -1.
       22    1    1    2    0    0 -0.14431374689E-01  0.11163706123E-01 -0.22591704952E-01  0.29039250033E-01  0.00000000000E+00 0.  1.
</event>
<event>
 5   0  0.6221259E+05  0.9118800E+02  0.7546771E-02  0.1180000E+00
      -11   -1    0    0    0    0  0.00000000000E+00  0.00000000000E+00  0.34996269501E-01  0.35000000000E-01  0.51099999109E-03 0.  1.
       11   -1    0    0    0    0 -0.00000000000E+00 -0.00000000000E+00 -0.34996269501E-01  0.35000000000E-01  0.51099999109E-03 0. -1.
       22    1    1    2    0    0 -0.37527528534E-02  0.19892663607E-02 -0.90280643185E-03  0.43422798258E-02  0.00000000000E+00 0.  1.
       22    1    1    2    0    0 -0.39456009592E-02  0.25894984623E-02  0.32486989468E-01  0.32828002588E-01  0.00000000000E+00 0.  1.
       22    1    1    2    0    0  0.76983538126E-02 -0.45787648230E-02 -0.31584183036E-01  0.32829717586E-01  0.00000000000E+00 0. -1.
</event>
<event>
 5   0  0.6221259E+05  0.9118800E+02  0.7546771E-02  0.1180000E+00
      -11   -1    0    0    0    0  0.00000000000E+00  0.00000000000E+00  0.34996269501E-01  0.35000000000E-01  0.51099999109E-03 0. -1.
       11   -1    0    0    0    0 -0.00000000000E+00 -0.00000000000E+00 -0.34996269501E-01  0.35000000000E-01  0.51099999109E-03 0.  1.
       22    1    1    2    0    0  0.59278358554E-02 -0.15175385133E-03  0.52223455043E-02  0.79015922272E-02  0.00000000000E+00 0.  1.
       22    1    1    2    0    0 -0.73634906072E-02 -0.21604963409E-02  0.27863440035E-01  0.28900865540E-01  0.00000000000E+00 0. -1.
       22    1    1    2    0    0  0.14356547518E-02  0.23122501923E-02 -0.33085785540E-01  0.33197542233E-01  0.00000000000E+00 0.  1.
</event>
<event>
 5   0  0.6221259E+05  0.9118800E+02  0.7546771E-02  0.1180000E+00
      -11   -1    0    0    0    0  0.00000000000E+00  0.00000000000E+00  0.34996269501E-01  0.35000000000E-01  0.51099999109E-03 0.  1.
       11   -1    0    0    0    0 -0.00000000000E+00 -0.00000000000E+00 -0.34996269501E-01  0.35000000000E-01  0.51099999109E-03 0. -1.
       22    1    1    2    0    0 -0.74051471939E-07  0.17893808318E-06  0.14187230026E-05  0.14318789809E-05  0.00000000000E+00 0. -1.
       22    1    1    2    0    0  0.91592943232E-03  0.92854913844E-03  0.34974262492E-01  0.34998573787E-01  0.00000000000E+00 0.  1.
       22    1    1    2    0    0 -0.91585538085E-03 -0.92872807652E-03 -0.34975681215E-01  0.34999994334E-01  0.00000000000E+00 0. -1.
</event>
<event>
 5   0  0.6221259E+05  0.9118800E+02  0.7546771E-02  0.1180000E+00
      -11   -1    0    0    0    0  0.00000000000E+00  0.00000000000E+00  0.34996269501E-01  0.35000000000E-01  0.51099999109E-03 0. -1.
       11   -1    0    0    0    0 -0.00000000000E+00 -0.00000000000E+00 -0.34996269501E-01  0.35000000000E-01  0.51099999109E-03 0. -1.
       22    1    1    2    0    0  0.16112781894E-02  0.80362683375E-03  0.20330821713E-01  0.20410397963E-01  0.00000000000E+00 0.  1.
       22    1    1    2    0    0 -0.16112781894E-02 -0.80362683375E-03 -0.34937438537E-01  0.34983805468E-01  0.00000000000E+00 0. -1.
       22    1    1    2    0    0 -0.00000000000E+00 -0.00000000000E+00  0.14606616825E-01  0.14605796569E-01  0.00000000000E+00 0. -1.
</event>
<event>
 5   0  0.6221259E+05  0.9118800E+02  0.7546771E-02  0.1180000E+00
      -11   -1    0    0    0    0  0.00000000000E+00  0.00000000000E+00  0.34996269501E-01  0.35000000000E-01  0.51099999109E-03 0. -1.
       11   -1    0    0    0    0 -0.00000000000E+00 -0.00000000000E+00 -0.34996269501E-01  0.35000000000E-01  0.51099999109E-03 0. -1.
       22    1    1    2    0    0 -0.73733033301E-03  0.61751147836E-03 -0.15126824603E-02  0.17925358215E-02  0.00000000000E+00 0.  1.
       22    1    1    2    0    0  0.10665338211E-02 -0.44364956648E-03 -0.33336393105E-01  0.33356400054E-01  0.00000000000E+00 0. -1.
       22    1    1    2    0    0 -0.32920348807E-03 -0.17386191188E-03  0.34849075565E-01  0.34851064125E-01  0.00000000000E+00 0. -1.
</event>
<event>
 5   0  0.6221259E+05  0.9118800E+02  0.7546771E-02  0.1180000E+00
      -11   -1    0    0    0    0  0.00000000000E+00  0.00000000000E+00  0.34996269501E-01  0.35000000000E-01  0.51099999109E-03 0. -1.
       11   -1    0    0    0    0 -0.00000000000E+00 -0.00000000000E+00 -0.34996269501E-01  0.35000000000E-01  0.51099999109E-03 0.  1.
       22    1    1    2    0    0 -0.15415298081E-02 -0.44976463437E-02 -0.34675381419E-01  0.34999817333E-01  0.00000000000E+00 0.  1.
       22    1    1    2    0    0  0.11791624838E-05 -0.64513614298E-06  0.27724758828E-05  0.30811113785E-05  0.00000000000E+00 0.  1.
       22    1    1    2    0    0  0.15403506456E-02  0.44982914798E-02  0.34672608943E-01  0.34997101556E-01  0.00000000000E+00 0. -1.
</event>
<event>
 5   0  0.6221259E+05  0.9118800E+02  0.7546771E-02  0.1180000E+00
      -11   -1    0    0    0    0  0.00000000000E+00  0.00000000000E+00  0.34996269501E-01  0.35000000000E-01  0.51099999109E-03 0.  1.
       11   -1    0    0    0    0 -0.00000000000E+00 -0.00000000000E+00 -0.34996269501E-01  0.35000000000E-01  0.51099999109E-03 0.  1.
       22    1    1    2    0    0  0.59915150425E-03  0.26983606233E-03 -0.34468623760E-01  0.34474886772E-01  0.00000000000E+00 0.  1.
       22    1    1    2    0    0 -0.57973609992E-03 -0.46000899825E-03  0.34975530522E-01  0.34983359438E-01  0.00000000000E+00 0.  1.
       22    1    1    2    0    0 -0.19415404336E-04  0.19017293592E-03 -0.50690676237E-03  0.54175379022E-03  0.00000000000E+00 0.  1.
</event>
<event>
 5   0  0.6221259E+05  0.9118800E+02  0.7546771E-02  0.1180000E+00
      -11   -1    0    0    0    0  0.00000000000E+00  0.00000000000E+00  0.34996269501E-01  0.35000000000E-01  0.51099999109E-03 0.  1.
       11   -1    0    0    0    0 -0.00000000000E+00 -0.00000000000E+00 -0.34996269501E-01  0.35000000000E-01  0.51099999109E-03 0. -1.
       22    1    1    2    0    0  0.20502515948E-01  0.27350680091E-01 -0.74263462946E-02  0.34979472279E-01  0.00000000000E+00 0. -1.
       22    1    1    2    0    0  0.20756890808E-06 -0.11214240503E-05 -0.34459445428E-04  0.34478312834E-04  0.00000000000E+00 0. -1.
       22    1    1    2    0    0 -0.20502723517E-01 -0.27349558667E-01  0.74608057401E-02  0.34986049408E-01  0.00000000000E+00 0.  1.
</event>
<event>
 5   0  0.6221259E+05  0.9118800E+02  0.7546771E-02  0.1180000E+00
      -11   -1    0    0    0    0  0.00000000000E+00  0.00000000000E+00  0.34996269501E-01  0.35000000000E-01  0.51099999109E-03 0.  1.
       11   -1    0    0    0    0 -0.00000000000E+00 -0.00000000000E+00 -0.34996269501E-01  0.35000000000E-01  0.51099999109E-03 0. -1.
       22    1    1    2    0    0 -0.75390761298E-03  0.98208743041E-02 -0.33585442786E-01  0.34999998799E-01  0.00000000000E+00 0. -1.
       22    1    1    2    0    0  0.75390659348E-03 -0.98208767142E-02  0.33585401582E-01  0.34999959914E-01  0.00000000000E+00 0.  1.
       22    1    1    2    0    0  0.10195003165E-08  0.24100664530E-08  0.41204148892E-07  0.41287161287E-07  0.00000000000E+00 0. -1.
</event>
<event>
 5   0  0.6221259E+05  0.9118800E+02  0.7546771E-02  0.1180000E+00
      -11   -1    0    0    0    0  0.00000000000E+00  0.00000000000E+00  0.34996269501E-01  0.35000000000E-01  0.51099999109E-03 0. -1.
       11   -1    0    0    0    0 -0.00000000000E+00 -0.00000000000E+00 -0.34996269501E-01  0.35000000000E-01  0.51099999109E-03 0.  1.
       22    1    1    2    0    0  0.71886649406E-02  0.12619250697E-02  0.34146808736E-01  0.34918102832E-01  0.00000000000E+00 0. -1.
       22    1    1    2    0    0 -0.71863425350E-02 -0.12604372040E-02 -0.34229863418E-01  0.34998796702E-01  0.00000000000E+00 0.  1.
       22    1    1    2    0    0 -0.23224056711E-05 -0.14878656276E-05  0.83054681544E-04  0.83100465935E-04  0.00000000000E+00 0. -1.
</event>
<event>
 5   0  0.6221259E+05  0.9118800E+02  0.7546771E-02  0.1180000E+00
      -11   -1    0    0    0    0  0.00000000000E+00  0.00000000000E+00  0.34996269501E-01  0.35000000000E-01  0.51099999109E-03 0.  1.
       11   -1    0    0    0    0 -0.00000000000E+00 -0.00000000000E+00 -0.34996269501E-01  0.35000000000E-01  0.51099999109E-03 0.  1.
       22    1    1    2    0    0 -0.14708507728E-02  0.95322561284E-02 -0.33644798897E-01  0.34999997168E-01  0.00000000000E+00 0.  1.
       22    1    1    2    0    0  0.14708728872E-02 -0.95319615800E-02  0.33643403178E-01  0.34998576199E-01  0.00000000000E+00 0.  1.
       22    1    1    2    0    0 -0.22114405147E-07 -0.29454843080E-06  0.13957197680E-05  0.14266329226E-05  0.00000000000E+00 0. -1.
</event>
<event>
 5   0  0.6221259E+05  0.9118800E+02  0.7546771E-02  0.1180000E+00
      -11   -1    0    0    0    0  0.00000000000E+00  0.00000000000E+00  0.34996269501E-01  0.35000000000E-01  0.51099999109E-03 0. -1.
       11   -1    0    0    0    0 -0.00000000000E+00 -0.00000000000E+00 -0.34996269501E-01  0.35000000000E-01  0.51099999109E-03 0. -1.
       22    1    1    2    0    0  0.24123414843E-04 -0.42821197792E-03 -0.34997367385E-01  0.34999995305E-01  0.00000000000E+00 0. -1.
       22    1    1    2    0    0  0.61143671107E-08 -0.19078599065E-07  0.17352680292E-07  0.26504602256E-07  0.00000000000E+00 0. -1.
       22    1    1    2    0    0 -0.24129529210E-04  0.42823105652E-03  0.34997350032E-01  0.34999978191E-01  0.00000000000E+00 0. -1.
</event>
<event>
 5   0  0.6221259E+05  0.9118800E+02  0.7546771E-02  0.1180000E+00
      -11   -1    0    0    0    0  0.00000000000E+00  0.00000000000E+00  0.34996269501E-01  0.35000000000E-01  0.51099999109E-03 0. -1.
       11   -1    0    0    0    0 -0.00000000000E+00 -0.00000000000E+00 -0.34996269501E-01  0.35000000000E-01  0.51099999109E-03 0.  1.
       22    1    1    2    0    0 -0.23589685154E-01 -0.11357717659E-01 -0.23163565786E-01  0.34957428052E-01  0.00000000000E+00 0.  1.
       22    1    1    2    0    0  0.23611329919E-01  0.11402632330E-01  0.23171722368E-01  0.34992051128E-01  0.00000000000E+00 0. -1.
       22    1    1    2    0    0 -0.21644765398E-04 -0.44914670361E-04 -0.81565824103E-05  0.50520820652E-04  0.00000000000E+00 0.  1.
</event>
<event>
 5   0  0.6221259E+05  0.9118800E+02  0.7546771E-02  0.1180000E+00
      -11   -1    0    0    0    0  0.00000000000E+00  0.00000000000E+00  0.34996269501E-01  0.35000000000E-01  0.51099999109E-03 0.  1.
       11   -1    0    0    0    0 -0.00000000000E+00 -0.00000000000E+00 -0.34996269501E-01  0.35000000000E-01  0.51099999109E-03 0. -1.
       22    1    1    2    0    0 -0.29736480006E-02 -0.10337268980E-02  0.34855169126E-01  0.34997056855E-01  0.00000000000E+00 0.  1.
       22    1    1    2    0    0 -0.39622429800E-05  0.97252625260E-06  0.13011046048E-05  0.42822949382E-05  0.00000000000E+00 0. -1.
       22    1    1    2    0    0  0.29776102435E-02  0.10327543717E-02 -0.34856470230E-01  0.34998660850E-01  0.00000000000E+00 0. -1.
</event>
<event>
 5   0  0.6221259E+05  0.9118800E+02  0.7546771E-02  0.1180000E+00
      -11   -1    0    0    0    0  0.00000000000E+00  0.00000000000E+00  0.34996269501E-01  0.35000000000E-01  0.51099999109E-03 0. -1.
       11   -1    0    0    0    0 -0.00000000000E+00 -0.00000000000E+00 -0.34996269501E-01  0.35000000000E-01  0.51099999109E-03 0.  1.
       22    1    1    2    0    0  0.20286879711E-02  0.82992513757E-02 -0.33759878700E-01  0.34824166295E-01  0.00000000000E+00 0.  1.
       22    1    1    2    0    0 -0.19552321946E-02 -0.82688784615E-02  0.33935493548E-01  0.34983067422E-01  0.00000000000E+00 0. -1.
       22    1    1    2    0    0 -0.73455776548E-04 -0.30372914259E-04 -0.17561484805E-03  0.19276628306E-03  0.00000000000E+00 0. -1.
</event>
<event>
 5   0  0.6221259E+05  0.9118800E+02  0.7546771E-02  0.1180000E+00
      -11   -1    0    0    0    0  0.00000000000E+00  0.00000000000E+00  0.34996269501E-01  0.35000000000E-01  0.51099999109E-03 0. -1.
       11   -1    0    0    0    0 -0.00000000000E+00 -0.00000000000E+00 -0.34996269501E-01  0.35000000000E-01  0.51099999109E-03 0.  1.
       22    1    1    2    0    0  0.14085473021E-04  0.10310598566E-03  0.22469811306E-02  0.22493895719E-02  0.00000000000E+00 0. -1.
       22    1    1    2    0    0 -0.77944317224E-03  0.52912794672E-03 -0.34984930974E-01  0.34997612823E-01  0.00000000000E+00 0.  1.
       22    1    1    2    0    0  0.76535769922E-03 -0.63223393238E-03  0.32737949844E-01  0.32752997605E-01  0.00000000000E+00 0. -1.
</event>
<event>
 5   0  0.6221259E+05  0.9118800E+02  0.7546771E-02  0.1180000E+00
      -11   -1    0    0    0    0  0.00000000000E+00  0.00000000000E+00  0.34996269501E-01  0.35000000000E-01  0.51099999109E-03 0. -1.
       11   -1    0    0    0    0 -0.00000000000E+00 -0.00000000000E+00 -0.34996269501E-01  0.35000000000E-01  0.51099999109E-03 0.  1.
       22    1    1    2    0    0  0.21190382242E-03 -0.15931054597E-02 -0.34963079591E-01  0.34999997468E-01  0.00000000000E+00 0.  1.
       22    1    1    2    0    0 -0.21190481020E-03  0.15930930133E-02  0.34963068513E-01  0.34999985841E-01  0.00000000000E+00 0. -1.
       22    1    1    2    0    0  0.98777502754E-09  0.12446358214E-07  0.11077682720E-07  0.16691392594E-07  0.00000000000E+00 0.  1.
</event>
<event>
 5   0  0.6221259E+05  0.9118800E+02  0.7546771E-02  0.1180000E+00
      -11   -1    0    0    0    0  0.00000000000E+00  0.00000000000E+00  0.34996269501E-01  0.35000000000E-01  0.51099999109E-03 0.  1.
       11   -1    0    0    0    0 -0.00000000000E+00 -0.00000000000E+00 -0.34996269501E-01  0.35000000000E-01  0.51099999109E-03 0.  1.
       22    1    1    2    0    0 -0.13124196291E-03 -0.53678041887E-03 -0.34995633142E-01  0.34999995667E-01  0.00000000000E+00 0.  1.
       22    1    1    2    0    0  0.13216846608E-03  0.52741753206E-03  0.34378981042E-01  0.34383280461E-01  0.00000000000E+00 0.  1.
       22    1    1    2    0    0 -0.92650316932E-06  0.93628868055E-05  0.61665210026E-03  0.61672387242E-03  0.00000000000E+00 0.  1.
</event>
<event>
 5   0  0.6221259E+05  0.9118800E+02  0.7546771E-02  0.1180000E+00
      -11   -1    0    0    0    0  0.00000000000E+00  0.00000000000E+00  0.34996269501E-01  0.35000000000E-01  0.51099999109E-03 0.  1.
       11   -1    0    0    0    0 -0.00000000000E+00 -0.00000000000E+00 -0.34996269501E-01  0.35000000000E-01  0.51099999109E-03 0. -1.
       22    1    1    2    0    0 -0.52789325934E-02 -0.77279051808E-02 -0.33717612318E-01  0.34992356712E-01  0.00000000000E+00 0. -1.
       22    1    1    2    0    0  0.52892258446E-02  0.76624319252E-02  0.33644141054E-01  0.34908695196E-01  0.00000000000E+00 0.  1.
       22    1    1    2    0    0 -0.10293251209E-04  0.65473255626E-04  0.73471264586E-04  0.98948092162E-04  0.00000000000E+00 0. -1.
</event>
<event>
 5   0  0.6221259E+05  0.9118800E+02  0.7546771E-02  0.1180000E+00
      -11   -1    0    0    0    0  0.00000000000E+00  0.00000000000E+00  0.34996269501E-01  0.35000000000E-01  0.51099999109E-03 0. -1.
       11   -1    0    0    0    0 -0.00000000000E+00 -0.00000000000E+00 -0.34996269501E-01  0.35000000000E-01  0.51099999109E-03 0.  1.
       22    1    1    2    0    0  0.22237610949E-01 -0.22027700623E-01  0.14325430454E-01  0.34423086630E-01  0.00000000000E+00 0. -1.
       22    1    1    2    0    0 -0.20826371909E-01  0.21672231413E-01 -0.15395559781E-01  0.33770499586E-01  0.00000000000E+00 0.  1.
       22    1    1    2    0    0 -0.14112390394E-02  0.35546920995E-03  0.10701293262E-02  0.18064137844E-02  0.00000000000E+00 0. -1.
</event>
<event>
 5   0  0.6221259E+05  0.9118800E+02  0.7546771E-02  0.1180000E+00
      -11   -1    0    0    0    0  0.00000000000E+00  0.00000000000E+00  0.34996269501E-01  0.35000000000E-01  0.51099999109E-03 0. -1.
       11   -1    0    0    0    0 -0.00000000000E+00 -0.00000000000E+00 -0.34996269501E-01  0.35000000000E-01  0.51099999109E-03 0.  1.
       22    1    1    2    0    0  0.19883549333E-01 -0.25486044660E-01  0.13330486380E-01  0.34965638470E-01  0.00000000000E+00 0. -1.
       22    1    1    2    0    0  0.74060584084E-05 -0.21710237164E-05  0.45068557728E-04  0.45724587924E-04  0.00000000000E+00 0. -1.
       22    1    1    2    0    0 -0.19890955392E-01  0.25488215684E-01 -0.13375554938E-01  0.34988636942E-01  0.00000000000E+00 0.  1.
</event>
<event>
 5   0  0.6221259E+05  0.9118800E+02  0.7546771E-02  0.1180000E+00
      -11   -1    0    0    0    0  0.00000000000E+00  0.00000000000E+00  0.34996269501E-01  0.35000000000E-01  0.51099999109E-03 0. -1.
       11   -1    0    0    0    0 -0.00000000000E+00 -0.00000000000E+00 -0.34996269501E-01  0.35000000000E-01  0.51099999109E-03 0.  1.
       22    1    1    2    0    0 -0.57282304842E-02  0.22643869197E-02 -0.34280218593E-01  0.34829204117E-01  0.00000000000E+00 0.  1.
       22    1    1    2    0    0  0.62057350927E-02 -0.27739288976E-02  0.26449679475E-01  0.27309181128E-01  0.00000000000E+00 0. -1.
       22    1    1    2    0    0 -0.47750460850E-03  0.50954197781E-03  0.78305391180E-02  0.78616147551E-02  0.00000000000E+00 0. -1.
</event>
<event>
 5   0  0.6221259E+05  0.9118800E+02  0.7546771E-02  0.1180000E+00
      -11   -1    0    0    0    0  0.00000000000E+00  0.00000000000E+00  0.34996269501E-01  0.35000000000E-01  0.51099999109E-03 0.  1.
       11   -1    0    0    0    0 -0.00000000000E+00 -0.00000000000E+00 -0.34996269501E-01  0.35000000000E-01  0.51099999109E-03 0. -1.
       22    1    1    2    0    0 -0.11308637409E-03  0.52851820303E-03  0.34709446447E-01  0.34713654269E-01  0.00000000000E+00 0.  1.
       22    1    1    2    0    0 -0.20489389394E-04 -0.29075518643E-04  0.28543642539E-03  0.28764414439E-03  0.00000000000E+00 0. -1.
       22    1    1    2    0    0  0.13357576348E-03 -0.49944268438E-03 -0.34994882873E-01  0.34998701587E-01  0.00000000000E+00 0. -1.
</event>
<event>
 5   0  0.6221259E+05  0.9118800E+02  0.7546771E-02  0.1180000E+00
      -11   -1    0    0    0    0  0.00000000000E+00  0.00000000000E+00  0.34996269501E-01  0.35000000000E-01  0.51099999109E-03 0. -1.
       11   -1    0    0    0    0 -0.00000000000E+00 -0.00000000000E+00 -0.34996269501E-01  0.35000000000E-01  0.51099999109E-03 0.  1.
       22    1    1    2    0    0 -0.28318537215E-02  0.82860684120E-02  0.33122914161E-01  0.34260848905E-01  0.00000000000E+00 0. -1.
       22    1    1    2    0    0  0.31969108124E-03  0.49753823478E-03  0.57497021256E-03  0.82482569542E-03  0.00000000000E+00 0. -1.
       22    1    1    2    0    0  0.25121626403E-02 -0.87836066468E-02 -0.33697884373E-01  0.34914325399E-01  0.00000000000E+00 0.  1.
</event>
<event>
 5   0  0.6221259E+05  0.9118800E+02  0.7546771E-02  0.1180000E+00
      -11   -1    0    0    0    0  0.00000000000E+00  0.00000000000E+00  0.34996269501E-01  0.35000000000E-01  0.51099999109E-03 0. -1.
       11   -1    0    0    0    0 -0.00000000000E+00 -0.00000000000E+00 -0.34996269501E-01  0.35000000000E-01  0.51099999109E-03 0. -1.
       22    1    1    2    0    0  0.00000000000E+00 -0.00000000000E+00  0.34990455402E-01  0.34990382142E-01  0.00000000000E+00 0. -1.
       22    1    1    2    0    0  0.12398628393E-04  0.16773055014E-04 -0.34988677916E-01  0.34988684134E-01  0.00000000000E+00 0. -1.
       22    1    1    2    0    0 -0.12398628393E-04 -0.16773055014E-04 -0.17774855788E-05  0.20933724359E-04  0.00000000000E+00 0. -1.
</event>
<event>
 5   0  0.6221259E+05  0.9118800E+02  0.7546771E-02  0.1180000E+00
      -11   -1    0    0    0    0  0.00000000000E+00  0.00000000000E+00  0.34996269501E-01  0.35000000000E-01  0.51099999109E-03 0.  1.
       11   -1    0    0    0    0 -0.00000000000E+00 -0.00000000000E+00 -0.34996269501E-01  0.35000000000E-01  0.51099999109E-03 0.  1.
       22    1    1    2    0    0 -0.12359846061E-02  0.11141753488E-02 -0.18388672924E-01  0.18463811539E-01  0.00000000000E+00 0.  1.
       22    1    1    2    0    0 -0.36739869233E-03  0.18227869250E-03  0.34897089075E-01  0.34899499040E-01  0.00000000000E+00 0.  1.
       22    1    1    2    0    0  0.16033832985E-02 -0.12964540413E-02 -0.16508416151E-01  0.16636689421E-01  0.00000000000E+00 0. -1.
</event>
<event>
 5   0  0.6221259E+05  0.9118800E+02  0.7546771E-02  0.1180000E+00
      -11   -1    0    0    0    0  0.00000000000E+00  0.00000000000E+00  0.34996269501E-01  0.35000000000E-01  0.51099999109E-03 0. -1.
       11   -1    0    0    0    0 -0.00000000000E+00 -0.00000000000E+00 -0.34996269501E-01  0.35000000000E-01  0.51099999109E-03 0.  1.
       22    1    1    2    0    0  0.65426938973E-03 -0.32126285073E-03 -0.34974903618E-01  0.34982497929E-01  0.00000000000E+00 0.  1.
       22    1    1    2    0    0 -0.68425820620E-03  0.32061923552E-03  0.34979058762E-01  0.34987219922E-01  0.00000000000E+00 0. -1.
       22    1    1    2    0    0  0.29988816466E-04  0.64361520074E-06 -0.41551436263E-05  0.30282149397E-04  0.00000000000E+00 0. -1.
</event>
<event>
 5   0  0.6221259E+05  0.9118800E+02  0.7546771E-02  0.1180000E+00
      -11   -1    0    0    0    0  0.00000000000E+00  0.00000000000E+00  0.34996269501E-01  0.35000000000E-01  0.51099999109E-03 0.  1.
       11   -1    0    0    0    0 -0.00000000000E+00 -0.00000000000E+00 -0.34996269501E-01  0.35000000000E-01  0.51099999109E-03 0. -1.
       22    1    1    2    0    0  0.79154946632E-02  0.11219561742E-02  0.33693024659E-01  0.34628510682E-01  0.00000000000E+00 0.  1.
       22    1    1    2    0    0 -0.79275081577E-02 -0.11088100120E-02 -0.34068166164E-01  0.34995925349E-01  0.00000000000E+00 0. -1.
       22    1    1    2    0    0  0.12013494518E-04 -0.13146162209E-04  0.37514150561E-03  0.37556396907E-03  0.00000000000E+00 0. -1.
</event>
<event>
 5   0  0.6221259E+05  0.9118800E+02  0.7546771E-02  0.1180000E+00
      -11   -1    0    0    0    0  0.00000000000E+00  0.00000000000E+00  0.34996269501E-01  0.35000000000E-01  0.51099999109E-03 0.  1.
       11   -1    0    0    0    0 -0.00000000000E+00 -0.00000000000E+00 -0.34996269501E-01  0.35000000000E-01  0.51099999109E-03 0. -1.
       22    1    1    2    0    0  0.18336204642E-07 -0.35234311830E-07  0.23439815477E-06  0.23773970659E-06  0.00000000000E+00 0.  1.
       22    1    1    2    0    0  0.70582208818E-02 -0.70432296584E-02 -0.33549569288E-01  0.34999988078E-01  0.00000000000E+00 0. -1.
       22    1    1    2    0    0 -0.70582392180E-02  0.70432648927E-02  0.33549334890E-01  0.34999774182E-01  0.00000000000E+00 0.  1.
</event>
<event>
 5   0  0.6221259E+05  0.9118800E+02  0.7546771E-02  0.1180000E+00
      -11   -1    0    0    0    0  0.00000000000E+00  0.00000000000E+00  0.34996269501E-01  0.35000000000E-01  0.51099999109E-03 0.  1.
       11   -1    0    0    0    0 -0.00000000000E+00 -0.00000000000E+00 -0.34996269501E-01  0.35000000000E-01  0.51099999109E-03 0.  1.
       22    1    1    2    0    0 -0.28209524902E-06 -0.17549723356E-06  0.34999889719E-01  0.34999187783E-01  0.00000000000E+00 0.  1.
       22    1    1    2    0    0  0.17863526511E-10  0.11113265804E-10 -0.35000667959E-01  0.34999966037E-01  0.00000000000E+00 0.  1.
       22    1    1    2    0    0  0.28207738549E-06  0.17548612030E-06  0.77823955258E-06  0.84617955011E-06  0.00000000000E+00 0.  1.
</event>
<event>
 5   0  0.6221259E+05  0.9118800E+02  0.7546771E-02  0.1180000E+00
      -11   -1    0    0    0    0  0.00000000000E+00  0.00000000000E+00  0.34996269501E-01  0.35000000000E-01  0.51099999109E-03 0. -1.
       11   -1    0    0    0    0 -0.00000000000E+00 -0.00000000000E+00 -0.34996269501E-01  0.35000000000E-01  0.51099999109E-03 0.  1.
       22    1    1    2    0    0 -0.14745823384E-04  0.41126763875E-04  0.40928332268E-03  0.41160865909E-03  0.00000000000E+00 0.  1.
       22    1    1    2    0    0 -0.91835938882E-02  0.41510389204E-02 -0.33502602640E-01  0.34985624255E-01  0.00000000000E+00 0.  1.
       22    1    1    2    0    0  0.91983397116E-02 -0.41921656843E-02  0.33093319318E-01  0.34602767086E-01  0.00000000000E+00 0. -1.
</event>
<event>
 5   0  0.6221259E+05  0.9118800E+02  0.7546771E-02  0.1180000E+00
      -11   -1    0    0    0    0  0.00000000000E+00  0.00000000000E+00  0.34996269501E-01  0.35000000000E-01  0.51099999109E-03 0. -1.
       11   -1    0    0    0    0 -0.00000000000E+00 -0.00000000000E+00 -0.34996269501E-01  0.35000000000E-01  0.51099999109E-03 0.  1.
       22    1    1    2    0    0 -0.26440612725E-03  0.40004688131E-03  0.27618485950E-01  0.27622648574E-01  0.00000000000E+00 0. -1.
       22    1    1    2    0    0  0.48693990667E-03 -0.77332415846E-03 -0.34985548679E-01  0.34997482154E-01  0.00000000000E+00 0.  1.
       22    1    1    2    0    0 -0.22253377942E-03  0.37327727716E-03  0.73670627296E-02  0.73798692719E-02  0.00000000000E+00 0. -1.
</event>
<event>
 5   0  0.6221259E+05  0.9118800E+02  0.7546771E-02  0.1180000E+00
      -11   -1    0    0    0    0  0.00000000000E+00  0.00000000000E+00  0.34996269501E-01  0.35000000000E-01  0.51099999109E-03 0. -1.
       11   -1    0    0    0    0 -0.00000000000E+00 -0.00000000000E+00 -0.34996269501E-01  0.35000000000E-01  0.51099999109E-03 0.  1.
       22    1    1    2    0    0 -0.40973565402E-07  0.12493845999E-07  0.25111225816E-06  0.25473966210E-06  0.00000000000E+00 0. -1.
       22    1    1    2    0    0 -0.88368631325E-03 -0.29254295033E-03 -0.34987617160E-01  0.34999997677E-01  0.00000000000E+00 0.  1.
       22    1    1    2    0    0  0.88372728681E-03  0.29253045649E-03  0.34987366047E-01  0.34999747584E-01  0.00000000000E+00 0. -1.
</event>
<event>
 5   0  0.6221259E+05  0.9118800E+02  0.7546771E-02  0.1180000E+00
      -11   -1    0    0    0    0  0.00000000000E+00  0.00000000000E+00  0.34996269501E-01  0.35000000000E-01  0.51099999109E-03 0.  1.
       11   -1    0    0    0    0 -0.00000000000E+00 -0.00000000000E+00 -0.34996269501E-01  0.35000000000E-01  0.51099999109E-03 0. -1.
       22    1    1    2    0    0 -0.87600160482E-03  0.32358652188E-02 -0.34839075207E-01  0.34999990912E-01  0.00000000000E+00 0. -1.
       22    1    1    2    0    0  0.87603560002E-03 -0.32359533504E-02  0.34837912267E-01  0.34998842318E-01  0.00000000000E+00 0.  1.
       22    1    1    2    0    0 -0.33995207971E-07  0.88131617414E-07  0.11629402463E-05  0.11667702742E-05  0.00000000000E+00 0.  1.
</event>
<event>
 5   0  0.6221259E+05  0.9118800E+02  0.7546771E-02  0.1180000E+00
      -11   -1    0    0    0    0  0.00000000000E+00  0.00000000000E+00  0.34996269501E-01  0.35000000000E-01  0.51099999109E-03 0. -1.
       11   -1    0    0    0    0 -0.00000000000E+00 -0.00000000000E+00 -0.34996269501E-01  0.35000000000E-01  0.51099999109E-03 0.  1.
       22    1    1    2    0    0 -0.29041099868E-01 -0.49251591648E-02  0.18899024227E-01  0.34997368345E-01  0.00000000000E+00 0. -1.
       22    1    1    2    0    0  0.29041271798E-01  0.49249640747E-02 -0.18902360479E-01  0.34999285285E-01  0.00000000000E+00 0.  1.
       22    1    1    2    0    0 -0.17193002620E-06  0.19509014754E-06  0.33362516469E-05  0.33463704444E-05  0.00000000000E+00 0. -1.
</event>
<event>
 5   0  0.6221259E+05  0.9118800E+02  0.7546771E-02  0.1180000E+00
      -11   -1    0    0    0    0  0.00000000000E+00  0.00000000000E+00  0.34996269501E-01  0.35000000000E-01  0.51099999109E-03 0.  1.
       11   -1    0    0    0    0 -0.00000000000E+00 -0.00000000000E+00 -0.34996269501E-01  0.35000000000E-01  0.51099999109E-03 0. -1.
       22    1    1    2    0    0  0.31977993992E-02  0.12517670908E-02 -0.34831107743E-01  0.34999984407E-01  0.00000000000E+00 0. -1.
       22    1    1    2    0    0  0.29531369397E-07 -0.18367338784E-06  0.51496809324E-06  0.54754009190E-06  0.00000000000E+00 0.  1.
       22    1    1    2    0    0 -0.31978289305E-02 -0.12515834174E-02  0.34830592775E-01  0.34999468053E-01  0.00000000000E+00 0.  1.
</event>
<event>
 5   0  0.6221259E+05  0.9118800E+02  0.7546771E-02  0.1180000E+00
      -11   -1    0    0    0    0  0.00000000000E+00  0.00000000000E+00  0.34996269501E-01  0.35000000000E-01  0.51099999109E-03 0.  1.
       11   -1    0    0    0    0 -0.00000000000E+00 -0.00000000000E+00 -0.34996269501E-01  0.35000000000E-01  0.51099999109E-03 0. -1.
       22    1    1    2    0    0 -0.12757372453E-01  0.84222139350E-02 -0.31377072135E-01  0.34902792083E-01  0.00000000000E+00 0. -1.
       22    1    1    2    0    0  0.54120370959E-04 -0.28759465910E-04 -0.10784149418E-03  0.12403995042E-03  0.00000000000E+00 0.  1.
       22    1    1    2    0    0  0.12703252082E-01 -0.83934544691E-02  0.31484913629E-01  0.34973167966E-01  0.00000000000E+00 0.  1.
</event>
<event>
 5   0  0.6221259E+05  0.9118800E+02  0.7546771E-02  0.1180000E+00
      -11   -1    0    0    0    0  0.00000000000E+00  0.00000000000E+00  0.34996269501E-01  0.35000000000E-01  0.51099999109E-03 0. -1.
       11   -1    0    0    0    0 -0.00000000000E+00 -0.00000000000E+00 -0.34996269501E-01  0.35000000000E-01  0.51099999109E-03 0.  1.
       22    1    1    2    0    0 -0.53071788543E-02  0.52210923185E-02  0.34197596196E-01  0.34998593371E-01  0.00000000000E+00 0. -1.
       22    1    1    2    0    0 -0.20656671240E-05 -0.11498080947E-05  0.29570158601E-06  0.23825362011E-05  0.00000000000E+00 0. -1.
       22    1    1    2    0    0  0.53092445215E-02 -0.52199425104E-02 -0.34197891897E-01  0.34999024093E-01  0.00000000000E+00 0.  1.
</event>
<event>
 5   0  0.6221259E+05  0.9118800E+02  0.7546771E-02  0.1180000E+00
      -11   -1    0    0    0    0  0.00000000000E+00  0.00000000000E+00  0.34996269501E-01  0.35000000000E-01  0.51099999109E-03 0.  1.
       11   -1    0    0    0    0 -0.00000000000E+00 -0.00000000000E+00 -0.34996269501E-01  0.35000000000E-01  0.51099999109E-03 0. -1.
       22    1    1    2    0    0  0.68701006365E-02  0.65394228627E-02 -0.33690312319E-01  0.34999992547E-01  0.00000000000E+00 0. -1.
       22    1    1    2    0    0 -0.68700754540E-02 -0.65393776241E-02  0.33689606689E-01  0.34999299926E-01  0.00000000000E+00 0.  1.
       22    1    1    2    0    0 -0.25182455953E-07 -0.45238608741E-07  0.70563040083E-06  0.70752734956E-06  0.00000000000E+00 0. -1.
</event>
<event>
 5   0  0.6221259E+05  0.9118800E+02  0.7546771E-02  0.1180000E+00
      -11   -1    0    0    0    0  0.00000000000E+00  0.00000000000E+00  0.34996269501E-01  0.35000000000E-01  0.51099999109E-03 0. -1.
       11   -1    0    0    0    0 -0.00000000000E+00 -0.00000000000E+00 -0.34996269501E-01  0.35000000000E-01  0.51099999109E-03 0.  1.
       22    1    1    2    0    0  0.68886779980E-02  0.17650153277E-01 -0.29428186990E-01  0.34999999782E-01  0.00000000000E+00 0.  1.
       22    1    1    2    0    0 -0.62091800616E-09  0.34006966798E-09  0.12684389840E-08  0.14526265885E-08  0.00000000000E+00 0.  1.
       22    1    1    2    0    0 -0.68886773771E-02 -0.17650153617E-01  0.29428185721E-01  0.34999998765E-01  0.00000000000E+00 0. -1.
</event>
<event>
 5   0  0.6221259E+05  0.9118800E+02  0.7546771E-02  0.1180000E+00
      -11   -1    0    0    0    0  0.00000000000E+00  0.00000000000E+00  0.34996269501E-01  0.35000000000E-01  0.51099999109E-03 0. -1.
       11   -1    0    0    0    0 -0.00000000000E+00 -0.00000000000E+00 -0.34996269501E-01  0.35000000000E-01  0.51099999109E-03 0.  1.
       22    1    1    2    0    0 -0.80875513318E-06 -0.15327659731E-05  0.11760753456E-04  0.11887757495E-04  0.00000000000E+00 0. -1.
       22    1    1    2    0    0 -0.47623437539E-02 -0.18559365601E-02  0.34612797355E-01  0.34988143124E-01  0.00000000000E+00 0. -1.
       22    1    1    2    0    0  0.47631525090E-02  0.18574693261E-02 -0.34624558108E-01  0.34999969119E-01  0.00000000000E+00 0.  1.
</event>
<event>
 5   0  0.6221259E+05  0.9118800E+02  0.7546771E-02  0.1180000E+00
      -11   -1    0    0    0    0  0.00000000000E+00  0.00000000000E+00  0.34996269501E-01  0.35000000000E-01  0.51099999109E-03 0.  1.
       11   -1    0    0    0    0 -0.00000000000E+00 -0.00000000000E+00 -0.34996269501E-01  0.35000000000E-01  0.51099999109E-03 0.  1.
       22    1    1    2    0    0 -0.16135617889E-03 -0.34501775453E-04  0.34999454265E-01  0.34999843215E-01  0.00000000000E+00 0.  1.
       22    1    1    2    0    0  0.21774102715E-08  0.30972410921E-08  0.15676995732E-06  0.15681566738E-06  0.00000000000E+00 0.  1.
       22    1    1    2    0    0  0.16135400148E-03  0.34498678212E-04 -0.34999611035E-01  0.34999999970E-01  0.00000000000E+00 0.  1.
</event>
<event>
 5   0  0.6221259E+05  0.9118800E+02  0.7546771E-02  0.1180000E+00
      -11   -1    0    0    0    0  0.00000000000E+00  0.00000000000E+00  0.34996269501E-01  0.35000000000E-01  0.51099999109E-03 0. -1.
       11   -1    0    0    0    0 -0.00000000000E+00 -0.00000000000E+00 -0.34996269501E-01  0.35000000000E-01  0.51099999109E-03 0.  1.
       22    1    1    2    0    0 -0.58892520176E-07  0.55174607195E-07  0.13611072862E-07  0.81840256086E-07  0.00000000000E+00 0. -1.
       22    1    1    2    0    0 -0.16805045580E-02 -0.27241273767E-02 -0.34853302509E-01  0.34999966590E-01  0.00000000000E+00 0.  1.
       22    1    1    2    0    0  0.16805634505E-02  0.27240722021E-02  0.34853288898E-01  0.34999951570E-01  0.00000000000E+00 0. -1.
</event>
<event>
 5   0  0.6221259E+05  0.9118800E+02  0.7546771E-02  0.1180000E+00
      -11   -1    0    0    0    0  0.00000000000E+00  0.00000000000E+00  0.34996269501E-01  0.35000000000E-01  0.51099999109E-03 0.  1.
       11   -1    0    0    0    0 -0.00000000000E+00 -0.00000000000E+00 -0.34996269501E-01  0.35000000000E-01  0.51099999109E-03 0. -1.
       22    1    1    2    0    0 -0.17579404967E-02 -0.25790623594E-03 -0.31247181199E-01  0.31297654917E-01  0.00000000000E+00 0. -1.
       22    1    1    2    0    0  0.47288270555E-04 -0.21604775204E-02 -0.33456727124E-02  0.39828915621E-02  0.00000000000E+00 0. -1.
       22    1    1    2    0    0  0.17106522261E-02  0.24183837564E-02  0.34592853912E-01  0.34719453521E-01  0.00000000000E+00 0.  1.
</event>
<event>
 5   0  0.6221259E+05  0.9118800E+02  0.7546771E-02  0.1180000E+00
      -11   -1    0    0    0    0  0.00000000000E+00  0.00000000000E+00  0.34996269501E-01  0.35000000000E-01  0.51099999109E-03 0.  1.
       11   -1    0    0    0    0 -0.00000000000E+00 -0.00000000000E+00 -0.34996269501E-01  0.35000000000E-01  0.51099999109E-03 0. -1.
       22    1    1    2    0    0  0.52850951996E-08  0.23044644693E-08  0.10252390700E-07  0.11762410587E-07  0.00000000000E+00 0. -1.
       22    1    1    2    0    0  0.39523480493E-03  0.15541862727E-02  0.34963230953E-01  0.34999988917E-01  0.00000000000E+00 0.  1.
       22    1    1    2    0    0 -0.39524009003E-03 -0.15541885772E-02 -0.34963241205E-01  0.34999999321E-01  0.00000000000E+00 0. -1.
</event>
<event>
 5   0  0.6221259E+05  0.9118800E+02  0.7546771E-02  0.1180000E+00
      -11   -1    0    0    0    0  0.00000000000E+00  0.00000000000E+00  0.34996269501E-01  0.35000000000E-01  0.51099999109E-03 0. -1.
       11   -1    0    0    0    0 -0.00000000000E+00 -0.00000000000E+00 -0.34996269501E-01  0.35000000000E-01  0.51099999109E-03 0. -1.
       22    1    1    2    0    0  0.51272469522E-03 -0.13174904704E-02 -0.34970146714E-01  0.34998711818E-01  0.00000000000E+00 0. -1.
       22    1    1    2    0    0 -0.51339311735E-03  0.13140626779E-02  0.34969230986E-01  0.34997677765E-01  0.00000000000E+00 0. -1.
       22    1    1    2    0    0  0.66842213382E-06  0.34277924981E-05  0.91572758673E-06  0.36104163987E-05  0.00000000000E+00 0.  1.
</event>
<event>
 5   0  0.6221259E+05  0.9118800E+02  0.7546771E-02  0.1180000E+00
      -11   -1    0    0    0    0  0.00000000000E+00  0.00000000000E+00  0.34996269501E-01  0.35000000000E-01  0.51099999109E-03 0. -1.
       11   -1    0    0    0    0 -0.00000000000E+00 -0.00000000000E+00 -0.34996269501E-01  0.35000000000E-01  0.51099999109E-03 0.  1.
       22    1    1    2    0    0 -0.58625552115E-02  0.10267095855E-01 -0.10317097542E-01  0.15691568201E-01  0.00000000000E+00 0.  1.
       22    1    1    2    0    0  0.48355819351E-02  0.56920753161E-02 -0.19275045444E-01  0.20671476748E-01  0.00000000000E+00 0.  1.
       22    1    1    2    0    0  0.10269732764E-02 -0.15959171172E-01  0.29592142986E-01  0.33636955051E-01  0.00000000000E+00 0. -1.
</event>
<event>
 5   0  0.6221259E+05  0.9118800E+02  0.7546771E-02  0.1180000E+00
      -11   -1    0    0    0    0  0.00000000000E+00  0.00000000000E+00  0.34996269501E-01  0.35000000000E-01  0.51099999109E-03 0. -1.
       11   -1    0    0    0    0 -0.00000000000E+00 -0.00000000000E+00 -0.34996269501E-01  0.35000000000E-01  0.51099999109E-03 0.  1.
       22    1    1    2    0    0 -0.23519839797E-01 -0.35186370151E-02 -0.12814237172E-01  0.27014224860E-01  0.00000000000E+00 0.  1.
       22    1    1    2    0    0 -0.15204858155E-02  0.34152966386E-02 -0.90192480878E-02  0.97633480074E-02  0.00000000000E+00 0.  1.
       22    1    1    2    0    0  0.25040325612E-01  0.10334037658E-03  0.21833485259E-01  0.33222427132E-01  0.00000000000E+00 0. -1.
</event>
<event>
 5   0  0.6221259E+05  0.9118800E+02  0.7546771E-02  0.1180000E+00
      -11   -1    0    0    0    0  0.00000000000E+00  0.00000000000E+00  0.34996269501E-01  0.35000000000E-01  0.51099999109E-03 0. -1.
       11   -1    0    0    0    0 -0.00000000000E+00 -0.00000000000E+00 -0.34996269501E-01  0.35000000000E-01  0.51099999109E-03 0.  1.
       22    1    1    2    0    0 -0.75545756175E-03 -0.11296587240E-02 -0.28267361939E-03  0.13880739661E-02  0.00000000000E+00 0.  1.
       22    1    1    2    0    0 -0.57971278421E-02 -0.29805201391E-02 -0.33411443466E-01  0.34041368157E-01  0.00000000000E+00 0.  1.
       22    1    1    2    0    0  0.65525854039E-02  0.41101788631E-02  0.33694117085E-01  0.34570557877E-01  0.00000000000E+00 0. -1.
</event>
<event>
 5   0  0.6221259E+05  0.9118800E+02  0.7546771E-02  0.1180000E+00
      -11   -1    0    0    0    0  0.00000000000E+00  0.00000000000E+00  0.34996269501E-01  0.35000000000E-01  0.51099999109E-03 0.  1.
       11   -1    0    0    0    0 -0.00000000000E+00 -0.00000000000E+00 -0.34996269501E-01  0.35000000000E-01  0.51099999109E-03 0. -1.
       22    1    1    2    0    0  0.53484086789E-02 -0.70847934070E-02  0.33855051918E-01  0.34999490188E-01  0.00000000000E+00 0.  1.
       22    1    1    2    0    0 -0.53486339611E-02  0.70848861866E-02 -0.33855512415E-01  0.34999988835E-01  0.00000000000E+00 0. -1.
       22    1    1    2    0    0  0.22528217596E-06 -0.92779652210E-07  0.46049698968E-06  0.52097754286E-06  0.00000000000E+00 0.  1.
</event>
<event>
 5   0  0.6221259E+05  0.9118800E+02  0.7546771E-02  0.1180000E+00
      -11   -1    0    0    0    0  0.00000000000E+00  0.00000000000E+00  0.34996269501E-01  0.35000000000E-01  0.51099999109E-03 0.  1.
       11   -1    0    0    0    0 -0.00000000000E+00 -0.00000000000E+00 -0.34996269501E-01  0.35000000000E-01  0.51099999109E-03 0. -1.
       22    1    1    2    0    0 -0.58269598412E-02 -0.16937894472E-02 -0.33456765606E-01  0.34002610907E-01  0.00000000000E+00 0. -1.
       22    1    1    2    0    0  0.53722590914E-02  0.35583497203E-03  0.34044007785E-01  0.34467118422E-01  0.00000000000E+00 0.  1.
       22    1    1    2    0    0  0.45470074984E-03  0.13379544752E-02 -0.58724217857E-03  0.15302706708E-02  0.00000000000E+00 0.  1.
</event>
<event>
 5   0  0.6221259E+05  0.9118800E+02  0.7546771E-02  0.1180000E+00
      -11   -1    0    0    0    0  0.00000000000E+00  0.00000000000E+00  0.34996269501E-01  0.35000000000E-01  0.51099999109E-03 0.  1.
       11   -1    0    0    0    0 -0.00000000000E+00 -0.00000000000E+00 -0.34996269501E-01  0.35000000000E-01  0.51099999109E-03 0. -1.
       22    1    1    2    0    0 -0.85413308406E-02 -0.25642341524E-01  0.22237699295E-01  0.34999989732E-01  0.00000000000E+00 0.  1.
       22    1    1    2    0    0  0.85413361436E-02  0.25642340228E-01 -0.22237710895E-01  0.34999997448E-01  0.00000000000E+00 0. -1.
       22    1    1    2    0    0 -0.53029179411E-08  0.12950835370E-08  0.11599593721E-07  0.12819857821E-07  0.00000000000E+00 0. -1.
</event>
<event>
 5   0  0.6221259E+05  0.9118800E+02  0.7546771E-02  0.1180000E+00
      -11   -1    0    0    0    0  0.00000000000E+00  0.00000000000E+00  0.34996269501E-01  0.35000000000E-01  0.51099999109E-03 0.  1.
       11   -1    0    0    0    0 -0.00000000000E+00 -0.00000000000E+00 -0.34996269501E-01  0.35000000000E-01  0.51099999109E-03 0. -1.
       22    1    1    2    0    0 -0.12761019951E-01  0.13372878619E-01  0.29720625528E-01  0.34999901350E-01  0.00000000000E+00 0.  1.
       22    1    1    2    0    0  0.12761018300E-01 -0.13372882839E-01 -0.29720731626E-01  0.34999992455E-01  0.00000000000E+00 0. -1.
       22    1    1    2    0    0  0.16508743822E-08  0.42199438849E-08  0.10609857011E-06  0.10619529129E-06  0.00000000000E+00 0. -1.
</event>
<event>
 5   0  0.6221259E+05  0.9118800E+02  0.7546771E-02  0.1180000E+00
      -11   -1    0    0    0    0  0.00000000000E+00  0.00000000000E+00  0.34996269501E-01  0.35000000000E-01  0.51099999109E-03 0.  1.
       11   -1    0    0    0    0 -0.00000000000E+00 -0.00000000000E+00 -0.34996269501E-01  0.35000000000E-01  0.51099999109E-03 0. -1.
       22    1    1    2    0    0  0.60885276086E-04 -0.29997201517E-04  0.16203722513E-02  0.16217931686E-02  0.00000000000E+00 0.  1.
       22    1    1    2    0    0  0.23456490719E-02 -0.10549732599E-01  0.31617870002E-01  0.33413898769E-01  0.00000000000E+00 0.  1.
       22    1    1    2    0    0 -0.24065343480E-02  0.10579729800E-01 -0.33238242253E-01  0.34964308063E-01  0.00000000000E+00 0. -1.
</event>
<event>
 5   0  0.6221259E+05  0.9118800E+02  0.7546771E-02  0.1180000E+00
      -11   -1    0    0    0    0  0.00000000000E+00  0.00000000000E+00  0.34996269501E-01  0.35000000000E-01  0.51099999109E-03 0. -1.
       11   -1    0    0    0    0 -0.00000000000E+00 -0.00000000000E+00 -0.34996269501E-01  0.35000000000E-01  0.51099999109E-03 0.  1.
       22    1    1    2    0    0  0.41561722820E-03  0.85533950613E-04 -0.34997368269E-01  0.34999940564E-01  0.00000000000E+00 0.  1.
       22    1    1    2    0    0 -0.29727966156E-05 -0.15688345546E-06  0.29013178228E-04  0.29165504333E-04  0.00000000000E+00 0.  1.
       22    1    1    2    0    0 -0.41264443158E-03 -0.85377067157E-04  0.34968355090E-01  0.34970893932E-01  0.00000000000E+00 0. -1.
</event>
<event>
 5   0  0.6221259E+05  0.9118800E+02  0.7546771E-02  0.1180000E+00
      -11   -1    0    0    0    0  0.00000000000E+00  0.00000000000E+00  0.34996269501E-01  0.35000000000E-01  0.51099999109E-03 0.  1.
       11   -1    0    0    0    0 -0.00000000000E+00 -0.00000000000E+00 -0.34996269501E-01  0.35000000000E-01  0.51099999109E-03 0. -1.
       22    1    1    2    0    0 -0.11931377648E-02  0.73431390825E-03  0.34970777852E-01  0.34998829955E-01  0.00000000000E+00 0.  1.
       22    1    1    2    0    0  0.22172223094E-06  0.99106259681E-06  0.94224583977E-06  0.13853494292E-05  0.00000000000E+00 0.  1.
       22    1    1    2    0    0  0.11929160426E-02 -0.73530497085E-03 -0.34971720098E-01  0.34999784695E-01  0.00000000000E+00 0. -1.
</event>
<event>
 5   0  0.6221259E+05  0.9118800E+02  0.7546771E-02  0.1180000E+00
      -11   -1    0    0    0    0  0.00000000000E+00  0.00000000000E+00  0.34996269501E-01  0.35000000000E-01  0.51099999109E-03 0.  1.
       11   -1    0    0    0    0 -0.00000000000E+00 -0.00000000000E+00 -0.34996269501E-01  0.35000000000E-01  0.51099999109E-03 0. -1.
       22    1    1    2    0    0  0.17043124459E-02  0.29072635055E-01 -0.19413318924E-01  0.34999996309E-01  0.00000000000E+00 0. -1.
       22    1    1    2    0    0  0.10667133791E-07 -0.29402901071E-08  0.55009508809E-08  0.12356921535E-07  0.00000000000E+00 0. -1.
       22    1    1    2    0    0 -0.17043231131E-02 -0.29072632115E-01  0.19413313423E-01  0.34999991334E-01  0.00000000000E+00 0.  1.
</event>
<event>
 5   0  0.6221259E+05  0.9118800E+02  0.7546771E-02  0.1180000E+00
      -11   -1    0    0    0    0  0.00000000000E+00  0.00000000000E+00  0.34996269501E-01  0.35000000000E-01  0.51099999109E-03 0.  1.
       11   -1    0    0    0    0 -0.00000000000E+00 -0.00000000000E+00 -0.34996269501E-01  0.35000000000E-01  0.51099999109E-03 0. -1.
       22    1    1    2    0    0 -0.32967609344E-02 -0.12947840572E-02 -0.34820323084E-01  0.34999999973E-01  0.00000000000E+00 0. -1.
       22    1    1    2    0    0 -0.16550036807E-09 -0.21236892911E-09  0.16009165649E-08  0.16233991443E-08  0.00000000000E+00 0.  1.
       22    1    1    2    0    0  0.32967610999E-02  0.12947842696E-02  0.34820321483E-01  0.34999998404E-01  0.00000000000E+00 0.  1.
</event>
<event>
 5   0  0.6221259E+05  0.9118800E+02  0.7546771E-02  0.1180000E+00
      -11   -1    0    0    0    0  0.00000000000E+00  0.00000000000E+00  0.34996269501E-01  0.35000000000E-01  0.51099999109E-03 0. -1.
       11   -1    0    0    0    0 -0.00000000000E+00 -0.00000000000E+00 -0.34996269501E-01  0.35000000000E-01  0.51099999109E-03 0. -1.
       22    1    1    2    0    0 -0.26366374911E-05 -0.15485664649E-06  0.44724738187E-05  0.51941178172E-05  0.00000000000E+00 0. -1.
       22    1    1    2    0    0 -0.68230612290E-04 -0.50949199935E-03  0.34991387651E-01  0.34995163198E-01  0.00000000000E+00 0. -1.
       22    1    1    2    0    0  0.70867249782E-04  0.50964685600E-03 -0.34995860125E-01  0.34999642684E-01  0.00000000000E+00 0. -1.
</event>
<event>
 5   0  0.6221259E+05  0.9118800E+02  0.7546771E-02  0.1180000E+00
      -11   -1    0    0    0    0  0.00000000000E+00  0.00000000000E+00  0.34996269501E-01  0.35000000000E-01  0.51099999109E-03 0. -1.
       11   -1    0    0    0    0 -0.00000000000E+00 -0.00000000000E+00 -0.34996269501E-01  0.35000000000E-01  0.51099999109E-03 0.  1.
       22    1    1    2    0    0  0.72140439751E-08  0.32810949235E-07  0.69224686421E-07  0.76945812298E-07  0.00000000000E+00 0. -1.
       22    1    1    2    0    0  0.88521735946E-03 -0.71822107011E-04  0.34988656913E-01  0.34999926868E-01  0.00000000000E+00 0. -1.
       22    1    1    2    0    0 -0.88522457350E-03  0.71789296062E-04 -0.34988726138E-01  0.34999996186E-01  0.00000000000E+00 0.  1.
</event>
<event>
 5   0  0.6221259E+05  0.9118800E+02  0.7546771E-02  0.1180000E+00
      -11   -1    0    0    0    0  0.00000000000E+00  0.00000000000E+00  0.34996269501E-01  0.35000000000E-01  0.51099999109E-03 0. -1.
       11   -1    0    0    0    0 -0.00000000000E+00 -0.00000000000E+00 -0.34996269501E-01  0.35000000000E-01  0.51099999109E-03 0.  1.
       22    1    1    2    0    0  0.10383314739E-01  0.59310612384E-02 -0.27218446500E-01  0.29729354891E-01  0.00000000000E+00 0.  1.
       22    1    1    2    0    0 -0.10099351861E-01 -0.52368734859E-02  0.32759728868E-01  0.34678834862E-01  0.00000000000E+00 0. -1.
       22    1    1    2    0    0 -0.28396287874E-03 -0.69418775248E-03 -0.55412823680E-02  0.55918102466E-02  0.00000000000E+00 0. -1.
</event>
<event>
 5   0  0.6221259E+05  0.9118800E+02  0.7546771E-02  0.1180000E+00
      -11   -1    0    0    0    0  0.00000000000E+00  0.00000000000E+00  0.34996269501E-01  0.35000000000E-01  0.51099999109E-03 0.  1.
       11   -1    0    0    0    0 -0.00000000000E+00 -0.00000000000E+00 -0.34996269501E-01  0.35000000000E-01  0.51099999109E-03 0. -1.
       22    1    1    2    0    0  0.17991879647E-02 -0.58350453905E-03 -0.34948854093E-01  0.34999999390E-01  0.00000000000E+00 0. -1.
       22    1    1    2    0    0  0.58689819022E-08 -0.92430639072E-08  0.42622037685E-06  0.42636098417E-06  0.00000000000E+00 0. -1.
       22    1    1    2    0    0 -0.17991938337E-02  0.58351378211E-03  0.34948427873E-01  0.34999574249E-01  0.00000000000E+00 0.  1.
</event>
<event>
 5   0  0.6221259E+05  0.9118800E+02  0.7546771E-02  0.1180000E+00
      -11   -1    0    0    0    0  0.00000000000E+00  0.00000000000E+00  0.34996269501E-01  0.35000000000E-01  0.51099999109E-03 0. -1.
       11   -1    0    0    0    0 -0.00000000000E+00 -0.00000000000E+00 -0.34996269501E-01  0.35000000000E-01  0.51099999109E-03 0.  1.
       22    1    1    2    0    0 -0.71742204354E-07  0.91597619403E-07  0.35443749153E-06  0.37304557787E-06  0.00000000000E+00 0.  1.
       22    1    1    2    0    0  0.11386447292E-02 -0.56172960731E-03  0.34976601144E-01  0.34999638277E-01  0.00000000000E+00 0. -1.
       22    1    1    2    0    0 -0.11385729870E-02  0.56163800970E-03 -0.34976955581E-01  0.34999988677E-01  0.00000000000E+00 0.  1.
</event>
<event>
 5   0  0.6221259E+05  0.9118800E+02  0.7546771E-02  0.1180000E+00
      -11   -1    0    0    0    0  0.00000000000E+00  0.00000000000E+00  0.34996269501E-01  0.35000000000E-01  0.51099999109E-03 0.  1.
       11   -1    0    0    0    0 -0.00000000000E+00 -0.00000000000E+00 -0.34996269501E-01  0.35000000000E-01  0.51099999109E-03 0. -1.
       22    1    1    2    0    0  0.69668365487E-02 -0.29275185132E-01 -0.15250139526E-01  0.33736331033E-01  0.00000000000E+00 0. -1.
       22    1    1    2    0    0 -0.71081957364E-02  0.29297413718E-01  0.16931257759E-01  0.34576471574E-01  0.00000000000E+00 0.  1.
       22    1    1    2    0    0  0.14135918777E-03 -0.22228585917E-04 -0.16811182327E-02  0.16871973928E-02  0.00000000000E+00 0.  1.
</event>
<event>
 5   0  0.6221259E+05  0.9118800E+02  0.7546771E-02  0.1180000E+00
      -11   -1    0    0    0    0  0.00000000000E+00  0.00000000000E+00  0.34996269501E-01  0.35000000000E-01  0.51099999109E-03 0. -1.
       11   -1    0    0    0    0 -0.00000000000E+00 -0.00000000000E+00 -0.34996269501E-01  0.35000000000E-01  0.51099999109E-03 0. -1.
       22    1    1    2    0    0 -0.11046129175E-02 -0.72187070057E-03 -0.34975115772E-01  0.34999999861E-01  0.00000000000E+00 0. -1.
       22    1    1    2    0    0  0.25812624065E-08 -0.57222575457E-08  0.20546316164E-06  0.20555903760E-06  0.00000000000E+00 0.  1.
       22    1    1    2    0    0  0.11046103362E-02  0.72187642282E-03  0.34974910309E-01  0.34999794580E-01  0.00000000000E+00 0. -1.
</event>
<event>
 5   0  0.6221259E+05  0.9118800E+02  0.7546771E-02  0.1180000E+00
      -11   -1    0    0    0    0  0.00000000000E+00  0.00000000000E+00  0.34996269501E-01  0.35000000000E-01  0.51099999109E-03 0. -1.
       11   -1    0    0    0    0 -0.00000000000E+00 -0.00000000000E+00 -0.34996269501E-01  0.35000000000E-01  0.51099999109E-03 0.  1.
       22    1    1    2    0    0  0.18303515949E-01  0.87022100591E-02  0.28408720587E-01  0.34897027974E-01  0.00000000000E+00 0. -1.
       22    1    1    2    0    0 -0.18334808146E-01 -0.88018824352E-02 -0.28465080498E-01  0.34984269778E-01  0.00000000000E+00 0.  1.
       22    1    1    2    0    0  0.31292197031E-04  0.99672376143E-04  0.56359910714E-04  0.11870224807E-03  0.00000000000E+00 0. -1.
</event>
<event>
 5   0  0.6221259E+05  0.9118800E+02  0.7546771E-02  0.1180000E+00
      -11   -1    0    0    0    0  0.00000000000E+00  0.00000000000E+00  0.34996269501E-01  0.35000000000E-01  0.51099999109E-03 0.  1.
       11   -1    0    0    0    0 -0.00000000000E+00 -0.00000000000E+00 -0.34996269501E-01  0.35000000000E-01  0.51099999109E-03 0. -1.
       22    1    1    2    0    0  0.63278768120E-02  0.17730431804E-01 -0.29505757258E-01  0.34999999261E-01  0.00000000000E+00 0. -1.
       22    1    1    2    0    0 -0.63278766841E-02 -0.17730432453E-01  0.29505749980E-01  0.34999993431E-01  0.00000000000E+00 0.  1.
       22    1    1    2    0    0 -0.12784758468E-09  0.64862801741E-09  0.72777254761E-08  0.73076912507E-08  0.00000000000E+00 0. -1.
</event>
<event>
 5   0  0.6221259E+05  0.9118800E+02  0.7546771E-02  0.1180000E+00
      -11   -1    0    0    0    0  0.00000000000E+00  0.00000000000E+00  0.34996269501E-01  0.35000000000E-01  0.51099999109E-03 0. -1.
       11   -1    0    0    0    0 -0.00000000000E+00 -0.00000000000E+00 -0.34996269501E-01  0.35000000000E-01  0.51099999109E-03 0.  1.
       22    1    1    2    0    0 -0.16521222487E-01  0.45966865341E-03  0.30851827268E-01  0.34999961908E-01  0.00000000000E+00 0. -1.
       22    1    1    2    0    0  0.23316969077E-08  0.19180259097E-07  0.38511236454E-07  0.43086360750E-07  0.00000000000E+00 0.  1.
       22    1    1    2    0    0  0.16521220155E-01 -0.45968783367E-03 -0.30851865780E-01  0.34999995006E-01  0.00000000000E+00 0.  1.
</event>
<event>
 5   0  0.6221259E+05  0.9118800E+02  0.7546771E-02  0.1180000E+00
      -11   -1    0    0    0    0  0.00000000000E+00  0.00000000000E+00  0.34996269501E-01  0.35000000000E-01  0.51099999109E-03 0. -1.
       11   -1    0    0    0    0 -0.00000000000E+00 -0.00000000000E+00 -0.34996269501E-01  0.35000000000E-01  0.51099999109E-03 0. -1.
       22    1    1    2    0    0  0.25634567818E-06  0.51724313050E-06  0.13812094149E-04  0.13824152717E-04  0.00000000000E+00 0. -1.
       22    1    1    2    0    0  0.24931802917E-10  0.50306304680E-10 -0.35003068761E-01  0.34999994575E-01  0.00000000000E+00 0. -1.
       22    1    1    2    0    0 -0.25637060998E-06 -0.51729343680E-06  0.34989256666E-01  0.34986181272E-01  0.00000000000E+00 0. -1.
</event>
<event>
 5   0  0.6221259E+05  0.9118800E+02  0.7546771E-02  0.1180000E+00
      -11   -1    0    0    0    0  0.00000000000E+00  0.00000000000E+00  0.34996269501E-01  0.35000000000E-01  0.51099999109E-03 0.  1.
       11   -1    0    0    0    0 -0.00000000000E+00 -0.00000000000E+00 -0.34996269501E-01  0.35000000000E-01  0.51099999109E-03 0. -1.
       22    1    1    2    0    0 -0.28355128581E-03  0.14468580902E-02 -0.34968924775E-01  0.34999992851E-01  0.00000000000E+00 0. -1.
       22    1    1    2    0    0 -0.21172914567E-07  0.63101152221E-08  0.10686525620E-07  0.24542039345E-07  0.00000000000E+00 0. -1.
       22    1    1    2    0    0  0.28357245872E-03 -0.14468644003E-02  0.34968914089E-01  0.34999982607E-01  0.00000000000E+00 0.  1.
</event>
<event>
 5   0  0.6221259E+05  0.9118800E+02  0.7546771E-02  0.1180000E+00
      -11   -1    0    0    0    0  0.00000000000E+00  0.00000000000E+00  0.34996269501E-01  0.35000000000E-01  0.51099999109E-03 0.  1.
       11   -1    0    0    0    0 -0.00000000000E+00 -0.00000000000E+00 -0.34996269501E-01  0.35000000000E-01  0.51099999109E-03 0. -1.
       22    1    1    2    0    0  0.92929500090E-03 -0.11289312150E-02  0.34965537085E-01  0.34996097762E-01  0.00000000000E+00 0.  1.
       22    1    1    2    0    0  0.12169165212E-05  0.72088279273E-07  0.37933570637E-05  0.39844247204E-05  0.00000000000E+00 0.  1.
       22    1    1    2    0    0 -0.93051191742E-03  0.11288591267E-02 -0.34969330442E-01  0.34999917813E-01  0.00000000000E+00 0. -1.
</event>
<event>
 5   0  0.6221259E+05  0.9118800E+02  0.7546771E-02  0.1180000E+00
      -11   -1    0    0    0    0  0.00000000000E+00  0.00000000000E+00  0.34996269501E-01  0.35000000000E-01  0.51099999109E-03 0.  1.
       11   -1    0    0    0    0 -0.00000000000E+00 -0.00000000000E+00 -0.34996269501E-01  0.35000000000E-01  0.51099999109E-03 0. -1.
       22    1    1    2    0    0 -0.56083075478E-02  0.31217809882E-02 -0.34406398176E-01  0.34999983794E-01  0.00000000000E+00 0. -1.
       22    1    1    2    0    0  0.56081756089E-02 -0.31217970109E-02  0.34403504738E-01  0.34997119718E-01  0.00000000000E+00 0.  1.
       22    1    1    2    0    0  0.13193896612E-06  0.16022642998E-07  0.28934378629E-05  0.28964887852E-05  0.00000000000E+00 0. -1.
</event>
<event>
 5   0  0.6221259E+05  0.9118800E+02  0.7546771E-02  0.1180000E+00
      -11   -1    0    0    0    0  0.00000000000E+00  0.00000000000E+00  0.34996269501E-01  0.35000000000E-01  0.51099999109E-03 0.  1.
       11   -1    0    0    0    0 -0.00000000000E+00 -0.00000000000E+00 -0.34996269501E-01  0.35000000000E-01  0.51099999109E-03 0. -1.
       22    1    1    2    0    0 -0.27400242617E-01  0.68266076155E-02  0.20678992388E-01  0.34999951331E-01  0.00000000000E+00 0. -1.
       22    1    1    2    0    0  0.27400247405E-01 -0.68266445015E-02 -0.20679038432E-01  0.34999989478E-01  0.00000000000E+00 0.  1.
       22    1    1    2    0    0 -0.47884086984E-08  0.36886032364E-07  0.46044068303E-07  0.59190915412E-07  0.00000000000E+00 0.  1.
</event>
<event>
 5   0  0.6221259E+05  0.9118800E+02  0.7546771E-02  0.1180000E+00
      -11   -1    0    0    0    0  0.00000000000E+00  0.00000000000E+00  0.34996269501E-01  0.35000000000E-01  0.51099999109E-03 0.  1.
       11   -1    0    0    0    0 -0.00000000000E+00 -0.00000000000E+00 -0.34996269501E-01  0.35000000000E-01  0.51099999109E-03 0. -1.
       22    1    1    2    0    0  0.82824960369E-08 -0.78022552937E-08  0.34931113898E-06  0.34949641878E-06  0.00000000000E+00 0. -1.
       22    1    1    2    0    0  0.52658109209E-02 -0.30969415362E-02 -0.34462732430E-01  0.34999996258E-01  0.00000000000E+00 0. -1.
       22    1    1    2    0    0 -0.52658192034E-02  0.30969493385E-02  0.34462383119E-01  0.34999654246E-01  0.00000000000E+00 0.  1.
</event>
<event>
 5   0  0.6221259E+05  0.9118800E+02  0.7546771E-02  0.1180000E+00
      -11   -1    0    0    0    0  0.00000000000E+00  0.00000000000E+00  0.34996269501E-01  0.35000000000E-01  0.51099999109E-03 0.  1.
       11   -1    0    0    0    0 -0.00000000000E+00 -0.00000000000E+00 -0.34996269501E-01  0.35000000000E-01  0.51099999109E-03 0. -1.
       22    1    1    2    0    0  0.13582161917E-02 -0.25490845353E-02  0.34588743883E-01  0.34709131171E-01  0.00000000000E+00 0.  1.
       22    1    1    2    0    0  0.35256721167E-05  0.10873371648E-05  0.29132927166E-03  0.29135263375E-03  0.00000000000E+00 0.  1.
       22    1    1    2    0    0 -0.13617418638E-02  0.25479971982E-02 -0.34880073155E-01  0.34999516196E-01  0.00000000000E+00 0. -1.
</event>
<event>
 5   0  0.6221259E+05  0.9118800E+02  0.7546771E-02  0.1180000E+00
      -11   -1    0    0    0    0  0.00000000000E+00  0.00000000000E+00  0.34996269501E-01  0.35000000000E-01  0.51099999109E-03 0.  1.
       11   -1    0    0    0    0 -0.00000000000E+00 -0.00000000000E+00 -0.34996269501E-01  0.35000000000E-01  0.51099999109E-03 0. -1.
       22    1    1    2    0    0  0.47075324788E-03  0.16310047050E-03  0.34996419410E-01  0.34999965455E-01  0.00000000000E+00 0.  1.
       22    1    1    2    0    0  0.17307084053E-08 -0.80671999347E-08  0.34060997122E-07  0.35046063850E-07  0.00000000000E+00 0.  1.
       22    1    1    2    0    0 -0.47075497859E-03 -0.16309240330E-03 -0.34996453471E-01  0.34999999499E-01  0.00000000000E+00 0. -1.
</event>
<event>
 5   0  0.6221259E+05  0.9118800E+02  0.7546771E-02  0.1180000E+00
      -11   -1    0    0    0    0  0.00000000000E+00  0.00000000000E+00  0.34996269501E-01  0.35000000000E-01  0.51099999109E-03 0. -1.
       11   -1    0    0    0    0 -0.00000000000E+00 -0.00000000000E+00 -0.34996269501E-01  0.35000000000E-01  0.51099999109E-03 0.  1.
       22    1    1    2    0    0 -0.19727562672E-02 -0.25904904491E-01 -0.22549455251E-01  0.34401072310E-01  0.00000000000E+00 0.  1.
       22    1    1    2    0    0  0.18562965850E-02  0.26585556627E-01  0.22546779673E-01  0.34908379106E-01  0.00000000000E+00 0. -1.
       22    1    1    2    0    0  0.11645968227E-03 -0.68065213635E-03  0.26755773221E-05  0.69054858412E-03  0.00000000000E+00 0.  1.
</event>
<event>
 5   0  0.6221259E+05  0.9118800E+02  0.7546771E-02  0.1180000E+00
      -11   -1    0    0    0    0  0.00000000000E+00  0.00000000000E+00  0.34996269501E-01  0.35000000000E-01  0.51099999109E-03 0. -1.
       11   -1    0    0    0    0 -0.00000000000E+00 -0.00000000000E+00 -0.34996269501E-01  0.35000000000E-01  0.51099999109E-03 0.  1.
       22    1    1    2    0    0 -0.60678548124E-03  0.12327603411E-02  0.34972444489E-01  0.34999425141E-01  0.00000000000E+00 0. -1.
       22    1    1    2    0    0 -0.22321538127E-06 -0.47780148391E-06  0.46194770814E-06  0.70108134301E-06  0.00000000000E+00 0. -1.
       22    1    1    2    0    0  0.60700869663E-03 -0.12322825396E-02 -0.34972906437E-01  0.34999873778E-01  0.00000000000E+00 0.  1.
</event>
<event>
 5   0  0.6221259E+05  0.9118800E+02  0.7546771E-02  0.1180000E+00
      -11   -1    0    0    0    0  0.00000000000E+00  0.00000000000E+00  0.34996269501E-01  0.35000000000E-01  0.51099999109E-03 0. -1.
       11   -1    0    0    0    0 -0.00000000000E+00 -0.00000000000E+00 -0.34996269501E-01  0.35000000000E-01  0.51099999109E-03 0.  1.
       22    1    1    2    0    0 -0.15804684622E-03 -0.63820495365E-03 -0.34993315744E-01  0.34999491869E-01  0.00000000000E+00 0.  1.
       22    1    1    2    0    0 -0.11172629722E-04  0.22501248247E-04  0.23707473847E-03  0.23840210874E-03  0.00000000000E+00 0.  1.
       22    1    1    2    0    0  0.16921947594E-03  0.61570370541E-03  0.34756241005E-01  0.34762106022E-01  0.00000000000E+00 0. -1.
</event>
<event>
 5   0  0.6221259E+05  0.9118800E+02  0.7546771E-02  0.1180000E+00
      -11   -1    0    0    0    0  0.00000000000E+00  0.00000000000E+00  0.34996269501E-01  0.35000000000E-01  0.51099999109E-03 0.  1.
       11   -1    0    0    0    0 -0.00000000000E+00 -0.00000000000E+00 -0.34996269501E-01  0.35000000000E-01  0.51099999109E-03 0. -1.
       22    1    1    2    0    0  0.53588604001E-07 -0.58534521975E-07 -0.24529894027E-07  0.83064700340E-07  0.00000000000E+00 0. -1.
       22    1    1    2    0    0  0.26595186397E-02  0.97023633281E-03 -0.34885265562E-01  0.34999945018E-01  0.00000000000E+00 0. -1.
       22    1    1    2    0    0 -0.26595722283E-02 -0.97017779829E-03  0.34885290092E-01  0.34999971917E-01  0.00000000000E+00 0.  1.
</event>
<event>
 5   0  0.6221259E+05  0.9118800E+02  0.7546771E-02  0.1180000E+00
      -11   -1    0    0    0    0  0.00000000000E+00  0.00000000000E+00  0.34996269501E-01  0.35000000000E-01  0.51099999109E-03 0. -1.
       11   -1    0    0    0    0 -0.00000000000E+00 -0.00000000000E+00 -0.34996269501E-01  0.35000000000E-01  0.51099999109E-03 0.  1.
       22    1    1    2    0    0  0.16048108448E-02  0.16814670585E-02 -0.34922732577E-01  0.34999999999E-01  0.00000000000E+00 0.  1.
       22    1    1    2    0    0 -0.76353885799E-09 -0.73725054781E-09  0.19604175876E-07  0.19632886740E-07  0.00000000000E+00 0. -1.
       22    1    1    2    0    0 -0.16048100812E-02 -0.16814663213E-02  0.34922712973E-01  0.34999980368E-01  0.00000000000E+00 0. -1.
</event>
<event>
 5   0  0.6221259E+05  0.9118800E+02  0.7546771E-02  0.1180000E+00
      -11   -1    0    0    0    0  0.00000000000E+00  0.00000000000E+00  0.34996269501E-01  0.35000000000E-01  0.51099999109E-03 0.  1.
       11   -1    0    0    0    0 -0.00000000000E+00 -0.00000000000E+00 -0.34996269501E-01  0.35000000000E-01  0.51099999109E-03 0. -1.
       22    1    1    2    0    0 -0.17450190468E-02 -0.30684145853E-02  0.34427527578E-01  0.34608018069E-01  0.00000000000E+00 0.  1.
       22    1    1    2    0    0  0.57832775245E-04  0.64392991175E-05  0.39254928235E-03  0.39683880044E-03  0.00000000000E+00 0.  1.
       22    1    1    2    0    0  0.16871862716E-02  0.30619752862E-02 -0.34820076860E-01  0.34995143130E-01  0.00000000000E+00 0. -1.
</event>
<event>
 5   0  0.6221259E+05  0.9118800E+02  0.7546771E-02  0.1180000E+00
      -11   -1    0    0    0    0  0.00000000000E+00  0.00000000000E+00  0.34996269501E-01  0.35000000000E-01  0.51099999109E-03 0.  1.
       11   -1    0    0    0    0 -0.00000000000E+00 -0.00000000000E+00 -0.34996269501E-01  0.35000000000E-01  0.51099999109E-03 0.  1.
       22    1    1    2    0    0  0.57339459075E-06 -0.27946393274E-05  0.19475051541E-05  0.34542099895E-05  0.00000000000E+00 0. -1.
       22    1    1    2    0    0 -0.27581869518E-03 -0.10952080499E-03 -0.34997986238E-01  0.34999244441E-01  0.00000000000E+00 0.  1.
       22    1    1    2    0    0  0.27524530058E-03  0.11231544432E-03  0.34996038733E-01  0.34997301349E-01  0.00000000000E+00 0.  1.
</event>
<event>
 5   0  0.6221259E+05  0.9118800E+02  0.7546771E-02  0.1180000E+00
      -11   -1    0    0    0    0  0.00000000000E+00  0.00000000000E+00  0.34996269501E-01  0.35000000000E-01  0.51099999109E-03 0.  1.
       11   -1    0    0    0    0 -0.00000000000E+00 -0.00000000000E+00 -0.34996269501E-01  0.35000000000E-01  0.51099999109E-03 0. -1.
       22    1    1    2    0    0  0.89292168228E-04 -0.20059511169E-02 -0.34942355092E-01  0.34999999890E-01  0.00000000000E+00 0. -1.
       22    1    1    2    0    0 -0.89289777441E-04  0.20059503925E-02  0.34942342536E-01  0.34999987308E-01  0.00000000000E+00 0.  1.
       22    1    1    2    0    0 -0.23907878806E-08  0.72442650999E-09  0.12555763906E-07  0.12801869696E-07  0.00000000000E+00 0.  1.
</event>
<event>
 5   0  0.6221259E+05  0.9118800E+02  0.7546771E-02  0.1180000E+00
      -11   -1    0    0    0    0  0.00000000000E+00  0.00000000000E+00  0.34996269501E-01  0.35000000000E-01  0.51099999109E-03 0. -1.
       11   -1    0    0    0    0 -0.00000000000E+00 -0.00000000000E+00 -0.34996269501E-01  0.35000000000E-01  0.51099999109E-03 0.  1.
       22    1    1    2    0    0 -0.14549599562E-01  0.10025049240E-01  0.26519883954E-01  0.31866859033E-01  0.00000000000E+00 0. -1.
       22    1    1    2    0    0  0.33166106900E-02 -0.91866260003E-02 -0.50008150981E-03  0.97797794072E-02  0.00000000000E+00 0.  1.
       22    1    1    2    0    0  0.11232988872E-01 -0.83842323925E-03 -0.26019802444E-01  0.28353361560E-01  0.00000000000E+00 0.  1.
</event>
<event>
 5   0  0.6221259E+05  0.9118800E+02  0.7546771E-02  0.1180000E+00
      -11   -1    0    0    0    0  0.00000000000E+00  0.00000000000E+00  0.34996269501E-01  0.35000000000E-01  0.51099999109E-03 0.  1.
       11   -1    0    0    0    0 -0.00000000000E+00 -0.00000000000E+00 -0.34996269501E-01  0.35000000000E-01  0.51099999109E-03 0.  1.
       22    1    1    2    0    0  0.38221533782E-10  0.59184651364E-12 -0.35001737318E-01  0.34999960079E-01  0.00000000000E+00 0.  1.
       22    1    1    2    0    0  0.48570054048E-06  0.75208957650E-08  0.14364222342E-05  0.15163345323E-05  0.00000000000E+00 0.  1.
       22    1    1    2    0    0 -0.48573876201E-06 -0.75214876115E-08  0.35000300896E-01  0.34998523587E-01  0.00000000000E+00 0.  1.
</event>
<event>
 5   0  0.6221259E+05  0.9118800E+02  0.7546771E-02  0.1180000E+00
      -11   -1    0    0    0    0  0.00000000000E+00  0.00000000000E+00  0.34996269501E-01  0.35000000000E-01  0.51099999109E-03 0.  1.
       11   -1    0    0    0    0 -0.00000000000E+00 -0.00000000000E+00 -0.34996269501E-01  0.35000000000E-01  0.51099999109E-03 0. -1.
       22    1    1    2    0    0 -0.52137679709E-03 -0.52382667018E-03  0.19695855298E-02  0.21036861230E-02  0.00000000000E+00 0. -1.
       22    1    1    2    0    0  0.28111063007E-02  0.39603926235E-02 -0.34633517004E-01  0.34972382367E-01  0.00000000000E+00 0. -1.
       22    1    1    2    0    0 -0.22897295036E-02 -0.34365659534E-02  0.32663931474E-01  0.32923931510E-01  0.00000000000E+00 0.  1.
</event>
<event>
 5   0  0.6221259E+05  0.9118800E+02  0.7546771E-02  0.1180000E+00
      -11   -1    0    0    0    0  0.00000000000E+00  0.00000000000E+00  0.34996269501E-01  0.35000000000E-01  0.51099999109E-03 0. -1.
       11   -1    0    0    0    0 -0.00000000000E+00 -0.00000000000E+00 -0.34996269501E-01  0.35000000000E-01  0.51099999109E-03 0.  1.
       22    1    1    2    0    0  0.10235348255E-01 -0.14613742078E-02  0.33437916536E-01  0.34999889010E-01  0.00000000000E+00 0. -1.
       22    1    1    2    0    0 -0.10235166451E-01  0.14613888376E-02 -0.33437995753E-01  0.34999912137E-01  0.00000000000E+00 0.  1.
       22    1    1    2    0    0 -0.18180443512E-06 -0.14629775061E-07  0.79217411126E-07  0.19885241053E-06  0.00000000000E+00 0.  1.
</event>
<event>
 5   0  0.6221259E+05  0.9118800E+02  0.7546771E-02  0.1180000E+00
      -11   -1    0    0    0    0  0.00000000000E+00  0.00000000000E+00  0.34996269501E-01  0.35000000000E-01  0.51099999109E-03 0. -1.
       11   -1    0    0    0    0 -0.00000000000E+00 -0.00000000000E+00 -0.34996269501E-01  0.35000000000E-01  0.51099999109E-03 0.  1.
       22    1    1    2    0    0 -0.26259076739E-01 -0.11992198893E-01 -0.19788988879E-01  0.34999371799E-01  0.00000000000E+00 0.  1.
       22    1    1    2    0    0  0.12278367631E-05 -0.15274883155E-05  0.18909354992E-05  0.27233142920E-05  0.00000000000E+00 0. -1.
       22    1    1    2    0    0  0.26257848902E-01  0.11993726382E-01  0.19787097943E-01  0.34997904887E-01  0.00000000000E+00 0. -1.
</event>
<event>
 5   0  0.6221259E+05  0.9118800E+02  0.7546771E-02  0.1180000E+00
      -11   -1    0    0    0    0  0.00000000000E+00  0.00000000000E+00  0.34996269501E-01  0.35000000000E-01  0.51099999109E-03 0. -1.
       11   -1    0    0    0    0 -0.00000000000E+00 -0.00000000000E+00 -0.34996269501E-01  0.35000000000E-01  0.51099999109E-03 0. -1.
       22    1    1    2    0    0 -0.32503230515E-03 -0.17808099275E-03 -0.34998032027E-01  0.34999994352E-01  0.00000000000E+00 0. -1.
       22    1    1    2    0    0  0.32525819862E-03  0.17731697749E-03  0.34970524400E-01  0.34972486486E-01  0.00000000000E+00 0. -1.
       22    1    1    2    0    0 -0.22589347492E-06  0.76401526396E-06  0.27507627170E-04  0.27519162409E-04  0.00000000000E+00 0. -1.
</event>
<event>
 5   0  0.6221259E+05  0.9118800E+02  0.7546771E-02  0.1180000E+00
      -11   -1    0    0    0    0  0.00000000000E+00  0.00000000000E+00  0.34996269501E-01  0.35000000000E-01  0.51099999109E-03 0.  1.
       11   -1    0    0    0    0 -0.00000000000E+00 -0.00000000000E+00 -0.34996269501E-01  0.35000000000E-01  0.51099999109E-03 0.  1.
       22    1    1    2    0    0  0.27971402802E-03  0.24217139405E-03  0.34998041126E-01  0.34999996708E-01  0.00000000000E+00 0.  1.
       22    1    1    2    0    0 -0.27971297162E-03 -0.24216980512E-03 -0.34998044152E-01  0.34999999715E-01  0.00000000000E+00 0.  1.
       22    1    1    2    0    0 -0.10563961733E-08 -0.15889350653E-08  0.30262079234E-08  0.35775161653E-08  0.00000000000E+00 0.  1.
</event>
<event>
 5   0  0.6221259E+05  0.9118800E+02  0.7546771E-02  0.1180000E+00
      -11   -1    0    0    0    0  0.00000000000E+00  0.00000000000E+00  0.34996269501E-01  0.35000000000E-01  0.51099999109E-03 0.  1.
       11   -1    0    0    0    0 -0.00000000000E+00 -0.00000000000E+00 -0.34996269501E-01  0.35000000000E-01  0.51099999109E-03 0. -1.
       22    1    1    2    0    0 -0.61533000763E-02 -0.27131224253E-02 -0.34347865038E-01  0.34999999539E-01  0.00000000000E+00 0. -1.
       22    1    1    2    0    0  0.61533012101E-02  0.27131231021E-02  0.34347864023E-01  0.34999998795E-01  0.00000000000E+00 0.  1.
       22    1    1    2    0    0 -0.11337062151E-08 -0.67682966208E-09  0.10149568401E-08  0.16653905130E-08  0.00000000000E+00 0.  1.
</event>
<event>
 5   0  0.6221259E+05  0.9118800E+02  0.7546771E-02  0.1180000E+00
      -11   -1    0    0    0    0  0.00000000000E+00  0.00000000000E+00  0.34996269501E-01  0.35000000000E-01  0.51099999109E-03 0.  1.
       11   -1    0    0    0    0 -0.00000000000E+00 -0.00000000000E+00 -0.34996269501E-01  0.35000000000E-01  0.51099999109E-03 0. -1.
       22    1    1    2    0    0 -0.23639365286E-01  0.13809478622E-02  0.25760757509E-01  0.34990616394E-01  0.00000000000E+00 0.  1.
       22    1    1    2    0    0  0.23639288377E-01 -0.13812807816E-02 -0.25771585559E-01  0.34998550167E-01  0.00000000000E+00 0. -1.
       22    1    1    2    0    0  0.76909024018E-07  0.33291938467E-06  0.10828049534E-04  0.10833439298E-04  0.00000000000E+00 0.  1.
</event>
<event>
 5   0  0.6221259E+05  0.9118800E+02  0.7546771E-02  0.1180000E+00
      -11   -1    0    0    0    0  0.00000000000E+00  0.00000000000E+00  0.34996269501E-01  0.35000000000E-01  0.51099999109E-03 0.  1.
       11   -1    0    0    0    0 -0.00000000000E+00 -0.00000000000E+00 -0.34996269501E-01  0.35000000000E-01  0.51099999109E-03 0. -1.
       22    1    1    2    0    0  0.74219458649E-02 -0.12146113161E-02 -0.31359709747E-01  0.32248906284E-01  0.00000000000E+00 0. -1.
       22    1    1    2    0    0 -0.60594132992E-02 -0.10032483251E-02  0.33697361640E-01  0.34252520757E-01  0.00000000000E+00 0.  1.
       22    1    1    2    0    0 -0.13625325657E-02  0.22178596412E-02 -0.23376518925E-02  0.34985729593E-02  0.00000000000E+00 0.  1.
</event>
<event>
 5   0  0.6221259E+05  0.9118800E+02  0.7546771E-02  0.1180000E+00
      -11   -1    0    0    0    0  0.00000000000E+00  0.00000000000E+00  0.34996269501E-01  0.35000000000E-01  0.51099999109E-03 0. -1.
       11   -1    0    0    0    0 -0.00000000000E+00 -0.00000000000E+00 -0.34996269501E-01  0.35000000000E-01  0.51099999109E-03 0.  1.
       22    1    1    2    0    0 -0.83024431913E-02 -0.16289253653E-02 -0.33961947530E-01  0.34999969155E-01  0.00000000000E+00 0.  1.
       22    1    1    2    0    0  0.83022046111E-02  0.16287270521E-02  0.33961594938E-01  0.34999561196E-01  0.00000000000E+00 0. -1.
       22    1    1    2    0    0  0.23858022212E-06  0.19831318460E-06  0.35259273262E-06  0.46964909951E-06  0.00000000000E+00 0. -1.
</event>
<event>
 5   0  0.6221259E+05  0.9118800E+02  0.7546771E-02  0.1180000E+00
      -11   -1    0    0    0    0  0.00000000000E+00  0.00000000000E+00  0.34996269501E-01  0.35000000000E-01  0.51099999109E-03 0.  1.
       11   -1    0    0    0    0 -0.00000000000E+00 -0.00000000000E+00 -0.34996269501E-01  0.35000000000E-01  0.51099999109E-03 0. -1.
       22    1    1    2    0    0  0.10828497471E-01  0.26138249803E-02 -0.24168582769E-01  0.26612193288E-01  0.00000000000E+00 0. -1.
       22    1    1    2    0    0 -0.91816611035E-02 -0.34299854031E-02 -0.70763010829E-02  0.12088909690E-01  0.00000000000E+00 0. -1.
       22    1    1    2    0    0 -0.16468363677E-02  0.81616042272E-03  0.31244883852E-01  0.31298897022E-01  0.00000000000E+00 0.  1.
</event>
<event>
 5   0  0.6221259E+05  0.9118800E+02  0.7546771E-02  0.1180000E+00
      -11   -1    0    0    0    0  0.00000000000E+00  0.00000000000E+00  0.34996269501E-01  0.35000000000E-01  0.51099999109E-03 0.  1.
       11   -1    0    0    0    0 -0.00000000000E+00 -0.00000000000E+00 -0.34996269501E-01  0.35000000000E-01  0.51099999109E-03 0. -1.
       22    1    1    2    0    0 -0.16577259312E-01 -0.11478027780E-01  0.28608553404E-01  0.34999999656E-01  0.00000000000E+00 0.  1.
       22    1    1    2    0    0  0.16577258843E-01  0.11478027449E-01 -0.28608553799E-01  0.34999999647E-01  0.00000000000E+00 0. -1.
       22    1    1    2    0    0  0.46917702816E-09  0.33145717814E-09  0.39475736385E-09  0.69701099059E-09  0.00000000000E+00 0. -1.
</event>
<event>
 5   0  0.6221259E+05  0.9118800E+02  0.7546771E-02  0.1180000E+00
      -11   -1    0    0    0    0  0.00000000000E+00  0.00000000000E+00  0.34996269501E-01  0.35000000000E-01  0.51099999109E-03 0. -1.
       11   -1    0    0    0    0 -0.00000000000E+00 -0.00000000000E+00 -0.34996269501E-01  0.35000000000E-01  0.51099999109E-03 0.  1.
       22    1    1    2    0    0 -0.26003702014E-02 -0.24341566088E-02  0.34038648144E-01  0.34224503080E-01  0.00000000000E+00 0. -1.
       22    1    1    2    0    0 -0.19076594894E-05 -0.13752472503E-04  0.77694728319E-03  0.77707132911E-03  0.00000000000E+00 0. -1.
       22    1    1    2    0    0  0.26022778609E-02  0.24479090813E-02 -0.34815595427E-01  0.34998425591E-01  0.00000000000E+00 0.  1.
</event>
<event>
 5   0  0.6221259E+05  0.9118800E+02  0.7546771E-02  0.1180000E+00
      -11   -1    0    0    0    0  0.00000000000E+00  0.00000000000E+00  0.34996269501E-01  0.35000000000E-01  0.51099999109E-03 0. -1.
       11   -1    0    0    0    0 -0.00000000000E+00 -0.00000000000E+00 -0.34996269501E-01  0.35000000000E-01  0.51099999109E-03 0.  1.
       22    1    1    2    0    0 -0.17465340434E-05 -0.73646001761E-06  0.18741203046E-04  0.18836810934E-04  0.00000000000E+00 0.  1.
       22    1    1    2    0    0  0.10331622099E-02 -0.35864158937E-03  0.34964137807E-01  0.34981237550E-01  0.00000000000E+00 0. -1.
       22    1    1    2    0    0 -0.10314156759E-02  0.35937804939E-03 -0.34982879010E-01  0.34999925639E-01  0.00000000000E+00 0.  1.
</event>
<event>
 5   0  0.6221259E+05  0.9118800E+02  0.7546771E-02  0.1180000E+00
      -11   -1    0    0    0    0  0.00000000000E+00  0.00000000000E+00  0.34996269501E-01  0.35000000000E-01  0.51099999109E-03 0.  1.
       11   -1    0    0    0    0 -0.00000000000E+00 -0.00000000000E+00 -0.34996269501E-01  0.35000000000E-01  0.51099999109E-03 0. -1.
       22    1    1    2    0    0 -0.49189509858E-08  0.64474009448E-08  0.31437764164E-06  0.31448221988E-06  0.00000000000E+00 0.  1.
       22    1    1    2    0    0  0.35187081742E-02 -0.10538146097E-02  0.34806410939E-01  0.34999686782E-01  0.00000000000E+00 0.  1.
       22    1    1    2    0    0 -0.35187032553E-02  0.10538081623E-02 -0.34806725316E-01  0.34999998735E-01  0.00000000000E+00 0. -1.
</event>
<event>
 5   0  0.6221259E+05  0.9118800E+02  0.7546771E-02  0.1180000E+00
      -11   -1    0    0    0    0  0.00000000000E+00  0.00000000000E+00  0.34996269501E-01  0.35000000000E-01  0.51099999109E-03 0. -1.
       11   -1    0    0    0    0 -0.00000000000E+00 -0.00000000000E+00 -0.34996269501E-01  0.35000000000E-01  0.51099999109E-03 0.  1.
       22    1    1    2    0    0  0.46119201911E-02 -0.25481185037E-01 -0.23496682746E-01  0.34966479645E-01  0.00000000000E+00 0.  1.
       22    1    1    2    0    0 -0.46074528094E-02  0.25471656994E-01  0.23540526595E-01  0.34988431285E-01  0.00000000000E+00 0. -1.
       22    1    1    2    0    0 -0.44673817224E-05  0.95280424853E-05 -0.43843848953E-04  0.45089069452E-04  0.00000000000E+00 0.  1.
</event>
<event>
 5   0  0.6221259E+05  0.9118800E+02  0.7546771E-02  0.1180000E+00
      -11   -1    0    0    0    0  0.00000000000E+00  0.00000000000E+00  0.34996269501E-01  0.35000000000E-01  0.51099999109E-03 0. -1.
       11   -1    0    0    0    0 -0.00000000000E+00 -0.00000000000E+00 -0.34996269501E-01  0.35000000000E-01  0.51099999109E-03 0.  1.
       22    1    1    2    0    0  0.64908951757E-02 -0.41744490260E-03 -0.34388513035E-01  0.34998225801E-01  0.00000000000E+00 0.  1.
       22    1    1    2    0    0 -0.64910107941E-02  0.41988807266E-03  0.34189744737E-01  0.34802990853E-01  0.00000000000E+00 0. -1.
       22    1    1    2    0    0  0.11561838098E-06 -0.24431700532E-05  0.19876829826E-03  0.19878334648E-03  0.00000000000E+00 0. -1.
</event>
<event>
 5   0  0.6221259E+05  0.9118800E+02  0.7546771E-02  0.1180000E+00
      -11   -1    0    0    0    0  0.00000000000E+00  0.00000000000E+00  0.34996269501E-01  0.35000000000E-01  0.51099999109E-03 0.  1.
       11   -1    0    0    0    0 -0.00000000000E+00 -0.00000000000E+00 -0.34996269501E-01  0.35000000000E-01  0.51099999109E-03 0. -1.
       22    1    1    2    0    0 -0.23653500928E-03  0.59786308895E-04 -0.34517122930E-01  0.34517985146E-01  0.00000000000E+00 0. -1.
       22    1    1    2    0    0 -0.00000000000E+00  0.00000000000E+00  0.34969276606E-01  0.34968238482E-01  0.00000000000E+00 0.  1.
       22    1    1    2    0    0  0.23653500928E-03 -0.59786308895E-04 -0.45215367629E-03  0.51377637190E-03  0.00000000000E+00 0.  1.
</event>
<event>
 5   0  0.6221259E+05  0.9118800E+02  0.7546771E-02  0.1180000E+00
      -11   -1    0    0    0    0  0.00000000000E+00  0.00000000000E+00  0.34996269501E-01  0.35000000000E-01  0.51099999109E-03 0. -1.
       11   -1    0    0    0    0 -0.00000000000E+00 -0.00000000000E+00 -0.34996269501E-01  0.35000000000E-01  0.51099999109E-03 0.  1.
       22    1    1    2    0    0  0.54702140653E-02 -0.39640215153E-02 -0.34341856806E-01  0.34999997677E-01  0.00000000000E+00 0.  1.
       22    1    1    2    0    0 -0.54702098315E-02  0.39640363266E-02  0.34341817099E-01  0.34999959732E-01  0.00000000000E+00 0. -1.
       22    1    1    2    0    0 -0.42338412060E-08 -0.14811311258E-07  0.39707058333E-07  0.42590501688E-07  0.00000000000E+00 0. -1.
</event>
<event>
 5   0  0.6221259E+05  0.9118800E+02  0.7546771E-02  0.1180000E+00
      -11   -1    0    0    0    0  0.00000000000E+00  0.00000000000E+00  0.34996269501E-01  0.35000000000E-01  0.51099999109E-03 0.  1.
       11   -1    0    0    0    0 -0.00000000000E+00 -0.00000000000E+00 -0.34996269501E-01  0.35000000000E-01  0.51099999109E-03 0. -1.
       22    1    1    2    0    0  0.16167806105E-01  0.25653208720E-01 -0.17478930546E-01  0.34999972642E-01  0.00000000000E+00 0. -1.
       22    1    1    2    0    0 -0.16167822095E-01 -0.25653210309E-01  0.17478841190E-01  0.34999936569E-01  0.00000000000E+00 0.  1.
       22    1    1    2    0    0  0.15990625760E-07  0.15890839154E-08  0.89356165657E-07  0.90789589936E-07  0.00000000000E+00 0.  1.
</event>
<event>
 5   0  0.6221259E+05  0.9118800E+02  0.7546771E-02  0.1180000E+00
      -11   -1    0    0    0    0  0.00000000000E+00  0.00000000000E+00  0.34996269501E-01  0.35000000000E-01  0.51099999109E-03 0.  1.
       11   -1    0    0    0    0 -0.00000000000E+00 -0.00000000000E+00 -0.34996269501E-01  0.35000000000E-01  0.51099999109E-03 0. -1.
       22    1    1    2    0    0  0.37052333326E-08  0.70816821533E-08  0.18576618645E-07  0.20223000184E-07  0.00000000000E+00 0. -1.
       22    1    1    2    0    0  0.28076007858E-02 -0.32689074745E-02  0.34733705265E-01  0.34999980853E-01  0.00000000000E+00 0.  1.
       22    1    1    2    0    0 -0.28076044910E-02  0.32689003928E-02 -0.34733723842E-01  0.34999998924E-01  0.00000000000E+00 0. -1.
</event>
<event>
 5   0  0.6221259E+05  0.9118800E+02  0.7546771E-02  0.1180000E+00
      -11   -1    0    0    0    0  0.00000000000E+00  0.00000000000E+00  0.34996269501E-01  0.35000000000E-01  0.51099999109E-03 0.  1.
       11   -1    0    0    0    0 -0.00000000000E+00 -0.00000000000E+00 -0.34996269501E-01  0.35000000000E-01  0.51099999109E-03 0. -1.
       22    1    1    2    0    0  0.50974303291E-02  0.24165205348E-01 -0.24800306492E-01  0.34999944965E-01  0.00000000000E+00 0. -1.
       22    1    1    2    0    0 -0.19551278115E-07 -0.44449719177E-07  0.48445051399E-06  0.48687814751E-06  0.00000000000E+00 0.  1.
       22    1    1    2    0    0 -0.50974107778E-02 -0.24165160898E-01  0.24799822042E-01  0.34999568157E-01  0.00000000000E+00 0.  1.
</event>
<event>
 5   0  0.6221259E+05  0.9118800E+02  0.7546771E-02  0.1180000E+00
      -11   -1    0    0    0    0  0.00000000000E+00  0.00000000000E+00  0.34996269501E-01  0.35000000000E-01  0.51099999109E-03 0.  1.
       11   -1    0    0    0    0 -0.00000000000E+00 -0.00000000000E+00 -0.34996269501E-01  0.35000000000E-01  0.51099999109E-03 0.  1.
       22    1    1    2    0    0 -0.58817163337E-03 -0.13558741656E-02  0.24425719182E-02  0.28549077391E-02  0.00000000000E+00 0. -1.
       22    1    1    2    0    0 -0.34559446028E-03  0.11007225787E-02 -0.34777023299E-01  0.34796154604E-01  0.00000000000E+00 0.  1.
       22    1    1    2    0    0  0.93376609365E-03  0.25515158692E-03  0.32334451380E-01  0.32348937657E-01  0.00000000000E+00 0.  1.
</event>
<event>
 5   0  0.6221259E+05  0.9118800E+02  0.7546771E-02  0.1180000E+00
      -11   -1    0    0    0    0  0.00000000000E+00  0.00000000000E+00  0.34996269501E-01  0.35000000000E-01  0.51099999109E-03 0.  1.
       11   -1    0    0    0    0 -0.00000000000E+00 -0.00000000000E+00 -0.34996269501E-01  0.35000000000E-01  0.51099999109E-03 0. -1.
       22    1    1    2    0    0 -0.18478071165E-06 -0.40697505837E-06  0.20857373070E-06  0.49322977472E-06  0.00000000000E+00 0. -1.
       22    1    1    2    0    0  0.22445001878E-03 -0.16871666232E-02 -0.34958439241E-01  0.34999848330E-01  0.00000000000E+00 0. -1.
       22    1    1    2    0    0 -0.22426523807E-03  0.16875735982E-02  0.34958230667E-01  0.34999658440E-01  0.00000000000E+00 0.  1.
</event>
<event>
 5   0  0.6221259E+05  0.9118800E+02  0.7546771E-02  0.1180000E+00
      -11   -1    0    0    0    0  0.00000000000E+00  0.00000000000E+00  0.34996269501E-01  0.35000000000E-01  0.51099999109E-03 0. -1.
       11   -1    0    0    0    0 -0.00000000000E+00 -0.00000000000E+00 -0.34996269501E-01  0.35000000000E-01  0.51099999109E-03 0.  1.
       22    1    1    2    0    0  0.13670812408E-02 -0.33329944926E-03 -0.33645096026E-01  0.33674507959E-01  0.00000000000E+00 0.  1.
       22    1    1    2    0    0 -0.44924438630E-03  0.29821541962E-03  0.34825586352E-01  0.34829760518E-01  0.00000000000E+00 0. -1.
       22    1    1    2    0    0 -0.91783685449E-03  0.35084029636E-04 -0.11804903259E-02  0.14957315234E-02  0.00000000000E+00 0. -1.
</event>
<event>
 5   0  0.6221259E+05  0.9118800E+02  0.7546771E-02  0.1180000E+00
      -11   -1    0    0    0    0  0.00000000000E+00  0.00000000000E+00  0.34996269501E-01  0.35000000000E-01  0.51099999109E-03 0. -1.
       11   -1    0    0    0    0 -0.00000000000E+00 -0.00000000000E+00 -0.34996269501E-01  0.35000000000E-01  0.51099999109E-03 0.  1.
       22    1    1    2    0    0 -0.13185650265E-02 -0.20061666755E-02  0.27212073917E-01  0.27317765013E-01  0.00000000000E+00 0. -1.
       22    1    1    2    0    0  0.80099225942E-03  0.10466362833E-02 -0.34896237464E-01  0.34921117183E-01  0.00000000000E+00 0.  1.
       22    1    1    2    0    0  0.51757276708E-03  0.95953039218E-03  0.76841635474E-02  0.77611178039E-02  0.00000000000E+00 0.  1.
</event>
<event>
 5   0  0.6221259E+05  0.9118800E+02  0.7546771E-02  0.1180000E+00
      -11   -1    0    0    0    0  0.00000000000E+00  0.00000000000E+00  0.34996269501E-01  0.35000000000E-01  0.51099999109E-03 0.  1.
       11   -1    0    0    0    0 -0.00000000000E+00 -0.00000000000E+00 -0.34996269501E-01  0.35000000000E-01  0.51099999109E-03 0. -1.
       22    1    1    2    0    0 -0.75386463261E-02  0.60459762314E-02  0.18597173721E-01  0.20958050659E-01  0.00000000000E+00 0.  1.
       22    1    1    2    0    0 -0.24554116596E-02  0.22438435244E-02  0.13770698581E-01  0.14166722259E-01  0.00000000000E+00 0.  1.
       22    1    1    2    0    0  0.99940579857E-02 -0.82898197558E-02 -0.32367872302E-01  0.34875227081E-01  0.00000000000E+00 0. -1.
</event>
<event>
 5   0  0.6221259E+05  0.9118800E+02  0.7546771E-02  0.1180000E+00
      -11   -1    0    0    0    0  0.00000000000E+00  0.00000000000E+00  0.34996269501E-01  0.35000000000E-01  0.51099999109E-03 0.  1.
       11   -1    0    0    0    0 -0.00000000000E+00 -0.00000000000E+00 -0.34996269501E-01  0.35000000000E-01  0.51099999109E-03 0. -1.
       22    1    1    2    0    0  0.18362563831E-02  0.12342282580E-02 -0.34856604273E-01  0.34926752187E-01  0.00000000000E+00 0. -1.
       22    1    1    2    0    0 -0.20752550824E-02 -0.13402850871E-02  0.34655346866E-01  0.34743288765E-01  0.00000000000E+00 0.  1.
       22    1    1    2    0    0  0.23899869929E-03  0.10605682915E-03  0.20125740683E-03  0.32995904758E-03  0.00000000000E+00 0. -1.
</event>
<event>
 5   0  0.6221259E+05  0.9118800E+02  0.7546771E-02  0.1180000E+00
      -11   -1    0    0    0    0  0.00000000000E+00  0.00000000000E+00  0.34996269501E-01  0.35000000000E-01  0.51099999109E-03 0. -1.
       11   -1    0    0    0    0 -0.00000000000E+00 -0.00000000000E+00 -0.34996269501E-01  0.35000000000E-01  0.51099999109E-03 0.  1.
       22    1    1    2    0    0 -0.11192925314E-01 -0.18611415173E-01  0.26669508551E-01  0.34393735449E-01  0.00000000000E+00 0. -1.
       22    1    1    2    0    0  0.11677644969E-01  0.18653670825E-01 -0.27131803153E-01  0.34935105118E-01  0.00000000000E+00 0.  1.
       22    1    1    2    0    0 -0.48471965520E-03 -0.42255652370E-04  0.46229460229E-03  0.67115943232E-03  0.00000000000E+00 0.  1.
</event>
<event>
 5   0  0.6221259E+05  0.9118800E+02  0.7546771E-02  0.1180000E+00
      -11   -1    0    0    0    0  0.00000000000E+00  0.00000000000E+00  0.34996269501E-01  0.35000000000E-01  0.51099999109E-03 0.  1.
       11   -1    0    0    0    0 -0.00000000000E+00 -0.00000000000E+00 -0.34996269501E-01  0.35000000000E-01  0.51099999109E-03 0. -1.
       22    1    1    2    0    0  0.49458513855E-02  0.16080614107E-02  0.34585031765E-01  0.34973872099E-01  0.00000000000E+00 0.  1.
       22    1    1    2    0    0  0.10570789566E-04  0.22688771657E-04  0.18683371698E-04  0.31234441397E-04  0.00000000000E+00 0. -1.
       22    1    1    2    0    0 -0.49564221751E-02 -0.16307501823E-02 -0.34603715137E-01  0.34994893459E-01  0.00000000000E+00 0. -1.
</event>
<event>
 5   0  0.6221259E+05  0.9118800E+02  0.7546771E-02  0.1180000E+00
      -11   -1    0    0    0    0  0.00000000000E+00  0.00000000000E+00  0.34996269501E-01  0.35000000000E-01  0.51099999109E-03 0. -1.
       11   -1    0    0    0    0 -0.00000000000E+00 -0.00000000000E+00 -0.34996269501E-01  0.35000000000E-01  0.51099999109E-03 0.  1.
       22    1    1    2    0    0 -0.62718036169E-02 -0.74419392723E-02  0.33244933866E-01  0.34640202201E-01  0.00000000000E+00 0. -1.
       22    1    1    2    0    0 -0.28274162895E-04 -0.43942563813E-04  0.35780763987E-03  0.36160293742E-03  0.00000000000E+00 0. -1.
       22    1    1    2    0    0  0.63000777798E-02  0.74858818361E-02 -0.33602741506E-01  0.34998194862E-01  0.00000000000E+00 0.  1.
</event>
<event>
 5   0  0.6221259E+05  0.9118800E+02  0.7546771E-02  0.1180000E+00
      -11   -1    0    0    0    0  0.00000000000E+00  0.00000000000E+00  0.34996269501E-01  0.35000000000E-01  0.51099999109E-03 0. -1.
       11   -1    0    0    0    0 -0.00000000000E+00 -0.00000000000E+00 -0.34996269501E-01  0.35000000000E-01  0.51099999109E-03 0.  1.
       22    1    1    2    0    0  0.20117203733E-01 -0.15420436422E-03 -0.28640431806E-01  0.34999999986E-01  0.00000000000E+00 0.  1.
       22    1    1    2    0    0 -0.20117203522E-01  0.15420426518E-03  0.28640431238E-01  0.34999999400E-01  0.00000000000E+00 0. -1.
       22    1    1    2    0    0 -0.21184917042E-09  0.99040779347E-10  0.56753717632E-09  0.61383026440E-09  0.00000000000E+00 0.  1.
</event>
<event>
 5   0  0.6221259E+05  0.9118800E+02  0.7546771E-02  0.1180000E+00
      -11   -1    0    0    0    0  0.00000000000E+00  0.00000000000E+00  0.34996269501E-01  0.35000000000E-01  0.51099999109E-03 0.  1.
       11   -1    0    0    0    0 -0.00000000000E+00 -0.00000000000E+00 -0.34996269501E-01  0.35000000000E-01  0.51099999109E-03 0.  1.
       22    1    1    2    0    0 -0.26912212493E-04  0.22665984086E-04 -0.18224968204E-04  0.39625288414E-04  0.00000000000E+00 0.  1.
       22    1    1    2    0    0  0.26912212493E-04 -0.22665984086E-04 -0.34971700725E-01  0.34971718425E-01  0.00000000000E+00 0.  1.
       22    1    1    2    0    0 -0.00000000000E+00  0.00000000000E+00  0.34989925693E-01  0.34988656287E-01  0.00000000000E+00 0.  1.
</event>
<event>
 5   0  0.6221259E+05  0.9118800E+02  0.7546771E-02  0.1180000E+00
      -11   -1    0    0    0    0  0.00000000000E+00  0.00000000000E+00  0.34996269501E-01  0.35000000000E-01  0.51099999109E-03 0.  1.
       11   -1    0    0    0    0 -0.00000000000E+00 -0.00000000000E+00 -0.34996269501E-01  0.35000000000E-01  0.51099999109E-03 0. -1.
       22    1    1    2    0    0 -0.65099009578E-02  0.38595342036E-02 -0.34171992232E-01  0.34999998112E-01  0.00000000000E+00 0. -1.
       22    1    1    2    0    0  0.65098960622E-02 -0.38595225651E-02  0.34171981116E-01  0.34999985065E-01  0.00000000000E+00 0.  1.
       22    1    1    2    0    0  0.48955997659E-08 -0.11638489645E-07  0.11116264748E-07  0.16822386283E-07  0.00000000000E+00 0.  1.
</event>
<event>
 5   0  0.6221259E+05  0.9118800E+02  0.7546771E-02  0.1180000E+00
      -11   -1    0    0    0    0  0.00000000000E+00  0.00000000000E+00  0.34996269501E-01  0.35000000000E-01  0.51099999109E-03 0.  1.
       11   -1    0    0    0    0 -0.00000000000E+00 -0.00000000000E+00 -0.34996269501E-01  0.35000000000E-01  0.51099999109E-03 0.  1.
       22    1    1    2    0    0 -0.14623079476E-09 -0.83784086175E-09  0.35001326499E-01  0.34999997374E-01  0.00000000000E+00 0.  1.
       22    1    1    2    0    0  0.10570504296E-13  0.60564537335E-13 -0.35001329057E-01  0.34999999931E-01  0.00000000000E+00 0.  1.
       22    1    1    2    0    0  0.14622022425E-09  0.83778029721E-09  0.25575490434E-08  0.26952390042E-08  0.00000000000E+00 0.  1.
</event>
<event>
 5   0  0.6221259E+05  0.9118800E+02  0.7546771E-02  0.1180000E+00
      -11   -1    0    0    0    0  0.00000000000E+00  0.00000000000E+00  0.34996269501E-01  0.35000000000E-01  0.51099999109E-03 0.  1.
       11   -1    0    0    0    0 -0.00000000000E+00 -0.00000000000E+00 -0.34996269501E-01  0.35000000000E-01  0.51099999109E-03 0. -1.
       22    1    1    2    0    0  0.13818057374E-02 -0.18719494503E-01 -0.53844907752E-02  0.19527457654E-01  0.00000000000E+00 0. -1.
       22    1    1    2    0    0  0.20773535595E-03  0.23248466128E-03 -0.19460698247E-01  0.19463195508E-01  0.00000000000E+00 0.  1.
       22    1    1    2    0    0 -0.15895410933E-02  0.18487009842E-01  0.24845189022E-01  0.31009346838E-01  0.00000000000E+00 0.  1.
</event>
<event>
 5   0  0.6221259E+05  0.9118800E+02  0.7546771E-02  0.1180000E+00
      -11   -1    0    0    0    0  0.00000000000E+00  0.00000000000E+00  0.34996269501E-01  0.35000000000E-01  0.51099999109E-03 0. -1.
       11   -1    0    0    0    0 -0.00000000000E+00 -0.00000000000E+00 -0.34996269501E-01  0.35000000000E-01  0.51099999109E-03 0.  1.
       22    1    1    2    0    0  0.38744553008E-06 -0.29312014099E-06  0.57599891865E-05  0.57804419281E-05  0.00000000000E+00 0.  1.
       22    1    1    2    0    0 -0.87354551226E-03 -0.36324711889E-02 -0.34799992484E-01  0.34999962937E-01  0.00000000000E+00 0.  1.
       22    1    1    2    0    0  0.87315806673E-03  0.36327643091E-02  0.34794232495E-01  0.34994256621E-01  0.00000000000E+00 0. -1.
</event>
<event>
 5   0  0.6221259E+05  0.9118800E+02  0.7546771E-02  0.1180000E+00
      -11   -1    0    0    0    0  0.00000000000E+00  0.00000000000E+00  0.34996269501E-01  0.35000000000E-01  0.51099999109E-03 0.  1.
       11   -1    0    0    0    0 -0.00000000000E+00 -0.00000000000E+00 -0.34996269501E-01  0.35000000000E-01  0.51099999109E-03 0. -1.
       22    1    1    2    0    0  0.19078280832E-02 -0.18297526829E-02  0.34834475850E-01  0.34934631966E-01  0.00000000000E+00 0.  1.
       22    1    1    2    0    0 -0.16106236032E-05 -0.13832636616E-05  0.65452178038E-04  0.65486602727E-04  0.00000000000E+00 0.  1.
       22    1    1    2    0    0 -0.19062174596E-02  0.18311359466E-02 -0.34899928028E-01  0.34999881431E-01  0.00000000000E+00 0. -1.
</event>
<event>
 5   0  0.6221259E+05  0.9118800E+02  0.7546771E-02  0.1180000E+00
      -11   -1    0    0    0    0  0.00000000000E+00  0.00000000000E+00  0.34996269501E-01  0.35000000000E-01  0.51099999109E-03 0.  1.
       11   -1    0    0    0    0 -0.00000000000E+00 -0.00000000000E+00 -0.34996269501E-01  0.35000000000E-01  0.51099999109E-03 0. -1.
       22    1    1    2    0    0 -0.77558702753E-02 -0.20420220392E-01 -0.27347029823E-01  0.34999985210E-01  0.00000000000E+00 0. -1.
       22    1    1    2    0    0  0.77557871643E-02  0.20420213201E-01  0.27346915725E-01  0.34999873448E-01  0.00000000000E+00 0.  1.
       22    1    1    2    0    0  0.83111087279E-07  0.71911982344E-08  0.11409785140E-06  0.14134173430E-06  0.00000000000E+00 0. -1.
</event>
<event>
 5   0  0.6221259E+05  0.9118800E+02  0.7546771E-02  0.1180000E+00
      -11   -1    0    0    0    0  0.00000000000E+00  0.00000000000E+00  0.34996269501E-01  0.35000000000E-01  0.51099999109E-03 0. -1.
       11   -1    0    0    0    0 -0.00000000000E+00 -0.00000000000E+00 -0.34996269501E-01  0.35000000000E-01  0.51099999109E-03 0.  1.
       22    1    1    2    0    0  0.92713531397E-02  0.64312334715E-02  0.33112868787E-01  0.34982578983E-01  0.00000000000E+00 0. -1.
       22    1    1    2    0    0  0.42265819798E-06  0.11171932165E-06  0.17828287571E-04  0.17833646820E-04  0.00000000000E+00 0.  1.
       22    1    1    2    0    0 -0.92717757979E-02 -0.64313451908E-02 -0.33130697075E-01  0.34999587370E-01  0.00000000000E+00 0.  1.
</event>
<event>
 5   0  0.6221259E+05  0.9118800E+02  0.7546771E-02  0.1180000E+00
      -11   -1    0    0    0    0  0.00000000000E+00  0.00000000000E+00  0.34996269501E-01  0.35000000000E-01  0.51099999109E-03 0. -1.
       11   -1    0    0    0    0 -0.00000000000E+00 -0.00000000000E+00 -0.34996269501E-01  0.35000000000E-01  0.51099999109E-03 0.  1.
       22    1    1    2    0    0 -0.58056444701E-03  0.55035530158E-03 -0.34950087697E-01  0.34959241640E-01  0.00000000000E+00 0.  1.
       22    1    1    2    0    0  0.15142598238E-02 -0.37150935323E-03  0.23141084603E-01  0.23193550798E-01  0.00000000000E+00 0. -1.
       22    1    1    2    0    0 -0.93369537682E-03 -0.17884594836E-03  0.11809003094E-01  0.11847207561E-01  0.00000000000E+00 0.  1.
</event>
<event>
 5   0  0.6221259E+05  0.9118800E+02  0.7546771E-02  0.1180000E+00
      -11   -1    0    0    0    0  0.00000000000E+00  0.00000000000E+00  0.34996269501E-01  0.35000000000E-01  0.51099999109E-03 0.  1.
       11   -1    0    0    0    0 -0.00000000000E+00 -0.00000000000E+00 -0.34996269501E-01  0.35000000000E-01  0.51099999109E-03 0. -1.
       22    1    1    2    0    0 -0.38432593742E-06 -0.45602251248E-06  0.12462420482E-05  0.13815868416E-05  0.00000000000E+00 0.  1.
       22    1    1    2    0    0  0.23706739613E-02  0.29107918072E-03  0.34917106852E-01  0.34998702448E-01  0.00000000000E+00 0.  1.
       22    1    1    2    0    0 -0.23702896354E-02 -0.29062315821E-03 -0.34918353094E-01  0.34999915965E-01  0.00000000000E+00 0. -1.
</event>
<event>
 5   0  0.6221259E+05  0.9118800E+02  0.7546771E-02  0.1180000E+00
      -11   -1    0    0    0    0  0.00000000000E+00  0.00000000000E+00  0.34996269501E-01  0.35000000000E-01  0.51099999109E-03 0. -1.
       11   -1    0    0    0    0 -0.00000000000E+00 -0.00000000000E+00 -0.34996269501E-01  0.35000000000E-01  0.51099999109E-03 0.  1.
       22    1    1    2    0    0 -0.31213800509E-02  0.14200422337E-01  0.31813730842E-01  0.34978686054E-01  0.00000000000E+00 0. -1.
       22    1    1    2    0    0  0.31182253216E-02 -0.14201264829E-01 -0.31835897088E-01  0.34998908488E-01  0.00000000000E+00 0.  1.
       22    1    1    2    0    0  0.31547293071E-05  0.84249260485E-06  0.22166245977E-04  0.22405458520E-04  0.00000000000E+00 0. -1.
</event>
<event>
 5   0  0.6221259E+05  0.9118800E+02  0.7546771E-02  0.1180000E+00
      -11   -1    0    0    0    0  0.00000000000E+00  0.00000000000E+00  0.34996269501E-01  0.35000000000E-01  0.51099999109E-03 0. -1.
       11   -1    0    0    0    0 -0.00000000000E+00 -0.00000000000E+00 -0.34996269501E-01  0.35000000000E-01  0.51099999109E-03 0. -1.
       22    1    1    2    0    0 -0.12547248234E-04 -0.19935333704E-05  0.29767447593E-05  0.13048701962E-04  0.00000000000E+00 0. -1.
       22    1    1    2    0    0 -0.15153761366E-03 -0.19758532957E-03  0.34991067386E-01  0.34991953367E-01  0.00000000000E+00 0. -1.
       22    1    1    2    0    0  0.16408486189E-03  0.19957886294E-03 -0.34994044131E-01  0.34994997931E-01  0.00000000000E+00 0. -1.
</event>
<event>
 5   0  0.6221259E+05  0.9118800E+02  0.7546771E-02  0.1180000E+00
      -11   -1    0    0    0    0  0.00000000000E+00  0.00000000000E+00  0.34996269501E-01  0.35000000000E-01  0.51099999109E-03 0.  1.
       11   -1    0    0    0    0 -0.00000000000E+00 -0.00000000000E+00 -0.34996269501E-01  0.35000000000E-01  0.51099999109E-03 0.  1.
       22    1    1    2    0    0  0.20418599430E-06 -0.18032420337E-06  0.34999506205E-01  0.34999341146E-01  0.00000000000E+00 0.  1.
       22    1    1    2    0    0 -0.20417463040E-06  0.18031416749E-06  0.63069764510E-06  0.68700800449E-06  0.00000000000E+00 0. -1.
       22    1    1    2    0    0 -0.11363896628E-10  0.10035877405E-10 -0.35000136903E-01  0.34999971846E-01  0.00000000000E+00 0.  1.
</event>
<event>
 5   0  0.6221259E+05  0.9118800E+02  0.7546771E-02  0.1180000E+00
      -11   -1    0    0    0    0  0.00000000000E+00  0.00000000000E+00  0.34996269501E-01  0.35000000000E-01  0.51099999109E-03 0.  1.
       11   -1    0    0    0    0 -0.00000000000E+00 -0.00000000000E+00 -0.34996269501E-01  0.35000000000E-01  0.51099999109E-03 0. -1.
       22    1    1    2    0    0 -0.11315875641E-02  0.86907167251E-03 -0.34682734862E-01  0.34712071005E-01  0.00000000000E+00 0. -1.
       22    1    1    2    0    0  0.69018591355E-03 -0.65381569404E-03  0.45026429472E-03  0.10519360685E-02  0.00000000000E+00 0. -1.
       22    1    1    2    0    0  0.44140165059E-03 -0.21525597847E-03  0.34232470567E-01  0.34235992926E-01  0.00000000000E+00 0.  1.
</event>
<event>
 5   0  0.6221259E+05  0.9118800E+02  0.7546771E-02  0.1180000E+00
      -11   -1    0    0    0    0  0.00000000000E+00  0.00000000000E+00  0.34996269501E-01  0.35000000000E-01  0.51099999109E-03 0.  1.
       11   -1    0    0    0    0 -0.00000000000E+00 -0.00000000000E+00 -0.34996269501E-01  0.35000000000E-01  0.51099999109E-03 0. -1.
       22    1    1    2    0    0 -0.21812069529E-03  0.34099553548E-02  0.34716912323E-01  0.34884658138E-01  0.00000000000E+00 0.  1.
       22    1    1    2    0    0  0.20538495873E-03 -0.34913864444E-02 -0.34813289470E-01  0.34988527920E-01  0.00000000000E+00 0. -1.
       22    1    1    2    0    0  0.12735736551E-04  0.81431089666E-04  0.96377146750E-04  0.12681394153E-03  0.00000000000E+00 0.  1.
</event>
<event>
 5   0  0.6221259E+05  0.9118800E+02  0.7546771E-02  0.1180000E+00
      -11   -1    0    0    0    0  0.00000000000E+00  0.00000000000E+00  0.34996269501E-01  0.35000000000E-01  0.51099999109E-03 0.  1.
       11   -1    0    0    0    0 -0.00000000000E+00 -0.00000000000E+00 -0.34996269501E-01  0.35000000000E-01  0.51099999109E-03 0. -1.
       22    1    1    2    0    0 -0.12860588084E-01 -0.52148197611E-02 -0.32131151819E-01  0.34999999832E-01  0.00000000000E+00 0. -1.
       22    1    1    2    0    0  0.13167420053E-08 -0.62229256996E-09  0.70561951546E-08  0.72049252328E-08  0.00000000000E+00 0.  1.
       22    1    1    2    0    0  0.12860586767E-01  0.52148203834E-02  0.32131144763E-01  0.34999992963E-01  0.00000000000E+00 0.  1.
</event>
<event>
 5   0  0.6221259E+05  0.9118800E+02  0.7546771E-02  0.1180000E+00
      -11   -1    0    0    0    0  0.00000000000E+00  0.00000000000E+00  0.34996269501E-01  0.35000000000E-01  0.51099999109E-03 0.  1.
       11   -1    0    0    0    0 -0.00000000000E+00 -0.00000000000E+00 -0.34996269501E-01  0.35000000000E-01  0.51099999109E-03 0. -1.
       22    1    1    2    0    0  0.51583038377E-03  0.54784393449E-03  0.54342177247E-03  0.92818165473E-03  0.00000000000E+00 0. -1.
       22    1    1    2    0    0  0.12338162901E-03  0.41349426890E-03 -0.34796557784E-01  0.34799233241E-01  0.00000000000E+00 0. -1.
       22    1    1    2    0    0 -0.63921201279E-03 -0.96133820339E-03  0.34253136011E-01  0.34272585105E-01  0.00000000000E+00 0.  1.
</event>
<event>
 5   0  0.6221259E+05  0.9118800E+02  0.7546771E-02  0.1180000E+00
      -11   -1    0    0    0    0  0.00000000000E+00  0.00000000000E+00  0.34996269501E-01  0.35000000000E-01  0.51099999109E-03 0.  1.
       11   -1    0    0    0    0 -0.00000000000E+00 -0.00000000000E+00 -0.34996269501E-01  0.35000000000E-01  0.51099999109E-03 0. -1.
       22    1    1    2    0    0  0.17659738508E-04  0.41167771146E-04 -0.82095587706E-03  0.82217711220E-03  0.00000000000E+00 0. -1.
       22    1    1    2    0    0 -0.10335906619E-02 -0.65831343530E-02 -0.33534559039E-01  0.34190241554E-01  0.00000000000E+00 0. -1.
       22    1    1    2    0    0  0.10159309234E-02  0.65419665819E-02  0.34355514916E-01  0.34987581334E-01  0.00000000000E+00 0.  1.
</event>
<event>
 5   0  0.6221259E+05  0.9118800E+02  0.7546771E-02  0.1180000E+00
      -11   -1    0    0    0    0  0.00000000000E+00  0.00000000000E+00  0.34996269501E-01  0.35000000000E-01  0.51099999109E-03 0.  1.
       11   -1    0    0    0    0 -0.00000000000E+00 -0.00000000000E+00 -0.34996269501E-01  0.35000000000E-01  0.51099999109E-03 0. -1.
       22    1    1    2    0    0 -0.23521413189E-01  0.17195126176E-01 -0.55231404927E-02  0.29655257940E-01  0.00000000000E+00 0.  1.
       22    1    1    2    0    0  0.23320416794E-01 -0.16916633759E-01  0.13881141322E-01  0.31979687640E-01  0.00000000000E+00 0. -1.
       22    1    1    2    0    0  0.20099639484E-03 -0.27849241735E-03 -0.83580008297E-02  0.83650544198E-02  0.00000000000E+00 0. -1.
</event>
<event>
 5   0  0.6221259E+05  0.9118800E+02  0.7546771E-02  0.1180000E+00
      -11   -1    0    0    0    0  0.00000000000E+00  0.00000000000E+00  0.34996269501E-01  0.35000000000E-01  0.51099999109E-03 0.  1.
       11   -1    0    0    0    0 -0.00000000000E+00 -0.00000000000E+00 -0.34996269501E-01  0.35000000000E-01  0.51099999109E-03 0. -1.
       22    1    1    2    0    0 -0.12785852485E-03  0.14844455863E-02  0.28512309163E-01  0.28551211889E-01  0.00000000000E+00 0.  1.
       22    1    1    2    0    0  0.19131971425E-03  0.76952830680E-04  0.64491380959E-02  0.64524342036E-02  0.00000000000E+00 0.  1.
       22    1    1    2    0    0 -0.63461189391E-04 -0.15613984170E-02 -0.34961447259E-01  0.34996353907E-01  0.00000000000E+00 0. -1.
</event>
<event>
 5   0  0.6221259E+05  0.9118800E+02  0.7546771E-02  0.1180000E+00
      -11   -1    0    0    0    0  0.00000000000E+00  0.00000000000E+00  0.34996269501E-01  0.35000000000E-01  0.51099999109E-03 0.  1.
       11   -1    0    0    0    0 -0.00000000000E+00 -0.00000000000E+00 -0.34996269501E-01  0.35000000000E-01  0.51099999109E-03 0. -1.
       22    1    1    2    0    0  0.91881799383E-03 -0.17537447333E-01  0.15790893575E-01  0.23616913544E-01  0.00000000000E+00 0.  1.
       22    1    1    2    0    0 -0.10110434477E-02  0.17576982703E-01 -0.28593994256E-01  0.33579592572E-01  0.00000000000E+00 0. -1.
       22    1    1    2    0    0  0.92225453868E-04 -0.39535370614E-04  0.12803100681E-01  0.12803493884E-01  0.00000000000E+00 0. -1.
</event>
<event>
 5   0  0.6221259E+05  0.9118800E+02  0.7546771E-02  0.1180000E+00
      -11   -1    0    0    0    0  0.00000000000E+00  0.00000000000E+00  0.34996269501E-01  0.35000000000E-01  0.51099999109E-03 0. -1.
       11   -1    0    0    0    0 -0.00000000000E+00 -0.00000000000E+00 -0.34996269501E-01  0.35000000000E-01  0.51099999109E-03 0.  1.
       22    1    1    2    0    0 -0.10293668450E-01 -0.21180247356E-01  0.25883082318E-01  0.34992805524E-01  0.00000000000E+00 0. -1.
       22    1    1    2    0    0 -0.25702978485E-05  0.10572603836E-05  0.79322554867E-05  0.84050525075E-05  0.00000000000E+00 0.  1.
       22    1    1    2    0    0  0.10296238748E-01  0.21179190096E-01 -0.25891014573E-01  0.34998789423E-01  0.00000000000E+00 0.  1.
</event>
<event>
 5   0  0.6221259E+05  0.9118800E+02  0.7546771E-02  0.1180000E+00
      -11   -1    0    0    0    0  0.00000000000E+00  0.00000000000E+00  0.34996269501E-01  0.35000000000E-01  0.51099999109E-03 0.  1.
       11   -1    0    0    0    0 -0.00000000000E+00 -0.00000000000E+00 -0.34996269501E-01  0.35000000000E-01  0.51099999109E-03 0. -1.
       22    1    1    2    0    0  0.77619907777E-02 -0.15575836827E-01  0.30357928513E-01  0.34992270822E-01  0.00000000000E+00 0.  1.
       22    1    1    2    0    0 -0.77651467387E-02  0.15588519497E-01 -0.30351781620E-01  0.34993286377E-01  0.00000000000E+00 0. -1.
       22    1    1    2    0    0  0.31559610306E-05 -0.12682669344E-04 -0.61468927045E-05  0.14442800339E-04  0.00000000000E+00 0.  1.
</event>
<event>
 5   0  0.6221259E+05  0.9118800E+02  0.7546771E-02  0.1180000E+00
      -11   -1    0    0    0    0  0.00000000000E+00  0.00000000000E+00  0.34996269501E-01  0.35000000000E-01  0.51099999109E-03 0. -1.
       11   -1    0    0    0    0 -0.00000000000E+00 -0.00000000000E+00 -0.34996269501E-01  0.35000000000E-01  0.51099999109E-03 0.  1.
       22    1    1    2    0    0 -0.83393115503E-03  0.85305639239E-02  0.33900881793E-01  0.34967638588E-01  0.00000000000E+00 0. -1.
       22    1    1    2    0    0  0.87414630602E-03 -0.85585561895E-02 -0.32160851299E-01  0.33291641175E-01  0.00000000000E+00 0.  1.
       22    1    1    2    0    0 -0.40215150987E-04  0.27992265575E-04 -0.17400304941E-02  0.17407202376E-02  0.00000000000E+00 0. -1.
</event>
<event>
 5   0  0.6221259E+05  0.9118800E+02  0.7546771E-02  0.1180000E+00
      -11   -1    0    0    0    0  0.00000000000E+00  0.00000000000E+00  0.34996269501E-01  0.35000000000E-01  0.51099999109E-03 0. -1.
       11   -1    0    0    0    0 -0.00000000000E+00 -0.00000000000E+00 -0.34996269501E-01  0.35000000000E-01  0.51099999109E-03 0.  1.
       22    1    1    2    0    0  0.31344988513E-04 -0.34055090911E-03 -0.14104770723E-01  0.14108916138E-01  0.00000000000E+00 0.  1.
       22    1    1    2    0    0  0.33926877356E-03  0.25491351362E-02  0.34890459783E-01  0.34985102217E-01  0.00000000000E+00 0. -1.
       22    1    1    2    0    0 -0.37061376207E-03 -0.22085842271E-02 -0.20785689060E-01  0.20905981645E-01  0.00000000000E+00 0.  1.
</event>
<event>
 5   0  0.6221259E+05  0.9118800E+02  0.7546771E-02  0.1180000E+00
      -11   -1    0    0    0    0  0.00000000000E+00  0.00000000000E+00  0.34996269501E-01  0.35000000000E-01  0.51099999109E-03 0.  1.
       11   -1    0    0    0    0 -0.00000000000E+00 -0.00000000000E+00 -0.34996269501E-01  0.35000000000E-01  0.51099999109E-03 0.  1.
       22    1    1    2    0    0 -0.54196043660E-04 -0.56643538808E-04  0.12081461558E-02  0.12106869271E-02  0.00000000000E+00 0. -1.
       22    1    1    2    0    0 -0.92638788232E-03 -0.85408558003E-04  0.33777164949E-01  0.33789974269E-01  0.00000000000E+00 0.  1.
       22    1    1    2    0    0  0.98058392598E-03  0.14205209681E-03 -0.34985311104E-01  0.34999338804E-01  0.00000000000E+00 0.  1.
</event>
<event>
 5   0  0.6221259E+05  0.9118800E+02  0.7546771E-02  0.1180000E+00
      -11   -1    0    0    0    0  0.00000000000E+00  0.00000000000E+00  0.34996269501E-01  0.35000000000E-01  0.51099999109E-03 0. -1.
       11   -1    0    0    0    0 -0.00000000000E+00 -0.00000000000E+00 -0.34996269501E-01  0.35000000000E-01  0.51099999109E-03 0.  1.
       22    1    1    2    0    0 -0.54693884771E-06 -0.50255541249E-06  0.32602078421E-05  0.33437492758E-05  0.00000000000E+00 0. -1.
       22    1    1    2    0    0  0.22136360837E-02 -0.91463161522E-03  0.34914655303E-01  0.34996712569E-01  0.00000000000E+00 0. -1.
       22    1    1    2    0    0 -0.22130891448E-02  0.91513417064E-03 -0.34917915511E-01  0.34999943682E-01  0.00000000000E+00 0.  1.
</event>
<event>
 5   0  0.6221259E+05  0.9118800E+02  0.7546771E-02  0.1180000E+00
      -11   -1    0    0    0    0  0.00000000000E+00  0.00000000000E+00  0.34996269501E-01  0.35000000000E-01  0.51099999109E-03 0. -1.
       11   -1    0    0    0    0 -0.00000000000E+00 -0.00000000000E+00 -0.34996269501E-01  0.35000000000E-01  0.51099999109E-03 0.  1.
       22    1    1    2    0    0 -0.32641638704E-03 -0.78459196563E-03  0.11126869890E-02  0.14000730502E-02  0.00000000000E+00 0. -1.
       22    1    1    2    0    0  0.31641347805E-01 -0.18941220598E-02 -0.13973232681E-01  0.34641215637E-01  0.00000000000E+00 0.  1.
       22    1    1    2    0    0 -0.31314931418E-01  0.26787140254E-02  0.12860545692E-01  0.33958711313E-01  0.00000000000E+00 0. -1.
</event>
<event>
 5   0  0.6221259E+05  0.9118800E+02  0.7546771E-02  0.1180000E+00
      -11   -1    0    0    0    0  0.00000000000E+00  0.00000000000E+00  0.34996269501E-01  0.35000000000E-01  0.51099999109E-03 0. -1.
       11   -1    0    0    0    0 -0.00000000000E+00 -0.00000000000E+00 -0.34996269501E-01  0.35000000000E-01  0.51099999109E-03 0.  1.
       22    1    1    2    0    0 -0.20866178114E-02  0.65374640291E-03  0.34852287000E-01  0.34920814243E-01  0.00000000000E+00 0. -1.
       22    1    1    2    0    0  0.22161009819E-02 -0.81649228716E-03 -0.34778371857E-01  0.34858469734E-01  0.00000000000E+00 0.  1.
       22    1    1    2    0    0 -0.12948317050E-03  0.16274588425E-03 -0.73915143451E-04  0.22071602279E-03  0.00000000000E+00 0.  1.
</event>
<event>
 5   0  0.6221259E+05  0.9118800E+02  0.7546771E-02  0.1180000E+00
      -11   -1    0    0    0    0  0.00000000000E+00  0.00000000000E+00  0.34996269501E-01  0.35000000000E-01  0.51099999109E-03 0.  1.
       11   -1    0    0    0    0 -0.00000000000E+00 -0.00000000000E+00 -0.34996269501E-01  0.35000000000E-01  0.51099999109E-03 0. -1.
       22    1    1    2    0    0 -0.49911520324E-07 -0.39662134741E-07  0.15321762414E-06  0.16595145417E-06  0.00000000000E+00 0.  1.
       22    1    1    2    0    0 -0.12398134809E-01 -0.12339209537E-02 -0.32707219808E-01  0.34999979075E-01  0.00000000000E+00 0. -1.
       22    1    1    2    0    0  0.12398184721E-01  0.12339606158E-02  0.32707066591E-01  0.34999854973E-01  0.00000000000E+00 0.  1.
</event>
<event>
 5   0  0.6221259E+05  0.9118800E+02  0.7546771E-02  0.1180000E+00
      -11   -1    0    0    0    0  0.00000000000E+00  0.00000000000E+00  0.34996269501E-01  0.35000000000E-01  0.51099999109E-03 0. -1.
       11   -1    0    0    0    0 -0.00000000000E+00 -0.00000000000E+00 -0.34996269501E-01  0.35000000000E-01  0.51099999109E-03 0.  1.
       22    1    1    2    0    0  0.81301864932E-05 -0.10646534200E-04  0.49418080035E-04  0.51201516162E-04  0.00000000000E+00 0. -1.
       22    1    1    2    0    0  0.56221225900E-02  0.80218107396E-02 -0.33599855764E-01  0.34998685937E-01  0.00000000000E+00 0.  1.
       22    1    1    2    0    0 -0.56302527765E-02 -0.80111642054E-02  0.33550437684E-01  0.34950112547E-01  0.00000000000E+00 0. -1.
</event>
<event>
 5   0  0.6221259E+05  0.9118800E+02  0.7546771E-02  0.1180000E+00
      -11   -1    0    0    0    0  0.00000000000E+00  0.00000000000E+00  0.34996269501E-01  0.35000000000E-01  0.51099999109E-03 0. -1.
       11   -1    0    0    0    0 -0.00000000000E+00 -0.00000000000E+00 -0.34996269501E-01  0.35000000000E-01  0.51099999109E-03 0. -1.
       22    1    1    2    0    0  0.64223447507E-08  0.36814534038E-08  0.29286598867E-08  0.79609459233E-08  0.00000000000E+00 0.  1.
       22    1    1    2    0    0 -0.23861168682E-03  0.85047159084E-04  0.34999077867E-01  0.34999994573E-01  0.00000000000E+00 0. -1.
       22    1    1    2    0    0  0.23860526447E-03 -0.85050840538E-04 -0.34999080796E-01  0.34999997466E-01  0.00000000000E+00 0. -1.
</event>
<event>
 5   0  0.6221259E+05  0.9118800E+02  0.7546771E-02  0.1180000E+00
      -11   -1    0    0    0    0  0.00000000000E+00  0.00000000000E+00  0.34996269501E-01  0.35000000000E-01  0.51099999109E-03 0. -1.
       11   -1    0    0    0    0 -0.00000000000E+00 -0.00000000000E+00 -0.34996269501E-01  0.35000000000E-01  0.51099999109E-03 0.  1.
       22    1    1    2    0    0 -0.29220446656E-02  0.64849410947E-03 -0.20010146450E-01  0.20232766756E-01  0.00000000000E+00 0.  1.
       22    1    1    2    0    0 -0.28334107002E-02 -0.86037917207E-02  0.32580613161E-01  0.33816413206E-01  0.00000000000E+00 0. -1.
       22    1    1    2    0    0  0.57554553657E-02  0.79552976112E-02 -0.12570466711E-01  0.15950820038E-01  0.00000000000E+00 0.  1.
</event>
<event>
 5   0  0.6221259E+05  0.9118800E+02  0.7546771E-02  0.1180000E+00
      -11   -1    0    0    0    0  0.00000000000E+00  0.00000000000E+00  0.34996269501E-01  0.35000000000E-01  0.51099999109E-03 0. -1.
       11   -1    0    0    0    0 -0.00000000000E+00 -0.00000000000E+00 -0.34996269501E-01  0.35000000000E-01  0.51099999109E-03 0.  1.
       22    1    1    2    0    0  0.93404772043E-02  0.12917678664E-01  0.84774904492E-02  0.18054882464E-01  0.00000000000E+00 0. -1.
       22    1    1    2    0    0 -0.90037883425E-02 -0.12580430293E-01 -0.28227729126E-01  0.32189130503E-01  0.00000000000E+00 0.  1.
       22    1    1    2    0    0 -0.33668886185E-03 -0.33724837061E-03  0.19750238677E-01  0.19755987033E-01  0.00000000000E+00 0. -1.
</event>
<event>
 5   0  0.6221259E+05  0.9118800E+02  0.7546771E-02  0.1180000E+00
      -11   -1    0    0    0    0  0.00000000000E+00  0.00000000000E+00  0.34996269501E-01  0.35000000000E-01  0.51099999109E-03 0.  1.
       11   -1    0    0    0    0 -0.00000000000E+00 -0.00000000000E+00 -0.34996269501E-01  0.35000000000E-01  0.51099999109E-03 0. -1.
       22    1    1    2    0    0  0.76957698915E-02 -0.10638473315E-03 -0.34142946939E-01  0.34999671679E-01  0.00000000000E+00 0. -1.
       22    1    1    2    0    0  0.92497205446E-06 -0.45377565552E-07  0.17497592818E-04  0.17522082834E-04  0.00000000000E+00 0.  1.
       22    1    1    2    0    0 -0.76966948635E-02  0.10643011071E-03  0.34125449347E-01  0.34982806238E-01  0.00000000000E+00 0.  1.
</event>
<event>
 5   0  0.6221259E+05  0.9118800E+02  0.7546771E-02  0.1180000E+00
      -11   -1    0    0    0    0  0.00000000000E+00  0.00000000000E+00  0.34996269501E-01  0.35000000000E-01  0.51099999109E-03 0. -1.
       11   -1    0    0    0    0 -0.00000000000E+00 -0.00000000000E+00 -0.34996269501E-01  0.35000000000E-01  0.51099999109E-03 0.  1.
       22    1    1    2    0    0  0.76084776225E-02 -0.55078930482E-02 -0.33714942221E-01  0.34998902076E-01  0.00000000000E+00 0.  1.
       22    1    1    2    0    0 -0.75893756240E-02  0.54943414968E-02  0.33522867213E-01  0.34807600277E-01  0.00000000000E+00 0. -1.
       22    1    1    2    0    0 -0.19101998476E-04  0.13551551396E-04  0.19207500740E-03  0.19349764691E-03  0.00000000000E+00 0.  1.
</event>
<event>
 5   0  0.6221259E+05  0.9118800E+02  0.7546771E-02  0.1180000E+00
      -11   -1    0    0    0    0  0.00000000000E+00  0.00000000000E+00  0.34996269501E-01  0.35000000000E-01  0.51099999109E-03 0.  1.
       11   -1    0    0    0    0 -0.00000000000E+00 -0.00000000000E+00 -0.34996269501E-01  0.35000000000E-01  0.51099999109E-03 0.  1.
       22    1    1    2    0    0  0.55940050083E-08  0.43144428988E-07  0.41388422572E-06  0.41616449505E-06  0.00000000000E+00 0.  1.
       22    1    1    2    0    0  0.74750968040E-03 -0.79578873576E-03  0.34982551869E-01  0.34999585507E-01  0.00000000000E+00 0.  1.
       22    1    1    2    0    0 -0.74751527441E-03  0.79574559133E-03 -0.34982965753E-01  0.34999998328E-01  0.00000000000E+00 0.  1.
</event>
<event>
 5   0  0.6221259E+05  0.9118800E+02  0.7546771E-02  0.1180000E+00
      -11   -1    0    0    0    0  0.00000000000E+00  0.00000000000E+00  0.34996269501E-01  0.35000000000E-01  0.51099999109E-03 0.  1.
       11   -1    0    0    0    0 -0.00000000000E+00 -0.00000000000E+00 -0.34996269501E-01  0.35000000000E-01  0.51099999109E-03 0. -1.
       22    1    1    2    0    0  0.69518779540E-02  0.31244436714E-02  0.32671552636E-01  0.33548786967E-01  0.00000000000E+00 0.  1.
       22    1    1    2    0    0 -0.45353985482E-02 -0.13523346375E-02 -0.12607161723E-02  0.48977601237E-02  0.00000000000E+00 0. -1.
       22    1    1    2    0    0 -0.24164794058E-02 -0.17721090339E-02 -0.31410836463E-01  0.31553452909E-01  0.00000000000E+00 0. -1.
</event>
<event>
 5   0  0.6221259E+05  0.9118800E+02  0.7546771E-02  0.1180000E+00
      -11   -1    0    0    0    0  0.00000000000E+00  0.00000000000E+00  0.34996269501E-01  0.35000000000E-01  0.51099999109E-03 0. -1.
       11   -1    0    0    0    0 -0.00000000000E+00 -0.00000000000E+00 -0.34996269501E-01  0.35000000000E-01  0.51099999109E-03 0.  1.
       22    1    1    2    0    0 -0.12024907434E-02 -0.10273724653E-03  0.34978112907E-01  0.34998927433E-01  0.00000000000E+00 0. -1.
       22    1    1    2    0    0  0.12025129596E-02  0.10273894543E-03 -0.34979185293E-01  0.34999999950E-01  0.00000000000E+00 0.  1.
       22    1    1    2    0    0 -0.22216243964E-07 -0.16989007045E-08  0.10723855883E-05  0.10726170322E-05  0.00000000000E+00 0. -1.
</event>
<event>
 5   0  0.6221259E+05  0.9118800E+02  0.7546771E-02  0.1180000E+00
      -11   -1    0    0    0    0  0.00000000000E+00  0.00000000000E+00  0.34996269501E-01  0.35000000000E-01  0.51099999109E-03 0.  1.
       11   -1    0    0    0    0 -0.00000000000E+00 -0.00000000000E+00 -0.34996269501E-01  0.35000000000E-01  0.51099999109E-03 0. -1.
       22    1    1    2    0    0 -0.33538573818E-02 -0.85491057748E-02  0.33762659763E-01  0.34989323560E-01  0.00000000000E+00 0.  1.
       22    1    1    2    0    0  0.32602131669E-02  0.85341008446E-02 -0.32967484807E-01  0.34209865852E-01  0.00000000000E+00 0. -1.
       22    1    1    2    0    0  0.93644214857E-04  0.15004930195E-04 -0.79517495626E-03  0.80081058807E-03  0.00000000000E+00 0. -1.
</event>
<event>
 5   0  0.6221259E+05  0.9118800E+02  0.7546771E-02  0.1180000E+00
      -11   -1    0    0    0    0  0.00000000000E+00  0.00000000000E+00  0.34996269501E-01  0.35000000000E-01  0.51099999109E-03 0. -1.
       11   -1    0    0    0    0 -0.00000000000E+00 -0.00000000000E+00 -0.34996269501E-01  0.35000000000E-01  0.51099999109E-03 0.  1.
       22    1    1    2    0    0  0.15601945601E-01 -0.13885577152E-01 -0.28074043025E-01  0.34991168188E-01  0.00000000000E+00 0.  1.
       22    1    1    2    0    0  0.58821652901E-05 -0.76533585712E-05  0.56454611520E-04  0.57273876487E-04  0.00000000000E+00 0.  1.
       22    1    1    2    0    0 -0.15607827767E-01  0.13893230510E-01  0.28017588414E-01  0.34951557936E-01  0.00000000000E+00 0. -1.
</event>
<event>
 5   0  0.6221259E+05  0.9118800E+02  0.7546771E-02  0.1180000E+00
      -11   -1    0    0    0    0  0.00000000000E+00  0.00000000000E+00  0.34996269501E-01  0.35000000000E-01  0.51099999109E-03 0.  1.
       11   -1    0    0    0    0 -0.00000000000E+00 -0.00000000000E+00 -0.34996269501E-01  0.35000000000E-01  0.51099999109E-03 0. -1.
       22    1    1    2    0    0 -0.77292592337E-02 -0.25435716635E-01  0.22683281282E-01  0.34946364314E-01  0.00000000000E+00 0.  1.
       22    1    1    2    0    0  0.94126791621E-06 -0.20708750501E-05  0.64216925763E-04  0.64257202423E-04  0.00000000000E+00 0. -1.
       22    1    1    2    0    0  0.77283179658E-02  0.25437787510E-01 -0.22747498208E-01  0.34989378484E-01  0.00000000000E+00 0. -1.
</event>
<event>
 5   0  0.6221259E+05  0.9118800E+02  0.7546771E-02  0.1180000E+00
      -11   -1    0    0    0    0  0.00000000000E+00  0.00000000000E+00  0.34996269501E-01  0.35000000000E-01  0.51099999109E-03 0. -1.
       11   -1    0    0    0    0 -0.00000000000E+00 -0.00000000000E+00 -0.34996269501E-01  0.35000000000E-01  0.51099999109E-03 0.  1.
       22    1    1    2    0    0 -0.31630484420E-02  0.10171998175E-02  0.34841905935E-01  0.34999971144E-01  0.00000000000E+00 0. -1.
       22    1    1    2    0    0  0.52733215269E-07 -0.39302593781E-07 -0.21951317584E-08  0.65805049000E-07  0.00000000000E+00 0.  1.
       22    1    1    2    0    0  0.31629957088E-02 -0.10171605149E-02 -0.34841903740E-01  0.34999963051E-01  0.00000000000E+00 0.  1.
</event>
<event>
 5   0  0.6221259E+05  0.9118800E+02  0.7546771E-02  0.1180000E+00
      -11   -1    0    0    0    0  0.00000000000E+00  0.00000000000E+00  0.34996269501E-01  0.35000000000E-01  0.51099999109E-03 0. -1.
       11   -1    0    0    0    0 -0.00000000000E+00 -0.00000000000E+00 -0.34996269501E-01  0.35000000000E-01  0.51099999109E-03 0. -1.
       22    1    1    2    0    0  0.00000000000E+00  0.00000000000E+00  0.33800473116E-01  0.33797664290E-01  0.00000000000E+00 0. -1.
       22    1    1    2    0    0  0.64771898435E-03 -0.83434705433E-05 -0.34910829860E-01  0.34916839076E-01  0.00000000000E+00 0. -1.
       22    1    1    2    0    0 -0.64771898435E-03  0.83434705433E-05  0.11103567448E-02  0.12854966344E-02  0.00000000000E+00 0. -1.
</event>
<event>
 5   0  0.6221259E+05  0.9118800E+02  0.7546771E-02  0.1180000E+00
      -11   -1    0    0    0    0  0.00000000000E+00  0.00000000000E+00  0.34996269501E-01  0.35000000000E-01  0.51099999109E-03 0.  1.
       11   -1    0    0    0    0 -0.00000000000E+00 -0.00000000000E+00 -0.34996269501E-01  0.35000000000E-01  0.51099999109E-03 0. -1.
       22    1    1    2    0    0 -0.24281427124E-03  0.81900294660E-04  0.64085685282E-02  0.64136898124E-02  0.00000000000E+00 0. -1.
       22    1    1    2    0    0 -0.81967038330E-03 -0.21513273003E-02  0.28503753660E-01  0.28596573945E-01  0.00000000000E+00 0.  1.
       22    1    1    2    0    0  0.10624846545E-02  0.20694270057E-02 -0.34912322188E-01  0.34989736243E-01  0.00000000000E+00 0. -1.
</event>
<event>
 5   0  0.6221259E+05  0.9118800E+02  0.7546771E-02  0.1180000E+00
      -11   -1    0    0    0    0  0.00000000000E+00  0.00000000000E+00  0.34996269501E-01  0.35000000000E-01  0.51099999109E-03 0. -1.
       11   -1    0    0    0    0 -0.00000000000E+00 -0.00000000000E+00 -0.34996269501E-01  0.35000000000E-01  0.51099999109E-03 0.  1.
       22    1    1    2    0    0 -0.20843039695E-01  0.34730484711E-02 -0.27523076193E-01  0.34698906216E-01  0.00000000000E+00 0.  1.
       22    1    1    2    0    0 -0.42686621817E-03  0.27475993989E-03  0.65204846216E-03  0.82636250507E-03  0.00000000000E+00 0.  1.
       22    1    1    2    0    0  0.21269905914E-01 -0.37478084109E-02  0.26871027731E-01  0.34474731279E-01  0.00000000000E+00 0. -1.
</event>
<event>
 5   0  0.6221259E+05  0.9118800E+02  0.7546771E-02  0.1180000E+00
      -11   -1    0    0    0    0  0.00000000000E+00  0.00000000000E+00  0.34996269501E-01  0.35000000000E-01  0.51099999109E-03 0.  1.
       11   -1    0    0    0    0 -0.00000000000E+00 -0.00000000000E+00 -0.34996269501E-01  0.35000000000E-01  0.51099999109E-03 0. -1.
       22    1    1    2    0    0  0.31581691878E-08  0.46041043978E-08  0.17191918254E-07  0.18075781122E-07  0.00000000000E+00 0.  1.
       22    1    1    2    0    0 -0.17749477675E-02 -0.12621124162E-02  0.34932154398E-01  0.34999982546E-01  0.00000000000E+00 0.  1.
       22    1    1    2    0    0  0.17749446093E-02  0.12621078121E-02 -0.34932171590E-01  0.34999999378E-01  0.00000000000E+00 0. -1.
</event>
<event>
 5   0  0.6221259E+05  0.9118800E+02  0.7546771E-02  0.1180000E+00
      -11   -1    0    0    0    0  0.00000000000E+00  0.00000000000E+00  0.34996269501E-01  0.35000000000E-01  0.51099999109E-03 0.  1.
       11   -1    0    0    0    0 -0.00000000000E+00 -0.00000000000E+00 -0.34996269501E-01  0.35000000000E-01  0.51099999109E-03 0. -1.
       22    1    1    2    0    0 -0.47799706760E-05 -0.18615012007E-05  0.35091155840E-05  0.62150783234E-05  0.00000000000E+00 0. -1.
       22    1    1    2    0    0 -0.57424437337E-03  0.93258768299E-03  0.34977982199E-01  0.34995124162E-01  0.00000000000E+00 0.  1.
       22    1    1    2    0    0  0.57902434404E-03 -0.93072618179E-03 -0.34981491314E-01  0.34998660760E-01  0.00000000000E+00 0. -1.
</event>
<event>
 5   0  0.6221259E+05  0.9118800E+02  0.7546771E-02  0.1180000E+00
      -11   -1    0    0    0    0  0.00000000000E+00  0.00000000000E+00  0.34996269501E-01  0.35000000000E-01  0.51099999109E-03 0.  1.
       11   -1    0    0    0    0 -0.00000000000E+00 -0.00000000000E+00 -0.34996269501E-01  0.35000000000E-01  0.51099999109E-03 0.  1.
       22    1    1    2    0    0  0.11403025725E-03  0.31448274320E-03  0.34955551605E-01  0.34957152205E-01  0.00000000000E+00 0.  1.
       22    1    1    2    0    0 -0.11515422365E-03 -0.31200767872E-03 -0.34998366511E-01  0.34999946682E-01  0.00000000000E+00 0.  1.
       22    1    1    2    0    0  0.11239663977E-05 -0.24750644808E-05  0.42814906554E-04  0.42901112664E-04  0.00000000000E+00 0. -1.
</event>
<event>
 5   0  0.6221259E+05  0.9118800E+02  0.7546771E-02  0.1180000E+00
      -11   -1    0    0    0    0  0.00000000000E+00  0.00000000000E+00  0.34996269501E-01  0.35000000000E-01  0.51099999109E-03 0. -1.
       11   -1    0    0    0    0 -0.00000000000E+00 -0.00000000000E+00 -0.34996269501E-01  0.35000000000E-01  0.51099999109E-03 0.  1.
       22    1    1    2    0    0  0.13293330963E-01 -0.98871725364E-02 -0.30810537619E-01  0.34982253461E-01  0.00000000000E+00 0.  1.
       22    1    1    2    0    0  0.30378493460E-04 -0.21205938806E-04  0.54355884229E-04  0.65780748368E-04  0.00000000000E+00 0. -1.
       22    1    1    2    0    0 -0.13323709456E-01  0.99083784752E-02  0.30756181735E-01  0.34951965790E-01  0.00000000000E+00 0. -1.
</event>
<event>
 5   0  0.6221259E+05  0.9118800E+02  0.7546771E-02  0.1180000E+00
      -11   -1    0    0    0    0  0.00000000000E+00  0.00000000000E+00  0.34996269501E-01  0.35000000000E-01  0.51099999109E-03 0.  1.
       11   -1    0    0    0    0 -0.00000000000E+00 -0.00000000000E+00 -0.34996269501E-01  0.35000000000E-01  0.51099999109E-03 0. -1.
       22    1    1    2    0    0  0.14440326245E-02  0.50802215180E-02 -0.17335652576E-01  0.18122326869E-01  0.00000000000E+00 0. -1.
       22    1    1    2    0    0 -0.84900235843E-03 -0.29182904234E-02  0.34466727657E-01  0.34600470219E-01  0.00000000000E+00 0.  1.
       22    1    1    2    0    0 -0.59503026606E-03 -0.21619310946E-02 -0.17131075080E-01  0.17277202913E-01  0.00000000000E+00 0. -1.
</event>
<event>
 5   0  0.6221259E+05  0.9118800E+02  0.7546771E-02  0.1180000E+00
      -11   -1    0    0    0    0  0.00000000000E+00  0.00000000000E+00  0.34996269501E-01  0.35000000000E-01  0.51099999109E-03 0.  1.
       11   -1    0    0    0    0 -0.00000000000E+00 -0.00000000000E+00 -0.34996269501E-01  0.35000000000E-01  0.51099999109E-03 0. -1.
       22    1    1    2    0    0  0.11145534915E-02  0.58481537596E-03  0.69006099578E-02  0.70144605137E-02  0.00000000000E+00 0. -1.
       22    1    1    2    0    0 -0.55998257914E-02  0.37271012796E-02  0.27354772722E-01  0.28169716426E-01  0.00000000000E+00 0.  1.
       22    1    1    2    0    0  0.44852722999E-02 -0.43119166556E-02 -0.34255382680E-01  0.34815823060E-01  0.00000000000E+00 0. -1.
</event>
<event>
 5   0  0.6221259E+05  0.9118800E+02  0.7546771E-02  0.1180000E+00
      -11   -1    0    0    0    0  0.00000000000E+00  0.00000000000E+00  0.34996269501E-01  0.35000000000E-01  0.51099999109E-03 0. -1.
       11   -1    0    0    0    0 -0.00000000000E+00 -0.00000000000E+00 -0.34996269501E-01  0.35000000000E-01  0.51099999109E-03 0.  1.
       22    1    1    2    0    0  0.81440086486E-06  0.64343451893E-06  0.70984553720E-06  0.12574328751E-05  0.00000000000E+00 0. -1.
       22    1    1    2    0    0 -0.16893092069E-02 -0.43436403682E-02 -0.34688093147E-01  0.34999782620E-01  0.00000000000E+00 0.  1.
       22    1    1    2    0    0  0.16884948061E-02  0.43429969337E-02  0.34687383302E-01  0.34998959947E-01  0.00000000000E+00 0. -1.
</event>
<event>
 5   0  0.6221259E+05  0.9118800E+02  0.7546771E-02  0.1180000E+00
      -11   -1    0    0    0    0  0.00000000000E+00  0.00000000000E+00  0.34996269501E-01  0.35000000000E-01  0.51099999109E-03 0.  1.
       11   -1    0    0    0    0 -0.00000000000E+00 -0.00000000000E+00 -0.34996269501E-01  0.35000000000E-01  0.51099999109E-03 0. -1.
       22    1    1    2    0    0 -0.25963810629E-02  0.82566846551E-03  0.34893660216E-01  0.34999863519E-01  0.00000000000E+00 0.  1.
       22    1    1    2    0    0 -0.16493624227E-09 -0.37527029713E-08  0.13670124150E-06  0.13675284060E-06  0.00000000000E+00 0. -1.
       22    1    1    2    0    0  0.25963812278E-02 -0.82566471281E-03 -0.34893796917E-01  0.34999999729E-01  0.00000000000E+00 0. -1.
</event>
<event>
 5   0  0.6221259E+05  0.9118800E+02  0.7546771E-02  0.1180000E+00
      -11   -1    0    0    0    0  0.00000000000E+00  0.00000000000E+00  0.34996269501E-01  0.35000000000E-01  0.51099999109E-03 0. -1.
       11   -1    0    0    0    0 -0.00000000000E+00 -0.00000000000E+00 -0.34996269501E-01  0.35000000000E-01  0.51099999109E-03 0.  1.
       22    1    1    2    0    0  0.34635933192E-02 -0.91035482213E-02  0.33615949916E-01  0.34998616511E-01  0.00000000000E+00 0. -1.
       22    1    1    2    0    0 -0.91106397080E-07  0.30028648563E-07  0.14182968773E-05  0.14215372410E-05  0.00000000000E+00 0.  1.
       22    1    1    2    0    0 -0.34635022128E-02  0.91035181927E-02 -0.33617368213E-01  0.34999961952E-01  0.00000000000E+00 0.  1.
</event>
<event>
 5   0  0.6221259E+05  0.9118800E+02  0.7546771E-02  0.1180000E+00
      -11   -1    0    0    0    0  0.00000000000E+00  0.00000000000E+00  0.34996269501E-01  0.35000000000E-01  0.51099999109E-03 0. -1.
       11   -1    0    0    0    0 -0.00000000000E+00 -0.00000000000E+00 -0.34996269501E-01  0.35000000000E-01  0.51099999109E-03 0. -1.
       22    1    1    2    0    0  0.87779617349E-07  0.32759936738E-07  0.12742665204E-06  0.15816455459E-06  0.00000000000E+00 0.  1.
       22    1    1    2    0    0 -0.87787103942E-07 -0.32762730785E-07  0.35002096248E-01  0.34999857200E-01  0.00000000000E+00 0. -1.
       22    1    1    2    0    0  0.74865926155E-11  0.27940461337E-11 -0.35002223674E-01  0.34999984635E-01  0.00000000000E+00 0. -1.
</event>
<event>
 5   0  0.6221259E+05  0.9118800E+02  0.7546771E-02  0.1180000E+00
      -11   -1    0    0    0    0  0.00000000000E+00  0.00000000000E+00  0.34996269501E-01  0.35000000000E-01  0.51099999109E-03 0. -1.
       11   -1    0    0    0    0 -0.00000000000E+00 -0.00000000000E+00 -0.34996269501E-01  0.35000000000E-01  0.51099999109E-03 0.  1.
       22    1    1    2    0    0  0.23099066979E-01  0.26857362424E-02 -0.25595593749E-01  0.34581996672E-01  0.00000000000E+00 0.  1.
       22    1    1    2    0    0 -0.20745782726E-01 -0.29669093044E-03  0.19565269663E-01  0.28517982106E-01  0.00000000000E+00 0. -1.
       22    1    1    2    0    0 -0.23532842529E-02 -0.23890453120E-02  0.60303240861E-02  0.69000212218E-02  0.00000000000E+00 0.  1.
</event>
<event>
 5   0  0.6221259E+05  0.9118800E+02  0.7546771E-02  0.1180000E+00
      -11   -1    0    0    0    0  0.00000000000E+00  0.00000000000E+00  0.34996269501E-01  0.35000000000E-01  0.51099999109E-03 0.  1.
       11   -1    0    0    0    0 -0.00000000000E+00 -0.00000000000E+00 -0.34996269501E-01  0.35000000000E-01  0.51099999109E-03 0.  1.
       22    1    1    2    0    0  0.13425356395E-08 -0.12236259998E-08  0.96212317549E-08  0.97912084551E-08  0.00000000000E+00 0.  1.
       22    1    1    2    0    0 -0.13426101173E-08  0.12236938810E-08  0.35000142728E-01  0.34999990294E-01  0.00000000000E+00 0.  1.
       22    1    1    2    0    0  0.74477817492E-13 -0.67881247399E-13 -0.35000152349E-01  0.34999999915E-01  0.00000000000E+00 0.  1.
</event>
<event>
 5   0  0.6221259E+05  0.9118800E+02  0.7546771E-02  0.1180000E+00
      -11   -1    0    0    0    0  0.00000000000E+00  0.00000000000E+00  0.34996269501E-01  0.35000000000E-01  0.51099999109E-03 0. -1.
       11   -1    0    0    0    0 -0.00000000000E+00 -0.00000000000E+00 -0.34996269501E-01  0.35000000000E-01  0.51099999109E-03 0.  1.
       22    1    1    2    0    0  0.22183623192E-01 -0.23184477429E-01  0.13710910747E-01  0.34894443757E-01  0.00000000000E+00 0. -1.
       22    1    1    2    0    0  0.14991190050E-04  0.37033478928E-05  0.14572123798E-03  0.14653712759E-03  0.00000000000E+00 0.  1.
       22    1    1    2    0    0 -0.22198614382E-01  0.23180774082E-01 -0.13856631985E-01  0.34959019115E-01  0.00000000000E+00 0.  1.
</event>
<event>
 5   0  0.6221259E+05  0.9118800E+02  0.7546771E-02  0.1180000E+00
      -11   -1    0    0    0    0  0.00000000000E+00  0.00000000000E+00  0.34996269501E-01  0.35000000000E-01  0.51099999109E-03 0. -1.
       11   -1    0    0    0    0 -0.00000000000E+00 -0.00000000000E+00 -0.34996269501E-01  0.35000000000E-01  0.51099999109E-03 0.  1.
       22    1    1    2    0    0 -0.31952031827E-02  0.32578210218E-02  0.55055350177E-02  0.71507787702E-02  0.00000000000E+00 0. -1.
       22    1    1    2    0    0  0.61317663317E-02 -0.65541475322E-02 -0.33411608969E-01  0.34596112818E-01  0.00000000000E+00 0.  1.
       22    1    1    2    0    0 -0.29365631489E-02  0.32963265103E-02  0.27906073951E-01  0.28253108412E-01  0.00000000000E+00 0. -1.
</event>
<event>
 5   0  0.6221259E+05  0.9118800E+02  0.7546771E-02  0.1180000E+00
      -11   -1    0    0    0    0  0.00000000000E+00  0.00000000000E+00  0.34996269501E-01  0.35000000000E-01  0.51099999109E-03 0.  1.
       11   -1    0    0    0    0 -0.00000000000E+00 -0.00000000000E+00 -0.34996269501E-01  0.35000000000E-01  0.51099999109E-03 0. -1.
       22    1    1    2    0    0  0.31365865902E-03 -0.36843704423E-03  0.34943572615E-01  0.34946922536E-01  0.00000000000E+00 0.  1.
       22    1    1    2    0    0  0.27499961130E-03  0.34822537380E-03 -0.89063153321E-03  0.99504282577E-03  0.00000000000E+00 0.  1.
       22    1    1    2    0    0 -0.58865827031E-03  0.20211670431E-04 -0.34052941082E-01  0.34058034638E-01  0.00000000000E+00 0. -1.
</event>
<event>
 5   0  0.6221259E+05  0.9118800E+02  0.7546771E-02  0.1180000E+00
      -11   -1    0    0    0    0  0.00000000000E+00  0.00000000000E+00  0.34996269501E-01  0.35000000000E-01  0.51099999109E-03 0.  1.
       11   -1    0    0    0    0 -0.00000000000E+00 -0.00000000000E+00 -0.34996269501E-01  0.35000000000E-01  0.51099999109E-03 0. -1.
       22    1    1    2    0    0  0.90490346736E-04  0.91801854511E-05 -0.14770818754E-04  0.92146382154E-04  0.00000000000E+00 0. -1.
       22    1    1    2    0    0  0.36190045212E-03 -0.85646558447E-03 -0.34933757646E-01  0.34946128949E-01  0.00000000000E+00 0. -1.
       22    1    1    2    0    0 -0.45239079886E-03  0.84728539902E-03  0.34948528465E-01  0.34961724669E-01  0.00000000000E+00 0.  1.
</event>
<event>
 5   0  0.6221259E+05  0.9118800E+02  0.7546771E-02  0.1180000E+00
      -11   -1    0    0    0    0  0.00000000000E+00  0.00000000000E+00  0.34996269501E-01  0.35000000000E-01  0.51099999109E-03 0. -1.
       11   -1    0    0    0    0 -0.00000000000E+00 -0.00000000000E+00 -0.34996269501E-01  0.35000000000E-01  0.51099999109E-03 0.  1.
       22    1    1    2    0    0  0.26296714007E-02 -0.47960289120E-02 -0.34569914910E-01  0.34999944027E-01  0.00000000000E+00 0.  1.
       22    1    1    2    0    0  0.62925449952E-06  0.37879339386E-06  0.38827946554E-05  0.39516502877E-05  0.00000000000E+00 0. -1.
       22    1    1    2    0    0 -0.26303006552E-02  0.47956501187E-02  0.34566032115E-01  0.34996104323E-01  0.00000000000E+00 0. -1.
</event>
<event>
 5   0  0.6221259E+05  0.9118800E+02  0.7546771E-02  0.1180000E+00
      -11   -1    0    0    0    0  0.00000000000E+00  0.00000000000E+00  0.34996269501E-01  0.35000000000E-01  0.51099999109E-03 0. -1.
       11   -1    0    0    0    0 -0.00000000000E+00 -0.00000000000E+00 -0.34996269501E-01  0.35000000000E-01  0.51099999109E-03 0.  1.
       22    1    1    2    0    0 -0.15941938415E-01 -0.28009465001E-01 -0.13648960168E-01  0.34999566337E-01  0.00000000000E+00 0.  1.
       22    1    1    2    0    0  0.15942690145E-01  0.28006524486E-01  0.13646825788E-01  0.34996723231E-01  0.00000000000E+00 0. -1.
       22    1    1    2    0    0 -0.75172986990E-06  0.29405151215E-05  0.21343804459E-05  0.37104321669E-05  0.00000000000E+00 0. -1.
</event>
<event>
 5   0  0.6221259E+05  0.9118800E+02  0.7546771E-02  0.1180000E+00
      -11   -1    0    0    0    0  0.00000000000E+00  0.00000000000E+00  0.34996269501E-01  0.35000000000E-01  0.51099999109E-03 0.  1.
       11   -1    0    0    0    0 -0.00000000000E+00 -0.00000000000E+00 -0.34996269501E-01  0.35000000000E-01  0.51099999109E-03 0. -1.
       22    1    1    2    0    0 -0.72772959208E-02  0.12838691642E-01  0.29832201897E-01  0.33282898146E-01  0.00000000000E+00 0.  1.
       22    1    1    2    0    0 -0.77218848613E-03  0.12895654185E-02 -0.13801955609E-01  0.13883559798E-01  0.00000000000E+00 0. -1.
       22    1    1    2    0    0  0.80494844069E-02 -0.14128257061E-01 -0.16030246288E-01  0.22833542056E-01  0.00000000000E+00 0. -1.
</event>
<event>
 5   0  0.6221259E+05  0.9118800E+02  0.7546771E-02  0.1180000E+00
      -11   -1    0    0    0    0  0.00000000000E+00  0.00000000000E+00  0.34996269501E-01  0.35000000000E-01  0.51099999109E-03 0. -1.
       11   -1    0    0    0    0 -0.00000000000E+00 -0.00000000000E+00 -0.34996269501E-01  0.35000000000E-01  0.51099999109E-03 0.  1.
       22    1    1    2    0    0  0.14281732227E-01 -0.16791088252E-01 -0.27181512937E-01  0.34996330745E-01  0.00000000000E+00 0.  1.
       22    1    1    2    0    0 -0.12581445571E-04  0.94956772256E-05  0.68138255982E-04  0.69937705045E-04  0.00000000000E+00 0. -1.
       22    1    1    2    0    0 -0.14269150782E-01  0.16781592575E-01  0.27113374681E-01  0.34933731550E-01  0.00000000000E+00 0. -1.
</event>
<event>
 5   0  0.6221259E+05  0.9118800E+02  0.7546771E-02  0.1180000E+00
      -11   -1    0    0    0    0  0.00000000000E+00  0.00000000000E+00  0.34996269501E-01  0.35000000000E-01  0.51099999109E-03 0.  1.
       11   -1    0    0    0    0 -0.00000000000E+00 -0.00000000000E+00 -0.34996269501E-01  0.35000000000E-01  0.51099999109E-03 0.  1.
       22    1    1    2    0    0 -0.11188679619E-02  0.48648488700E-02 -0.26244403107E-01  0.26714926811E-01  0.00000000000E+00 0.  1.
       22    1    1    2    0    0  0.55134349700E-02  0.57596963194E-02  0.30115701718E-01  0.31153291268E-01  0.00000000000E+00 0.  1.
       22    1    1    2    0    0 -0.43945670081E-02 -0.10624545189E-01 -0.38712986104E-02  0.12131781922E-01  0.00000000000E+00 0. -1.
</event>
<event>
 5   0  0.6221259E+05  0.9118800E+02  0.7546771E-02  0.1180000E+00
      -11   -1    0    0    0    0  0.00000000000E+00  0.00000000000E+00  0.34996269501E-01  0.35000000000E-01  0.51099999109E-03 0. -1.
       11   -1    0    0    0    0 -0.00000000000E+00 -0.00000000000E+00 -0.34996269501E-01  0.35000000000E-01  0.51099999109E-03 0.  1.
       22    1    1    2    0    0 -0.40241069903E-02 -0.12728706741E-02  0.20433445950E-01  0.20864787327E-01  0.00000000000E+00 0. -1.
       22    1    1    2    0    0  0.34898971695E-02  0.12230163815E-02 -0.34680980396E-01  0.34877579511E-01  0.00000000000E+00 0.  1.
       22    1    1    2    0    0  0.53420982078E-03  0.49854292619E-04  0.14247534446E-01  0.14257633162E-01  0.00000000000E+00 0.  1.
</event>
<event>
 5   0  0.6221259E+05  0.9118800E+02  0.7546771E-02  0.1180000E+00
      -11   -1    0    0    0    0  0.00000000000E+00  0.00000000000E+00  0.34996269501E-01  0.35000000000E-01  0.51099999109E-03 0.  1.
       11   -1    0    0    0    0 -0.00000000000E+00 -0.00000000000E+00 -0.34996269501E-01  0.35000000000E-01  0.51099999109E-03 0. -1.
       22    1    1    2    0    0  0.79844622382E-04 -0.14203376384E-03  0.97069133559E-03  0.98427151883E-03  0.00000000000E+00 0. -1.
       22    1    1    2    0    0  0.33633153438E-02 -0.34865779061E-02 -0.34639877736E-01  0.34976981647E-01  0.00000000000E+00 0. -1.
       22    1    1    2    0    0 -0.34431599661E-02  0.36286116699E-02  0.33669186400E-01  0.34038746834E-01  0.00000000000E+00 0.  1.
</event>
<event>
 5   0  0.6221259E+05  0.9118800E+02  0.7546771E-02  0.1180000E+00
      -11   -1    0    0    0    0  0.00000000000E+00  0.00000000000E+00  0.34996269501E-01  0.35000000000E-01  0.51099999109E-03 0.  1.
       11   -1    0    0    0    0 -0.00000000000E+00 -0.00000000000E+00 -0.34996269501E-01  0.35000000000E-01  0.51099999109E-03 0. -1.
       22    1    1    2    0    0 -0.15168223865E-02  0.52273488266E-02  0.34345923210E-01  0.34774536188E-01  0.00000000000E+00 0.  1.
       22    1    1    2    0    0  0.44361932481E-04 -0.13701310509E-03  0.21603805179E-03  0.25964015837E-03  0.00000000000E+00 0.  1.
       22    1    1    2    0    0  0.14724604540E-02 -0.50903357215E-02 -0.34561961262E-01  0.34965823654E-01  0.00000000000E+00 0. -1.
</event>
<event>
 5   0  0.6221259E+05  0.9118800E+02  0.7546771E-02  0.1180000E+00
      -11   -1    0    0    0    0  0.00000000000E+00  0.00000000000E+00  0.34996269501E-01  0.35000000000E-01  0.51099999109E-03 0. -1.
       11   -1    0    0    0    0 -0.00000000000E+00 -0.00000000000E+00 -0.34996269501E-01  0.35000000000E-01  0.51099999109E-03 0.  1.
       22    1    1    2    0    0  0.32285669218E-01  0.12623686533E-01 -0.48245891612E-02  0.34999979416E-01  0.00000000000E+00 0.  1.
       22    1    1    2    0    0 -0.32285665602E-01 -0.12623693126E-01  0.48245409765E-02  0.34999971816E-01  0.00000000000E+00 0. -1.
       22    1    1    2    0    0 -0.36163257963E-08  0.65927521370E-08  0.48184715449E-07  0.48767909488E-07  0.00000000000E+00 0.  1.
</event>
<event>
 5   0  0.6221259E+05  0.9118800E+02  0.7546771E-02  0.1180000E+00
      -11   -1    0    0    0    0  0.00000000000E+00  0.00000000000E+00  0.34996269501E-01  0.35000000000E-01  0.51099999109E-03 0. -1.
       11   -1    0    0    0    0 -0.00000000000E+00 -0.00000000000E+00 -0.34996269501E-01  0.35000000000E-01  0.51099999109E-03 0.  1.
       22    1    1    2    0    0 -0.11759692274E-01 -0.11857148662E-01  0.29832626955E-01  0.34188711117E-01  0.00000000000E+00 0. -1.
       22    1    1    2    0    0  0.10099923845E-01  0.93596881041E-02 -0.29783006837E-01  0.32812188579E-01  0.00000000000E+00 0.  1.
       22    1    1    2    0    0  0.16597684292E-02  0.24974605584E-02 -0.49620117726E-04  0.29991003043E-02  0.00000000000E+00 0. -1.
</event>
<event>
 5   0  0.6221259E+05  0.9118800E+02  0.7546771E-02  0.1180000E+00
      -11   -1    0    0    0    0  0.00000000000E+00  0.00000000000E+00  0.34996269501E-01  0.35000000000E-01  0.51099999109E-03 0. -1.
       11   -1    0    0    0    0 -0.00000000000E+00 -0.00000000000E+00 -0.34996269501E-01  0.35000000000E-01  0.51099999109E-03 0.  1.
       22    1    1    2    0    0 -0.27921582314E-01 -0.91107939629E-03 -0.20995247427E-01  0.34946319393E-01  0.00000000000E+00 0.  1.
       22    1    1    2    0    0  0.27903195772E-01  0.93177571479E-03  0.21067926880E-01  0.34975907183E-01  0.00000000000E+00 0. -1.
       22    1    1    2    0    0  0.18386542332E-04 -0.20696318505E-04 -0.72679453011E-04  0.77773423665E-04  0.00000000000E+00 0.  1.
</event>
<event>
 5   0  0.6221259E+05  0.9118800E+02  0.7546771E-02  0.1180000E+00
      -11   -1    0    0    0    0  0.00000000000E+00  0.00000000000E+00  0.34996269501E-01  0.35000000000E-01  0.51099999109E-03 0. -1.
       11   -1    0    0    0    0 -0.00000000000E+00 -0.00000000000E+00 -0.34996269501E-01  0.35000000000E-01  0.51099999109E-03 0. -1.
       22    1    1    2    0    0 -0.19220611902E-02 -0.27030047355E-02  0.34423237534E-01  0.34582652243E-01  0.00000000000E+00 0. -1.
       22    1    1    2    0    0 -0.90052725589E-04  0.27453518106E-03  0.37673064274E-03  0.47476840270E-03  0.00000000000E+00 0. -1.
       22    1    1    2    0    0  0.20121139157E-02  0.24284695544E-02 -0.34799968177E-01  0.34942579354E-01  0.00000000000E+00 0. -1.
</event>
<event>
 5   0  0.6221259E+05  0.9118800E+02  0.7546771E-02  0.1180000E+00
      -11   -1    0    0    0    0  0.00000000000E+00  0.00000000000E+00  0.34996269501E-01  0.35000000000E-01  0.51099999109E-03 0. -1.
       11   -1    0    0    0    0 -0.00000000000E+00 -0.00000000000E+00 -0.34996269501E-01  0.35000000000E-01  0.51099999109E-03 0.  1.
       22    1    1    2    0    0  0.66401664293E-03 -0.32317011141E-03  0.28606535250E-02  0.29544365983E-02  0.00000000000E+00 0.  1.
       22    1    1    2    0    0  0.84850686044E-02  0.94883802690E-02  0.29532939539E-01  0.32159295191E-01  0.00000000000E+00 0. -1.
       22    1    1    2    0    0 -0.91490852474E-02 -0.91652101576E-02 -0.32393593064E-01  0.34886268211E-01  0.00000000000E+00 0.  1.
</event>
<event>
 5   0  0.6221259E+05  0.9118800E+02  0.7546771E-02  0.1180000E+00
      -11   -1    0    0    0    0  0.00000000000E+00  0.00000000000E+00  0.34996269501E-01  0.35000000000E-01  0.51099999109E-03 0.  1.
       11   -1    0    0    0    0 -0.00000000000E+00 -0.00000000000E+00 -0.34996269501E-01  0.35000000000E-01  0.51099999109E-03 0. -1.
       22    1    1    2    0    0 -0.16130908430E-02 -0.20990113704E-03 -0.34962176896E-01  0.34999999055E-01  0.00000000000E+00 0. -1.
       22    1    1    2    0    0  0.16130835087E-02  0.20994303982E-03  0.34961255718E-01  0.34999078786E-01  0.00000000000E+00 0.  1.
       22    1    1    2    0    0  0.73343759761E-08 -0.41902776349E-07  0.92117714414E-06  0.92215886192E-06  0.00000000000E+00 0. -1.
</event>
<event>
 5   0  0.6221259E+05  0.9118800E+02  0.7546771E-02  0.1180000E+00
      -11   -1    0    0    0    0  0.00000000000E+00  0.00000000000E+00  0.34996269501E-01  0.35000000000E-01  0.51099999109E-03 0.  1.
       11   -1    0    0    0    0 -0.00000000000E+00 -0.00000000000E+00 -0.34996269501E-01  0.35000000000E-01  0.51099999109E-03 0. -1.
       22    1    1    2    0    0 -0.11217715036E-02  0.39863878370E-03 -0.34979510616E-01  0.34999763530E-01  0.00000000000E+00 0. -1.
       22    1    1    2    0    0  0.11263733264E-02 -0.39989918177E-03  0.34940097224E-01  0.34960535326E-01  0.00000000000E+00 0.  1.
       22    1    1    2    0    0 -0.46018227921E-05  0.12603980658E-05  0.39413392431E-04  0.39701144558E-04  0.00000000000E+00 0.  1.
</event>
<event>
 5   0  0.6221259E+05  0.9118800E+02  0.7546771E-02  0.1180000E+00
      -11   -1    0    0    0    0  0.00000000000E+00  0.00000000000E+00  0.34996269501E-01  0.35000000000E-01  0.51099999109E-03 0. -1.
       11   -1    0    0    0    0 -0.00000000000E+00 -0.00000000000E+00 -0.34996269501E-01  0.35000000000E-01  0.51099999109E-03 0.  1.
       22    1    1    2    0    0  0.10167593169E-01  0.37274547871E-02 -0.30837057931E-01  0.32683298669E-01  0.00000000000E+00 0.  1.
       22    1    1    2    0    0 -0.10579490659E-01  0.24185444690E-02  0.28882781929E-01  0.30854336355E-01  0.00000000000E+00 0. -1.
       22    1    1    2    0    0  0.41189749022E-03 -0.61459992561E-02  0.19542760021E-02  0.64623649766E-02  0.00000000000E+00 0.  1.
</event>
<event>
 5   0  0.6221259E+05  0.9118800E+02  0.7546771E-02  0.1180000E+00
      -11   -1    0    0    0    0  0.00000000000E+00  0.00000000000E+00  0.34996269501E-01  0.35000000000E-01  0.51099999109E-03 0.  1.
       11   -1    0    0    0    0 -0.00000000000E+00 -0.00000000000E+00 -0.34996269501E-01  0.35000000000E-01  0.51099999109E-03 0. -1.
       22    1    1    2    0    0  0.19589003939E-01  0.11943275211E-01  0.26418724549E-01  0.34990283006E-01  0.00000000000E+00 0.  1.
       22    1    1    2    0    0 -0.92004852804E-06 -0.11898174279E-05 -0.82871089793E-04  0.82884737306E-04  0.00000000000E+00 0.  1.
       22    1    1    2    0    0 -0.19588083891E-01 -0.11942085393E-01 -0.26335853459E-01  0.34926832256E-01  0.00000000000E+00 0. -1.
</event>
<event>
 5   0  0.6221259E+05  0.9118800E+02  0.7546771E-02  0.1180000E+00
      -11   -1    0    0    0    0  0.00000000000E+00  0.00000000000E+00  0.34996269501E-01  0.35000000000E-01  0.51099999109E-03 0. -1.
       11   -1    0    0    0    0 -0.00000000000E+00 -0.00000000000E+00 -0.34996269501E-01  0.35000000000E-01  0.51099999109E-03 0.  1.
       22    1    1    2    0    0 -0.52894049770E-02 -0.14241697361E-01 -0.31488738026E-01  0.34962041862E-01  0.00000000000E+00 0.  1.
       22    1    1    2    0    0  0.52807668248E-02  0.14214556945E-01  0.30622949076E-01  0.34171700828E-01  0.00000000000E+00 0. -1.
       22    1    1    2    0    0  0.86381521552E-05  0.27140416170E-04  0.86578895032E-03  0.86625730955E-03  0.00000000000E+00 0.  1.
</event>
<event>
 5   0  0.6221259E+05  0.9118800E+02  0.7546771E-02  0.1180000E+00
      -11   -1    0    0    0    0  0.00000000000E+00  0.00000000000E+00  0.34996269501E-01  0.35000000000E-01  0.51099999109E-03 0.  1.
       11   -1    0    0    0    0 -0.00000000000E+00 -0.00000000000E+00 -0.34996269501E-01  0.35000000000E-01  0.51099999109E-03 0. -1.
       22    1    1    2    0    0 -0.43640880416E-03 -0.15536471513E-03  0.34973654512E-01  0.34976722271E-01  0.00000000000E+00 0.  1.
       22    1    1    2    0    0 -0.24823020235E-05  0.43489260506E-06  0.23195942033E-04  0.23332438400E-04  0.00000000000E+00 0.  1.
       22    1    1    2    0    0  0.43889110619E-03  0.15492982252E-03 -0.34996850454E-01  0.34999945291E-01  0.00000000000E+00 0. -1.
</event>
<event>
 5   0  0.6221259E+05  0.9118800E+02  0.7546771E-02  0.1180000E+00
      -11   -1    0    0    0    0  0.00000000000E+00  0.00000000000E+00  0.34996269501E-01  0.35000000000E-01  0.51099999109E-03 0. -1.
       11   -1    0    0    0    0 -0.00000000000E+00 -0.00000000000E+00 -0.34996269501E-01  0.35000000000E-01  0.51099999109E-03 0.  1.
       22    1    1    2    0    0 -0.17861518863E-05 -0.25272936684E-05  0.10855635156E-05  0.32796341250E-05  0.00000000000E+00 0. -1.
       22    1    1    2    0    0 -0.30500794454E-02 -0.92410617830E-02 -0.33618338666E-01  0.34998469998E-01  0.00000000000E+00 0.  1.
       22    1    1    2    0    0  0.30518655973E-02  0.92435890767E-02  0.33617253103E-01  0.34998250368E-01  0.00000000000E+00 0. -1.
</event>
<event>
 5   0  0.6221259E+05  0.9118800E+02  0.7546771E-02  0.1180000E+00
      -11   -1    0    0    0    0  0.00000000000E+00  0.00000000000E+00  0.34996269501E-01  0.35000000000E-01  0.51099999109E-03 0. -1.
       11   -1    0    0    0    0 -0.00000000000E+00 -0.00000000000E+00 -0.34996269501E-01  0.35000000000E-01  0.51099999109E-03 0.  1.
       22    1    1    2    0    0  0.26006744258E-03 -0.72411485135E-03 -0.34991489853E-01  0.34999947707E-01  0.00000000000E+00 0.  1.
       22    1    1    2    0    0 -0.25950790964E-03  0.72464772515E-03  0.34988460119E-01  0.34996925582E-01  0.00000000000E+00 0. -1.
       22    1    1    2    0    0 -0.55953294576E-06 -0.53287379452E-06  0.30297335336E-05  0.31267102333E-05  0.00000000000E+00 0. -1.
</event>
<event>
 5   0  0.6221259E+05  0.9118800E+02  0.7546771E-02  0.1180000E+00
      -11   -1    0    0    0    0  0.00000000000E+00  0.00000000000E+00  0.34996269501E-01  0.35000000000E-01  0.51099999109E-03 0. -1.
       11   -1    0    0    0    0 -0.00000000000E+00 -0.00000000000E+00 -0.34996269501E-01  0.35000000000E-01  0.51099999109E-03 0.  1.
       22    1    1    2    0    0  0.30915653683E-02 -0.39021790810E-03 -0.34861008428E-01  0.34999999358E-01  0.00000000000E+00 0.  1.
       22    1    1    2    0    0 -0.30915231045E-02  0.39022148125E-03  0.34859973729E-01  0.34998965075E-01  0.00000000000E+00 0. -1.
       22    1    1    2    0    0 -0.42263831479E-07 -0.35731528065E-08  0.10346985991E-05  0.10355675689E-05  0.00000000000E+00 0.  1.
</event>
<event>
 5   0  0.6221259E+05  0.9118800E+02  0.7546771E-02  0.1180000E+00
      -11   -1    0    0    0    0  0.00000000000E+00  0.00000000000E+00  0.34996269501E-01  0.35000000000E-01  0.51099999109E-03 0. -1.
       11   -1    0    0    0    0 -0.00000000000E+00 -0.00000000000E+00 -0.34996269501E-01  0.35000000000E-01  0.51099999109E-03 0.  1.
       22    1    1    2    0    0 -0.24251029691E-01 -0.21324898989E-01 -0.13458000489E-01  0.34985447476E-01  0.00000000000E+00 0.  1.
       22    1    1    2    0    0  0.24206467664E-01  0.21343348599E-01  0.13459234017E-01  0.34966306447E-01  0.00000000000E+00 0. -1.
       22    1    1    2    0    0  0.44562026725E-04 -0.18449610293E-04 -0.12335279164E-05  0.48246076907E-04  0.00000000000E+00 0.  1.
</event>
<event>
 5   0  0.6221259E+05  0.9118800E+02  0.7546771E-02  0.1180000E+00
      -11   -1    0    0    0    0  0.00000000000E+00  0.00000000000E+00  0.34996269501E-01  0.35000000000E-01  0.51099999109E-03 0. -1.
       11   -1    0    0    0    0 -0.00000000000E+00 -0.00000000000E+00 -0.34996269501E-01  0.35000000000E-01  0.51099999109E-03 0.  1.
       22    1    1    2    0    0  0.81007290285E-03  0.31029926139E-04  0.10227909373E-02  0.13050985655E-02  0.00000000000E+00 0.  1.
       22    1    1    2    0    0  0.51929312662E-02  0.18418060527E-02  0.33324388609E-01  0.33776821355E-01  0.00000000000E+00 0. -1.
       22    1    1    2    0    0 -0.60030041690E-02 -0.18728359788E-02 -0.34347179546E-01  0.34918080080E-01  0.00000000000E+00 0.  1.
</event>
<event>
 5   0  0.6221259E+05  0.9118800E+02  0.7546771E-02  0.1180000E+00
      -11   -1    0    0    0    0  0.00000000000E+00  0.00000000000E+00  0.34996269501E-01  0.35000000000E-01  0.51099999109E-03 0.  1.
       11   -1    0    0    0    0 -0.00000000000E+00 -0.00000000000E+00 -0.34996269501E-01  0.35000000000E-01  0.51099999109E-03 0. -1.
       22    1    1    2    0    0  0.98856269990E-03  0.17428395556E-01  0.30281850832E-01  0.34953064497E-01  0.00000000000E+00 0.  1.
       22    1    1    2    0    0 -0.87200657559E-03 -0.17407546953E-01 -0.29563185647E-01  0.34318581439E-01  0.00000000000E+00 0. -1.
       22    1    1    2    0    0 -0.11655612431E-03 -0.20848602948E-04 -0.71866518540E-03  0.72835406436E-03  0.00000000000E+00 0. -1.
</event>
<event>
 5   0  0.6221259E+05  0.9118800E+02  0.7546771E-02  0.1180000E+00
      -11   -1    0    0    0    0  0.00000000000E+00  0.00000000000E+00  0.34996269501E-01  0.35000000000E-01  0.51099999109E-03 0. -1.
       11   -1    0    0    0    0 -0.00000000000E+00 -0.00000000000E+00 -0.34996269501E-01  0.35000000000E-01  0.51099999109E-03 0. -1.
       22    1    1    2    0    0  0.51378091920E-03  0.14818141230E-02 -0.34961236845E-01  0.34996397324E-01  0.00000000000E+00 0. -1.
       22    1    1    2    0    0  0.26364387422E-04  0.47574081890E-04  0.33402565780E-03  0.33842504970E-03  0.00000000000E+00 0. -1.
       22    1    1    2    0    0 -0.54014530662E-03 -0.15293882049E-02  0.34627211187E-01  0.34665177626E-01  0.00000000000E+00 0. -1.
</event>
<event>
 5   0  0.6221259E+05  0.9118800E+02  0.7546771E-02  0.1180000E+00
      -11   -1    0    0    0    0  0.00000000000E+00  0.00000000000E+00  0.34996269501E-01  0.35000000000E-01  0.51099999109E-03 0.  1.
       11   -1    0    0    0    0 -0.00000000000E+00 -0.00000000000E+00 -0.34996269501E-01  0.35000000000E-01  0.51099999109E-03 0.  1.
       22    1    1    2    0    0  0.23805124916E-11  0.16692504789E-11 -0.35001501871E-01  0.34999993194E-01  0.00000000000E+00 0.  1.
       22    1    1    2    0    0  0.31802343523E-07  0.22300272460E-07  0.48606667627E-07  0.62219766499E-07  0.00000000000E+00 0.  1.
       22    1    1    2    0    0 -0.31804724036E-07 -0.22301941710E-07  0.35001453264E-01  0.34999944586E-01  0.00000000000E+00 0.  1.
</event>
<event>
 5   0  0.6221259E+05  0.9118800E+02  0.7546771E-02  0.1180000E+00
      -11   -1    0    0    0    0  0.00000000000E+00  0.00000000000E+00  0.34996269501E-01  0.35000000000E-01  0.51099999109E-03 0.  1.
       11   -1    0    0    0    0 -0.00000000000E+00 -0.00000000000E+00 -0.34996269501E-01  0.35000000000E-01  0.51099999109E-03 0. -1.
       22    1    1    2    0    0 -0.29625059365E-02  0.66621581079E-02 -0.33081926267E-01  0.33875871024E-01  0.00000000000E+00 0. -1.
       22    1    1    2    0    0  0.65330950541E-02  0.32911712538E-03  0.12768772036E-01  0.14346818058E-01  0.00000000000E+00 0. -1.
       22    1    1    2    0    0 -0.35705891176E-02 -0.69912752333E-02  0.20313154231E-01  0.21777310919E-01  0.00000000000E+00 0.  1.
</event>
<event>
 5   0  0.6221259E+05  0.9118800E+02  0.7546771E-02  0.1180000E+00
      -11   -1    0    0    0    0  0.00000000000E+00  0.00000000000E+00  0.34996269501E-01  0.35000000000E-01  0.51099999109E-03 0. -1.
       11   -1    0    0    0    0 -0.00000000000E+00 -0.00000000000E+00 -0.34996269501E-01  0.35000000000E-01  0.51099999109E-03 0.  1.
       22    1    1    2    0    0  0.67147708916E-02  0.16146002666E-02  0.33652685539E-01  0.34354014702E-01  0.00000000000E+00 0. -1.
       22    1    1    2    0    0 -0.70860301450E-02 -0.18725422134E-02 -0.34176792736E-01  0.34953846703E-01  0.00000000000E+00 0.  1.
       22    1    1    2    0    0  0.37125925336E-03  0.25794194679E-03  0.52410719775E-03  0.69213859584E-03  0.00000000000E+00 0. -1.
</event>
<event>
 5   0  0.6221259E+05  0.9118800E+02  0.7546771E-02  0.1180000E+00
      -11   -1    0    0    0    0  0.00000000000E+00  0.00000000000E+00  0.34996269501E-01  0.35000000000E-01  0.51099999109E-03 0. -1.
       11   -1    0    0    0    0 -0.00000000000E+00 -0.00000000000E+00 -0.34996269501E-01  0.35000000000E-01  0.51099999109E-03 0.  1.
       22    1    1    2    0    0 -0.61520901434E-02  0.95841821187E-02  0.33095185287E-01  0.34999943560E-01  0.00000000000E+00 0. -1.
       22    1    1    2    0    0  0.61520951180E-02 -0.95842021054E-02 -0.33095238050E-01  0.34999999799E-01  0.00000000000E+00 0.  1.
       22    1    1    2    0    0 -0.49745593314E-08  0.19986712576E-07  0.52763759880E-07  0.56641233009E-07  0.00000000000E+00 0.  1.
</event>
<event>
 5   0  0.6221259E+05  0.9118800E+02  0.7546771E-02  0.1180000E+00
      -11   -1    0    0    0    0  0.00000000000E+00  0.00000000000E+00  0.34996269501E-01  0.35000000000E-01  0.51099999109E-03 0.  1.
       11   -1    0    0    0    0 -0.00000000000E+00 -0.00000000000E+00 -0.34996269501E-01  0.35000000000E-01  0.51099999109E-03 0. -1.
       22    1    1    2    0    0  0.68885922304E-03 -0.57766797894E-03  0.34988288053E-01  0.34999836117E-01  0.00000000000E+00 0.  1.
       22    1    1    2    0    0  0.17564961030E-09 -0.18683426766E-08  0.16388743382E-06  0.16389817729E-06  0.00000000000E+00 0.  1.
       22    1    1    2    0    0 -0.68885939869E-03  0.57766984728E-03 -0.34988451941E-01  0.34999999985E-01  0.00000000000E+00 0. -1.
</event>
<event>
 5   0  0.6221259E+05  0.9118800E+02  0.7546771E-02  0.1180000E+00
      -11   -1    0    0    0    0  0.00000000000E+00  0.00000000000E+00  0.34996269501E-01  0.35000000000E-01  0.51099999109E-03 0.  1.
       11   -1    0    0    0    0 -0.00000000000E+00 -0.00000000000E+00 -0.34996269501E-01  0.35000000000E-01  0.51099999109E-03 0.  1.
       22    1    1    2    0    0 -0.75627886339E-03  0.30614940197E-02  0.12503199047E-01  0.12894754350E-01  0.00000000000E+00 0.  1.
       22    1    1    2    0    0 -0.10181289055E-03  0.22828842734E-03 -0.34674190103E-01  0.34675091071E-01  0.00000000000E+00 0.  1.
       22    1    1    2    0    0  0.85809175394E-03 -0.32897824471E-02  0.22170991056E-01  0.22430154579E-01  0.00000000000E+00 0. -1.
</event>
<event>
 5   0  0.6221259E+05  0.9118800E+02  0.7546771E-02  0.1180000E+00
      -11   -1    0    0    0    0  0.00000000000E+00  0.00000000000E+00  0.34996269501E-01  0.35000000000E-01  0.51099999109E-03 0.  1.
       11   -1    0    0    0    0 -0.00000000000E+00 -0.00000000000E+00 -0.34996269501E-01  0.35000000000E-01  0.51099999109E-03 0. -1.
       22    1    1    2    0    0  0.76304466507E-03  0.13756379794E-01 -0.31864293912E-01  0.34715320087E-01  0.00000000000E+00 0. -1.
       22    1    1    2    0    0  0.50462594664E-04 -0.10927160307E-03 -0.30661014506E-03  0.32938812630E-03  0.00000000000E+00 0.  1.
       22    1    1    2    0    0 -0.81350725973E-03 -0.13647108191E-01  0.32170904057E-01  0.34955291787E-01  0.00000000000E+00 0.  1.
</event>
<event>
 5   0  0.6221259E+05  0.9118800E+02  0.7546771E-02  0.1180000E+00
      -11   -1    0    0    0    0  0.00000000000E+00  0.00000000000E+00  0.34996269501E-01  0.35000000000E-01  0.51099999109E-03 0.  1.
       11   -1    0    0    0    0 -0.00000000000E+00 -0.00000000000E+00 -0.34996269501E-01  0.35000000000E-01  0.51099999109E-03 0. -1.
       22    1    1    2    0    0  0.12432211681E-02 -0.29884512529E-01 -0.17376691576E-01  0.34591604445E-01  0.00000000000E+00 0. -1.
       22    1    1    2    0    0 -0.11200888807E-02  0.29996794413E-01  0.17838039970E-01  0.34917874278E-01  0.00000000000E+00 0.  1.
       22    1    1    2    0    0 -0.12313228738E-03 -0.11228188403E-03 -0.46134839460E-03  0.49052127668E-03  0.00000000000E+00 0.  1.
</event>
<event>
 5   0  0.6221259E+05  0.9118800E+02  0.7546771E-02  0.1180000E+00
      -11   -1    0    0    0    0  0.00000000000E+00  0.00000000000E+00  0.34996269501E-01  0.35000000000E-01  0.51099999109E-03 0.  1.
       11   -1    0    0    0    0 -0.00000000000E+00 -0.00000000000E+00 -0.34996269501E-01  0.35000000000E-01  0.51099999109E-03 0. -1.
       22    1    1    2    0    0 -0.48139719826E-04 -0.86702689633E-05  0.89707332168E-03  0.89840589416E-03  0.00000000000E+00 0.  1.
       22    1    1    2    0    0  0.99270165040E-03 -0.14630170841E-02  0.34057472209E-01  0.34103332518E-01  0.00000000000E+00 0.  1.
       22    1    1    2    0    0 -0.94456193058E-03  0.14716873531E-02 -0.34954545531E-01  0.34998261588E-01  0.00000000000E+00 0. -1.
</event>
<event>
 5   0  0.6221259E+05  0.9118800E+02  0.7546771E-02  0.1180000E+00
      -11   -1    0    0    0    0  0.00000000000E+00  0.00000000000E+00  0.34996269501E-01  0.35000000000E-01  0.51099999109E-03 0. -1.
       11   -1    0    0    0    0 -0.00000000000E+00 -0.00000000000E+00 -0.34996269501E-01  0.35000000000E-01  0.51099999109E-03 0.  1.
       22    1    1    2    0    0 -0.20581657985E-08 -0.10582617209E-08  0.53962461435E-07  0.54012065397E-07  0.00000000000E+00 0. -1.
       22    1    1    2    0    0  0.15542234394E-04 -0.11396344063E-02  0.34981383800E-01  0.34999946010E-01  0.00000000000E+00 0. -1.
       22    1    1    2    0    0 -0.15540176228E-04  0.11396354645E-02 -0.34981437763E-01  0.34999999978E-01  0.00000000000E+00 0.  1.
</event>
<event>
 5   0  0.6221259E+05  0.9118800E+02  0.7546771E-02  0.1180000E+00
      -11   -1    0    0    0    0  0.00000000000E+00  0.00000000000E+00  0.34996269501E-01  0.35000000000E-01  0.51099999109E-03 0.  1.
       11   -1    0    0    0    0 -0.00000000000E+00 -0.00000000000E+00 -0.34996269501E-01  0.35000000000E-01  0.51099999109E-03 0. -1.
       22    1    1    2    0    0 -0.41386046255E-06 -0.99899866763E-07  0.15060093033E-05  0.15650317848E-05  0.00000000000E+00 0. -1.
       22    1    1    2    0    0  0.50669247638E-03  0.27265299200E-02 -0.34889934764E-01  0.34999975007E-01  0.00000000000E+00 0. -1.
       22    1    1    2    0    0 -0.50627861592E-03 -0.27264300201E-02  0.34888428755E-01  0.34998459961E-01  0.00000000000E+00 0.  1.
</event>
<event>
 5   0  0.6221259E+05  0.9118800E+02  0.7546771E-02  0.1180000E+00
      -11   -1    0    0    0    0  0.00000000000E+00  0.00000000000E+00  0.34996269501E-01  0.35000000000E-01  0.51099999109E-03 0.  1.
       11   -1    0    0    0    0 -0.00000000000E+00 -0.00000000000E+00 -0.34996269501E-01  0.35000000000E-01  0.51099999109E-03 0. -1.
       22    1    1    2    0    0 -0.35019141484E-03 -0.44814527671E-02 -0.23975862982E-01  0.24393606922E-01  0.00000000000E+00 0. -1.
       22    1    1    2    0    0 -0.10365788400E-02  0.13999411071E-02 -0.10662367859E-01  0.10803722468E-01  0.00000000000E+00 0.  1.
       22    1    1    2    0    0  0.13867702548E-02  0.30815116600E-02  0.34638230841E-01  0.34802670611E-01  0.00000000000E+00 0.  1.
</event>
<event>
 5   0  0.6221259E+05  0.9118800E+02  0.7546771E-02  0.1180000E+00
      -11   -1    0    0    0    0  0.00000000000E+00  0.00000000000E+00  0.34996269501E-01  0.35000000000E-01  0.51099999109E-03 0.  1.
       11   -1    0    0    0    0 -0.00000000000E+00 -0.00000000000E+00 -0.34996269501E-01  0.35000000000E-01  0.51099999109E-03 0. -1.
       22    1    1    2    0    0 -0.14998366964E-06 -0.96350751464E-06  0.36409632031E-05  0.37692777662E-05  0.00000000000E+00 0.  1.
       22    1    1    2    0    0 -0.30357638996E-01  0.12247846342E-01 -0.12382423775E-01  0.34998862895E-01  0.00000000000E+00 0.  1.
       22    1    1    2    0    0  0.30357788980E-01 -0.12246882834E-01  0.12378782812E-01  0.34997367827E-01  0.00000000000E+00 0. -1.
</event>
<event>
 5   0  0.6221259E+05  0.9118800E+02  0.7546771E-02  0.1180000E+00
      -11   -1    0    0    0    0  0.00000000000E+00  0.00000000000E+00  0.34996269501E-01  0.35000000000E-01  0.51099999109E-03 0. -1.
       11   -1    0    0    0    0 -0.00000000000E+00 -0.00000000000E+00 -0.34996269501E-01  0.35000000000E-01  0.51099999109E-03 0.  1.
       22    1    1    2    0    0  0.25689354754E-01  0.13606075874E-02  0.19851118642E-01  0.32494016557E-01  0.00000000000E+00 0. -1.
       22    1    1    2    0    0  0.26269714360E-03 -0.11634409205E-03 -0.95535494711E-02  0.95578686554E-02  0.00000000000E+00 0.  1.
       22    1    1    2    0    0 -0.25952051898E-01 -0.12442634954E-02 -0.10297569171E-01  0.27948114787E-01  0.00000000000E+00 0.  1.
</event>
<event>
 5   0  0.6221259E+05  0.9118800E+02  0.7546771E-02  0.1180000E+00
      -11   -1    0    0    0    0  0.00000000000E+00  0.00000000000E+00  0.34996269501E-01  0.35000000000E-01  0.51099999109E-03 0. -1.
       11   -1    0    0    0    0 -0.00000000000E+00 -0.00000000000E+00 -0.34996269501E-01  0.35000000000E-01  0.51099999109E-03 0.  1.
       22    1    1    2    0    0  0.89445051591E-02 -0.29541849237E-02 -0.33708152364E-01  0.34999584525E-01  0.00000000000E+00 0.  1.
       22    1    1    2    0    0  0.15692115523E-06 -0.11046973989E-05  0.58268859710E-06  0.12587718591E-05  0.00000000000E+00 0.  1.
       22    1    1    2    0    0 -0.89446620802E-02  0.29552896211E-02  0.33707569676E-01  0.34999156703E-01  0.00000000000E+00 0. -1.
</event>
<event>
 5   0  0.6221259E+05  0.9118800E+02  0.7546771E-02  0.1180000E+00
      -11   -1    0    0    0    0  0.00000000000E+00  0.00000000000E+00  0.34996269501E-01  0.35000000000E-01  0.51099999109E-03 0.  1.
       11   -1    0    0    0    0 -0.00000000000E+00 -0.00000000000E+00 -0.34996269501E-01  0.35000000000E-01  0.51099999109E-03 0. -1.
       22    1    1    2    0    0 -0.13153587890E-02  0.33470277208E-03 -0.34771119145E-01  0.34797599361E-01  0.00000000000E+00 0. -1.
       22    1    1    2    0    0  0.26818342482E-02 -0.74157804339E-03  0.31638098575E-01  0.31760218110E-01  0.00000000000E+00 0.  1.
       22    1    1    2    0    0 -0.13664754592E-02  0.40687527132E-03  0.31330205701E-02  0.34421825286E-02  0.00000000000E+00 0. -1.
</event>
<event>
 5   0  0.6221259E+05  0.9118800E+02  0.7546771E-02  0.1180000E+00
      -11   -1    0    0    0    0  0.00000000000E+00  0.00000000000E+00  0.34996269501E-01  0.35000000000E-01  0.51099999109E-03 0. -1.
       11   -1    0    0    0    0 -0.00000000000E+00 -0.00000000000E+00 -0.34996269501E-01  0.35000000000E-01  0.51099999109E-03 0.  1.
       22    1    1    2    0    0  0.88259429210E-03 -0.24886383284E-02 -0.34900246277E-01  0.34999992623E-01  0.00000000000E+00 0.  1.
       22    1    1    2    0    0 -0.15905227225E-07 -0.86950549413E-08  0.40484303316E-08  0.18573368614E-07  0.00000000000E+00 0.  1.
       22    1    1    2    0    0 -0.88257838688E-03  0.24886470235E-02  0.34900242229E-01  0.34999988803E-01  0.00000000000E+00 0. -1.
</event>
<event>
 5   0  0.6221259E+05  0.9118800E+02  0.7546771E-02  0.1180000E+00
      -11   -1    0    0    0    0  0.00000000000E+00  0.00000000000E+00  0.34996269501E-01  0.35000000000E-01  0.51099999109E-03 0. -1.
       11   -1    0    0    0    0 -0.00000000000E+00 -0.00000000000E+00 -0.34996269501E-01  0.35000000000E-01  0.51099999109E-03 0.  1.
       22    1    1    2    0    0 -0.32689576754E-02  0.31153061270E-02  0.34704049865E-01  0.34996604029E-01  0.00000000000E+00 0. -1.
       22    1    1    2    0    0 -0.83665375154E-06  0.79242668662E-05 -0.23075579418E-05  0.82957108509E-05  0.00000000000E+00 0.  1.
       22    1    1    2    0    0  0.32697943291E-02 -0.31232303938E-02 -0.34701742307E-01  0.34995100260E-01  0.00000000000E+00 0.  1.
</event>
<event>
 5   0  0.6221259E+05  0.9118800E+02  0.7546771E-02  0.1180000E+00
      -11   -1    0    0    0    0  0.00000000000E+00  0.00000000000E+00  0.34996269501E-01  0.35000000000E-01  0.51099999109E-03 0.  1.
       11   -1    0    0    0    0 -0.00000000000E+00 -0.00000000000E+00 -0.34996269501E-01  0.35000000000E-01  0.51099999109E-03 0. -1.
       22    1    1    2    0    0  0.16926885864E-01  0.21564649815E-01  0.13291559546E-02  0.27446679986E-01  0.00000000000E+00 0.  1.
       22    1    1    2    0    0  0.18765359373E-02 -0.46605045548E-03  0.11396080374E-01  0.11558946234E-01  0.00000000000E+00 0.  1.
       22    1    1    2    0    0 -0.18803421802E-01 -0.21098599360E-01 -0.12725236328E-01  0.30994373780E-01  0.00000000000E+00 0. -1.
</event>
<event>
 5   0  0.6221259E+05  0.9118800E+02  0.7546771E-02  0.1180000E+00
      -11   -1    0    0    0    0  0.00000000000E+00  0.00000000000E+00  0.34996269501E-01  0.35000000000E-01  0.51099999109E-03 0. -1.
       11   -1    0    0    0    0 -0.00000000000E+00 -0.00000000000E+00 -0.34996269501E-01  0.35000000000E-01  0.51099999109E-03 0.  1.
       22    1    1    2    0    0 -0.54647332758E-02  0.10131355515E-02  0.30015088879E-01  0.30525322502E-01  0.00000000000E+00 0. -1.
       22    1    1    2    0    0  0.70095191287E-04 -0.11196310014E-03  0.45135800592E-02  0.45155125980E-02  0.00000000000E+00 0.  1.
       22    1    1    2    0    0  0.53946380846E-02 -0.90117245138E-03 -0.34528668938E-01  0.34959164900E-01  0.00000000000E+00 0.  1.
</event>
<event>
 5   0  0.6221259E+05  0.9118800E+02  0.7546771E-02  0.1180000E+00
      -11   -1    0    0    0    0  0.00000000000E+00  0.00000000000E+00  0.34996269501E-01  0.35000000000E-01  0.51099999109E-03 0.  1.
       11   -1    0    0    0    0 -0.00000000000E+00 -0.00000000000E+00 -0.34996269501E-01  0.35000000000E-01  0.51099999109E-03 0. -1.
       22    1    1    2    0    0  0.28282938979E-02 -0.37026191229E-02 -0.34688463780E-01  0.34999973631E-01  0.00000000000E+00 0. -1.
       22    1    1    2    0    0 -0.31018293011E-06  0.79359463270E-06  0.25390355409E-05  0.26781910629E-05  0.00000000000E+00 0.  1.
       22    1    1    2    0    0 -0.28279837150E-02  0.37018255283E-02  0.34685924744E-01  0.34997348178E-01  0.00000000000E+00 0.  1.
</event>
<event>
 5   0  0.6221259E+05  0.9118800E+02  0.7546771E-02  0.1180000E+00
      -11   -1    0    0    0    0  0.00000000000E+00  0.00000000000E+00  0.34996269501E-01  0.35000000000E-01  0.51099999109E-03 0.  1.
       11   -1    0    0    0    0 -0.00000000000E+00 -0.00000000000E+00 -0.34996269501E-01  0.35000000000E-01  0.51099999109E-03 0. -1.
       22    1    1    2    0    0 -0.16402854331E-06 -0.83060256311E-08  0.40348019638E-06  0.43562670023E-06  0.00000000000E+00 0.  1.
       22    1    1    2    0    0 -0.22730533109E-01  0.29139882100E-02 -0.26454172824E-01  0.34999881750E-01  0.00000000000E+00 0. -1.
       22    1    1    2    0    0  0.22730697138E-01 -0.29139799040E-02  0.26453769344E-01  0.34999682623E-01  0.00000000000E+00 0.  1.
</event>
<event>
 5   0  0.6221259E+05  0.9118800E+02  0.7546771E-02  0.1180000E+00
      -11   -1    0    0    0    0  0.00000000000E+00  0.00000000000E+00  0.34996269501E-01  0.35000000000E-01  0.51099999109E-03 0. -1.
       11   -1    0    0    0    0 -0.00000000000E+00 -0.00000000000E+00 -0.34996269501E-01  0.35000000000E-01  0.51099999109E-03 0.  1.
       22    1    1    2    0    0 -0.99887175849E-03  0.10001282020E-03 -0.34985600642E-01  0.34999999995E-01  0.00000000000E+00 0.  1.
       22    1    1    2    0    0  0.44966758268E-09 -0.74895634348E-09  0.30982051383E-07  0.30994364721E-07  0.00000000000E+00 0. -1.
       22    1    1    2    0    0  0.99887130882E-03 -0.10001207124E-03  0.34985569660E-01  0.34999969011E-01  0.00000000000E+00 0. -1.
</event>
<event>
 5   0  0.6221259E+05  0.9118800E+02  0.7546771E-02  0.1180000E+00
      -11   -1    0    0    0    0  0.00000000000E+00  0.00000000000E+00  0.34996269501E-01  0.35000000000E-01  0.51099999109E-03 0. -1.
       11   -1    0    0    0    0 -0.00000000000E+00 -0.00000000000E+00 -0.34996269501E-01  0.35000000000E-01  0.51099999109E-03 0.  1.
       22    1    1    2    0    0  0.10154094943E-04 -0.88272752183E-03  0.45210162162E-02  0.46063975741E-02  0.00000000000E+00 0.  1.
       22    1    1    2    0    0  0.10138801673E-02  0.21706327862E-02  0.30369730716E-01  0.30464079560E-01  0.00000000000E+00 0. -1.
       22    1    1    2    0    0 -0.10240342622E-02 -0.12879052643E-02 -0.34890746932E-01  0.34929522866E-01  0.00000000000E+00 0.  1.
</event>
<event>
 5   0  0.6221259E+05  0.9118800E+02  0.7546771E-02  0.1180000E+00
      -11   -1    0    0    0    0  0.00000000000E+00  0.00000000000E+00  0.34996269501E-01  0.35000000000E-01  0.51099999109E-03 0.  1.
       11   -1    0    0    0    0 -0.00000000000E+00 -0.00000000000E+00 -0.34996269501E-01  0.35000000000E-01  0.51099999109E-03 0. -1.
       22    1    1    2    0    0  0.64714303456E-02 -0.41209057782E-02 -0.34147313125E-01  0.34998575239E-01  0.00000000000E+00 0. -1.
       22    1    1    2    0    0 -0.54652772220E-05  0.87402041380E-05  0.18882525812E-03  0.18910642117E-03  0.00000000000E+00 0. -1.
       22    1    1    2    0    0 -0.64659650684E-02  0.41121655741E-02  0.33958487867E-01  0.34812318339E-01  0.00000000000E+00 0.  1.
</event>
<event>
 5   0  0.6221259E+05  0.9118800E+02  0.7546771E-02  0.1180000E+00
      -11   -1    0    0    0    0  0.00000000000E+00  0.00000000000E+00  0.34996269501E-01  0.35000000000E-01  0.51099999109E-03 0.  1.
       11   -1    0    0    0    0 -0.00000000000E+00 -0.00000000000E+00 -0.34996269501E-01  0.35000000000E-01  0.51099999109E-03 0. -1.
       22    1    1    2    0    0 -0.13412380322E-07 -0.71332264829E-07  0.17368804253E-05  0.17383963287E-05  0.00000000000E+00 0.  1.
       22    1    1    2    0    0  0.71575894520E-03  0.53683095734E-03  0.34986825202E-01  0.34998263330E-01  0.00000000000E+00 0.  1.
       22    1    1    2    0    0 -0.71574553282E-03 -0.53675962508E-03 -0.34988562083E-01  0.34999998274E-01  0.00000000000E+00 0. -1.
</event>
<event>
 5   0  0.6221259E+05  0.9118800E+02  0.7546771E-02  0.1180000E+00
      -11   -1    0    0    0    0  0.00000000000E+00  0.00000000000E+00  0.34996269501E-01  0.35000000000E-01  0.51099999109E-03 0.  1.
       11   -1    0    0    0    0 -0.00000000000E+00 -0.00000000000E+00 -0.34996269501E-01  0.35000000000E-01  0.51099999109E-03 0.  1.
       22    1    1    2    0    0  0.10254737202E-04 -0.28469632510E-03  0.34967003866E-01  0.34968164328E-01  0.00000000000E+00 0.  1.
       22    1    1    2    0    0 -0.23773019050E-04  0.23835892701E-03 -0.34980810672E-01  0.34981630828E-01  0.00000000000E+00 0.  1.
       22    1    1    2    0    0  0.13518281847E-04  0.46337398088E-04  0.13806806398E-04  0.50204843478E-04  0.00000000000E+00 0.  1.
</event>
<event>
 5   0  0.6221259E+05  0.9118800E+02  0.7546771E-02  0.1180000E+00
      -11   -1    0    0    0    0  0.00000000000E+00  0.00000000000E+00  0.34996269501E-01  0.35000000000E-01  0.51099999109E-03 0. -1.
       11   -1    0    0    0    0 -0.00000000000E+00 -0.00000000000E+00 -0.34996269501E-01  0.35000000000E-01  0.51099999109E-03 0. -1.
       22    1    1    2    0    0  0.76459073580E-09  0.18737324068E-09  0.35002717080E-01  0.34999995639E-01  0.00000000000E+00 0. -1.
       22    1    1    2    0    0 -0.70473648597E-13 -0.17270515194E-13 -0.35002721405E-01  0.34999999965E-01  0.00000000000E+00 0. -1.
       22    1    1    2    0    0 -0.76452026215E-09 -0.18735597016E-09  0.43248122225E-08  0.43958610363E-08  0.00000000000E+00 0.  1.
</event>
<event>
 5   0  0.6221259E+05  0.9118800E+02  0.7546771E-02  0.1180000E+00
      -11   -1    0    0    0    0  0.00000000000E+00  0.00000000000E+00  0.34996269501E-01  0.35000000000E-01  0.51099999109E-03 0.  1.
       11   -1    0    0    0    0 -0.00000000000E+00 -0.00000000000E+00 -0.34996269501E-01  0.35000000000E-01  0.51099999109E-03 0. -1.
       22    1    1    2    0    0 -0.23895013647E-02 -0.34270127216E-02  0.34322511036E-01  0.34575842676E-01  0.00000000000E+00 0.  1.
       22    1    1    2    0    0  0.12388342137E-03 -0.18675643859E-03  0.39041900244E-03  0.45016893152E-03  0.00000000000E+00 0. -1.
       22    1    1    2    0    0  0.22656179433E-02  0.36137691602E-02 -0.34712930038E-01  0.34973988392E-01  0.00000000000E+00 0. -1.
</event>
<event>
 5   0  0.6221259E+05  0.9118800E+02  0.7546771E-02  0.1180000E+00
      -11   -1    0    0    0    0  0.00000000000E+00  0.00000000000E+00  0.34996269501E-01  0.35000000000E-01  0.51099999109E-03 0.  1.
       11   -1    0    0    0    0 -0.00000000000E+00 -0.00000000000E+00 -0.34996269501E-01  0.35000000000E-01  0.51099999109E-03 0. -1.
       22    1    1    2    0    0  0.28282857821E-04 -0.39980465945E-05  0.14803528284E-04  0.32172175445E-04  0.00000000000E+00 0. -1.
       22    1    1    2    0    0 -0.31378033544E-01 -0.49834973299E-03  0.15482271707E-01  0.34993286195E-01  0.00000000000E+00 0.  1.
       22    1    1    2    0    0  0.31349750686E-01  0.50234777958E-03 -0.15497075235E-01  0.34974541630E-01  0.00000000000E+00 0. -1.
</event>
<event>
 5   0  0.6221259E+05  0.9118800E+02  0.7546771E-02  0.1180000E+00
      -11   -1    0    0    0    0  0.00000000000E+00  0.00000000000E+00  0.34996269501E-01  0.35000000000E-01  0.51099999109E-03 0.  1.
       11   -1    0    0    0    0 -0.00000000000E+00 -0.00000000000E+00 -0.34996269501E-01  0.35000000000E-01  0.51099999109E-03 0. -1.
       22    1    1    2    0    0  0.30976307777E-02 -0.12451676219E-01 -0.32137188926E-01  0.34604023887E-01  0.00000000000E+00 0. -1.
       22    1    1    2    0    0 -0.23937122425E-04 -0.30869787640E-04 -0.40486102034E-03  0.40674116512E-03  0.00000000000E+00 0.  1.
       22    1    1    2    0    0 -0.30736936553E-02  0.12482546006E-01  0.32542049947E-01  0.34989234948E-01  0.00000000000E+00 0.  1.
</event>
<event>
 5   0  0.6221259E+05  0.9118800E+02  0.7546771E-02  0.1180000E+00
      -11   -1    0    0    0    0  0.00000000000E+00  0.00000000000E+00  0.34996269501E-01  0.35000000000E-01  0.51099999109E-03 0.  1.
       11   -1    0    0    0    0 -0.00000000000E+00 -0.00000000000E+00 -0.34996269501E-01  0.35000000000E-01  0.51099999109E-03 0. -1.
       22    1    1    2    0    0  0.83890498059E-07  0.11108088686E-06  0.25732930724E-07  0.14155833714E-06  0.00000000000E+00 0. -1.
       22    1    1    2    0    0 -0.90286377313E-04 -0.19076707185E-02 -0.34947801147E-01  0.34999945203E-01  0.00000000000E+00 0. -1.
       22    1    1    2    0    0  0.90202486815E-04  0.19075596376E-02  0.34947775415E-01  0.34999913238E-01  0.00000000000E+00 0.  1.
</event>
<event>
 5   0  0.6221259E+05  0.9118800E+02  0.7546771E-02  0.1180000E+00
      -11   -1    0    0    0    0  0.00000000000E+00  0.00000000000E+00  0.34996269501E-01  0.35000000000E-01  0.51099999109E-03 0. -1.
       11   -1    0    0    0    0 -0.00000000000E+00 -0.00000000000E+00 -0.34996269501E-01  0.35000000000E-01  0.51099999109E-03 0.  1.
       22    1    1    2    0    0  0.37025361892E-03 -0.63580754783E-03 -0.12669257917E-02  0.14650733572E-02  0.00000000000E+00 0. -1.
       22    1    1    2    0    0  0.16283322403E-02 -0.67045645588E-03  0.34836285614E-01  0.34880765088E-01  0.00000000000E+00 0. -1.
       22    1    1    2    0    0 -0.19985858592E-02  0.13062640037E-02 -0.33569359822E-01  0.33654161555E-01  0.00000000000E+00 0.  1.
</event>
<event>
 5   0  0.6221259E+05  0.9118800E+02  0.7546771E-02  0.1180000E+00
      -11   -1    0    0    0    0  0.00000000000E+00  0.00000000000E+00  0.34996269501E-01  0.35000000000E-01  0.51099999109E-03 0. -1.
       11   -1    0    0    0    0 -0.00000000000E+00 -0.00000000000E+00 -0.34996269501E-01  0.35000000000E-01  0.51099999109E-03 0.  1.
       22    1    1    2    0    0 -0.56914387896E-06 -0.39058920849E-06  0.20879044474E-06  0.72116442962E-06  0.00000000000E+00 0.  1.
       22    1    1    2    0    0  0.77428295486E-03  0.14372676944E-02  0.34961453188E-01  0.34999549448E-01  0.00000000000E+00 0. -1.
       22    1    1    2    0    0 -0.77371381098E-03 -0.14368771052E-02 -0.34961661979E-01  0.34999729388E-01  0.00000000000E+00 0.  1.
</event>
<event>
 5   0  0.6221259E+05  0.9118800E+02  0.7546771E-02  0.1180000E+00
      -11   -1    0    0    0    0  0.00000000000E+00  0.00000000000E+00  0.34996269501E-01  0.35000000000E-01  0.51099999109E-03 0. -1.
       11   -1    0    0    0    0 -0.00000000000E+00 -0.00000000000E+00 -0.34996269501E-01  0.35000000000E-01  0.51099999109E-03 0.  1.
       22    1    1    2    0    0 -0.13412657765E-02 -0.41079824974E-02 -0.32510589198E-01  0.32796538294E-01  0.00000000000E+00 0.  1.
       22    1    1    2    0    0 -0.46629201425E-03 -0.18593237690E-03 -0.21618776317E-02  0.22193949594E-02  0.00000000000E+00 0.  1.
       22    1    1    2    0    0  0.18075577907E-02  0.42939148743E-02  0.34672466829E-01  0.34984066747E-01  0.00000000000E+00 0. -1.
</event>
<event>
 5   0  0.6221259E+05  0.9118800E+02  0.7546771E-02  0.1180000E+00
      -11   -1    0    0    0    0  0.00000000000E+00  0.00000000000E+00  0.34996269501E-01  0.35000000000E-01  0.51099999109E-03 0.  1.
       11   -1    0    0    0    0 -0.00000000000E+00 -0.00000000000E+00 -0.34996269501E-01  0.35000000000E-01  0.51099999109E-03 0. -1.
       22    1    1    2    0    0  0.85903770604E-03 -0.22999334179E-02 -0.34913755524E-01  0.34999970918E-01  0.00000000000E+00 0. -1.
       22    1    1    2    0    0  0.11170514059E-05  0.18316488777E-05  0.33266423001E-04  0.33335531205E-04  0.00000000000E+00 0. -1.
       22    1    1    2    0    0 -0.86015475745E-03  0.22981017690E-02  0.34880489101E-01  0.34966693551E-01  0.00000000000E+00 0.  1.
</event>
<event>
 5   0  0.6221259E+05  0.9118800E+02  0.7546771E-02  0.1180000E+00
      -11   -1    0    0    0    0  0.00000000000E+00  0.00000000000E+00  0.34996269501E-01  0.35000000000E-01  0.51099999109E-03 0. -1.
       11   -1    0    0    0    0 -0.00000000000E+00 -0.00000000000E+00 -0.34996269501E-01  0.35000000000E-01  0.51099999109E-03 0.  1.
       22    1    1    2    0    0 -0.28355814813E-02  0.56710212992E-03  0.34536878693E-01  0.34657728100E-01  0.00000000000E+00 0. -1.
       22    1    1    2    0    0  0.27355124405E-02 -0.14561949336E-02 -0.34268279592E-01  0.34408117039E-01  0.00000000000E+00 0.  1.
       22    1    1    2    0    0  0.10006904086E-03  0.88909280370E-03 -0.26859910157E-03  0.93415486076E-03  0.00000000000E+00 0.  1.
</event>
<event>
 5   0  0.6221259E+05  0.9118800E+02  0.7546771E-02  0.1180000E+00
      -11   -1    0    0    0    0  0.00000000000E+00  0.00000000000E+00  0.34996269501E-01  0.35000000000E-01  0.51099999109E-03 0. -1.
       11   -1    0    0    0    0 -0.00000000000E+00 -0.00000000000E+00 -0.34996269501E-01  0.35000000000E-01  0.51099999109E-03 0. -1.
       22    1    1    2    0    0 -0.10005423485E-04  0.15460369441E-04  0.93245659090E-04  0.95046748821E-04  0.00000000000E+00 0.  1.
       22    1    1    2    0    0 -0.68030154595E-09  0.10512012058E-08 -0.35000114200E-01  0.34999098383E-01  0.00000000000E+00 0. -1.
       22    1    1    2    0    0  0.10006103786E-04 -0.15461420643E-04  0.34906868541E-01  0.34905854868E-01  0.00000000000E+00 0. -1.
</event>
<event>
 5   0  0.6221259E+05  0.9118800E+02  0.7546771E-02  0.1180000E+00
      -11   -1    0    0    0    0  0.00000000000E+00  0.00000000000E+00  0.34996269501E-01  0.35000000000E-01  0.51099999109E-03 0.  1.
       11   -1    0    0    0    0 -0.00000000000E+00 -0.00000000000E+00 -0.34996269501E-01  0.35000000000E-01  0.51099999109E-03 0. -1.
       22    1    1    2    0    0  0.61627545804E-02 -0.19210946143E-02  0.81263700553E-02  0.10378248350E-01  0.00000000000E+00 0.  1.
       22    1    1    2    0    0 -0.65140004488E-02  0.28606456397E-02 -0.33490482065E-01  0.34237813661E-01  0.00000000000E+00 0. -1.
       22    1    1    2    0    0  0.35124586841E-03 -0.93955102546E-03  0.25364112010E-01  0.25383937989E-01  0.00000000000E+00 0.  1.
</event>
<event>
 5   0  0.6221259E+05  0.9118800E+02  0.7546771E-02  0.1180000E+00
      -11   -1    0    0    0    0  0.00000000000E+00  0.00000000000E+00  0.34996269501E-01  0.35000000000E-01  0.51099999109E-03 0.  1.
       11   -1    0    0    0    0 -0.00000000000E+00 -0.00000000000E+00 -0.34996269501E-01  0.35000000000E-01  0.51099999109E-03 0. -1.
       22    1    1    2    0    0  0.41610710324E-07 -0.50190904077E-07  0.15558575141E-05  0.15572229070E-05  0.00000000000E+00 0.  1.
       22    1    1    2    0    0 -0.55857002717E-02 -0.79737714581E-02  0.33617137699E-01  0.34998471765E-01  0.00000000000E+00 0.  1.
       22    1    1    2    0    0  0.55856586610E-02  0.79738216490E-02 -0.33618693557E-01  0.34999971012E-01  0.00000000000E+00 0. -1.
</event>
<event>
 5   0  0.6221259E+05  0.9118800E+02  0.7546771E-02  0.1180000E+00
      -11   -1    0    0    0    0  0.00000000000E+00  0.00000000000E+00  0.34996269501E-01  0.35000000000E-01  0.51099999109E-03 0.  1.
       11   -1    0    0    0    0 -0.00000000000E+00 -0.00000000000E+00 -0.34996269501E-01  0.35000000000E-01  0.51099999109E-03 0. -1.
       22    1    1    2    0    0  0.17348560160E-01  0.84637115629E-02  0.29192536812E-01  0.34997302161E-01  0.00000000000E+00 0.  1.
       22    1    1    2    0    0  0.79871656485E-06  0.23228556422E-08  0.26616955717E-05  0.27789524759E-05  0.00000000000E+00 0. -1.
       22    1    1    2    0    0 -0.17349358877E-01 -0.84637138858E-02 -0.29195198507E-01  0.34999918886E-01  0.00000000000E+00 0. -1.
</event>
<event>
 5   0  0.6221259E+05  0.9118800E+02  0.7546771E-02  0.1180000E+00
      -11   -1    0    0    0    0  0.00000000000E+00  0.00000000000E+00  0.34996269501E-01  0.35000000000E-01  0.51099999109E-03 0. -1.
       11   -1    0    0    0    0 -0.00000000000E+00 -0.00000000000E+00 -0.34996269501E-01  0.35000000000E-01  0.51099999109E-03 0.  1.
       22    1    1    2    0    0 -0.75888143405E-02  0.57716147449E-03 -0.34162449376E-01  0.34999945226E-01  0.00000000000E+00 0.  1.
       22    1    1    2    0    0  0.75861349122E-02 -0.57586821697E-03  0.34141480558E-01  0.34978875937E-01  0.00000000000E+00 0. -1.
       22    1    1    2    0    0  0.26794283124E-05 -0.12932575104E-05  0.20968817804E-04  0.21178837814E-04  0.00000000000E+00 0.  1.
</event>
<event>
 5   0  0.6221259E+05  0.9118800E+02  0.7546771E-02  0.1180000E+00
      -11   -1    0    0    0    0  0.00000000000E+00  0.00000000000E+00  0.34996269501E-01  0.35000000000E-01  0.51099999109E-03 0. -1.
       11   -1    0    0    0    0 -0.00000000000E+00 -0.00000000000E+00 -0.34996269501E-01  0.35000000000E-01  0.51099999109E-03 0.  1.
       22    1    1    2    0    0  0.12781701972E-01  0.21790315404E-01  0.24199432122E-01  0.34982885326E-01  0.00000000000E+00 0. -1.
       22    1    1    2    0    0 -0.12786761797E-01 -0.21781789525E-01 -0.24220391961E-01  0.34993928315E-01  0.00000000000E+00 0.  1.
       22    1    1    2    0    0  0.50598242482E-05 -0.85258786720E-05  0.20959838452E-04  0.23186359276E-04  0.00000000000E+00 0.  1.
</event>
<event>
 5   0  0.6221259E+05  0.9118800E+02  0.7546771E-02  0.1180000E+00
      -11   -1    0    0    0    0  0.00000000000E+00  0.00000000000E+00  0.34996269501E-01  0.35000000000E-01  0.51099999109E-03 0. -1.
       11   -1    0    0    0    0 -0.00000000000E+00 -0.00000000000E+00 -0.34996269501E-01  0.35000000000E-01  0.51099999109E-03 0. -1.
       22    1    1    2    0    0  0.54870559175E-03 -0.29999245947E-03  0.16687201693E-01  0.16698915343E-01  0.00000000000E+00 0. -1.
       22    1    1    2    0    0 -0.73207741353E-03  0.79887002015E-03 -0.34981894548E-01  0.34998672501E-01  0.00000000000E+00 0. -1.
       22    1    1    2    0    0  0.18337182178E-03 -0.49887756068E-03  0.18294692856E-01  0.18302412156E-01  0.00000000000E+00 0.  1.
</event>
<event>
 5   0  0.6221259E+05  0.9118800E+02  0.7546771E-02  0.1180000E+00
      -11   -1    0    0    0    0  0.00000000000E+00  0.00000000000E+00  0.34996269501E-01  0.35000000000E-01  0.51099999109E-03 0. -1.
       11   -1    0    0    0    0 -0.00000000000E+00 -0.00000000000E+00 -0.34996269501E-01  0.35000000000E-01  0.51099999109E-03 0.  1.
       22    1    1    2    0    0 -0.36175390615E-04  0.12273903639E-04  0.50282708555E-03  0.50427610052E-03  0.00000000000E+00 0.  1.
       22    1    1    2    0    0 -0.36120884064E-03 -0.57750003400E-03 -0.34992500896E-01  0.34999129947E-01  0.00000000000E+00 0.  1.
       22    1    1    2    0    0  0.39738423125E-03  0.56522613036E-03  0.34489673810E-01  0.34496593953E-01  0.00000000000E+00 0. -1.
</event>
<event>
 5   0  0.6221259E+05  0.9118800E+02  0.7546771E-02  0.1180000E+00
      -11   -1    0    0    0    0  0.00000000000E+00  0.00000000000E+00  0.34996269501E-01  0.35000000000E-01  0.51099999109E-03 0.  1.
       11   -1    0    0    0    0 -0.00000000000E+00 -0.00000000000E+00 -0.34996269501E-01  0.35000000000E-01  0.51099999109E-03 0.  1.
       22    1    1    2    0    0 -0.18375896570E-03  0.42747547891E-03 -0.34996268960E-01  0.34999362048E-01  0.00000000000E+00 0.  1.
       22    1    1    2    0    0  0.17926779699E-03 -0.42768763583E-03  0.34989117571E-01  0.34992190587E-01  0.00000000000E+00 0.  1.
       22    1    1    2    0    0  0.44911687082E-05  0.21215691834E-06  0.71513892011E-05  0.84473649400E-05  0.00000000000E+00 0.  1.
</event>
<event>
 5   0  0.6221259E+05  0.9118800E+02  0.7546771E-02  0.1180000E+00
      -11   -1    0    0    0    0  0.00000000000E+00  0.00000000000E+00  0.34996269501E-01  0.35000000000E-01  0.51099999109E-03 0.  1.
       11   -1    0    0    0    0 -0.00000000000E+00 -0.00000000000E+00 -0.34996269501E-01  0.35000000000E-01  0.51099999109E-03 0. -1.
       22    1    1    2    0    0 -0.60343718026E-09 -0.17285575301E-08  0.45794582099E-09  0.18872630819E-08  0.00000000000E+00 0. -1.
       22    1    1    2    0    0 -0.33135302876E-01 -0.10093607575E-01 -0.50170397885E-02  0.34999998554E-01  0.00000000000E+00 0. -1.
       22    1    1    2    0    0  0.33135303480E-01  0.10093609303E-01  0.50170393305E-02  0.34999999558E-01  0.00000000000E+00 0.  1.
</event>
<event>
 5   0  0.6221259E+05  0.9118800E+02  0.7546771E-02  0.1180000E+00
      -11   -1    0    0    0    0  0.00000000000E+00  0.00000000000E+00  0.34996269501E-01  0.35000000000E-01  0.51099999109E-03 0. -1.
       11   -1    0    0    0    0 -0.00000000000E+00 -0.00000000000E+00 -0.34996269501E-01  0.35000000000E-01  0.51099999109E-03 0.  1.
       22    1    1    2    0    0  0.56043595785E-03 -0.35481177154E-02  0.34815172283E-01  0.34999992127E-01  0.00000000000E+00 0. -1.
       22    1    1    2    0    0 -0.56043361048E-03  0.35481109053E-02 -0.34815178966E-01  0.34999998047E-01  0.00000000000E+00 0.  1.
       22    1    1    2    0    0 -0.23473774604E-08  0.68100565302E-08  0.66828449783E-08  0.98258571071E-08  0.00000000000E+00 0.  1.
</event>
<event>
 5   0  0.6221259E+05  0.9118800E+02  0.7546771E-02  0.1180000E+00
      -11   -1    0    0    0    0  0.00000000000E+00  0.00000000000E+00  0.34996269501E-01  0.35000000000E-01  0.51099999109E-03 0.  1.
       11   -1    0    0    0    0 -0.00000000000E+00 -0.00000000000E+00 -0.34996269501E-01  0.35000000000E-01  0.51099999109E-03 0.  1.
       22    1    1    2    0    0 -0.14162330055E-03  0.56454024722E-04 -0.34999667481E-01  0.34999999543E-01  0.00000000000E+00 0.  1.
       22    1    1    2    0    0 -0.17250321963E-08 -0.75602265613E-09  0.14983654595E-08  0.24067416532E-08  0.00000000000E+00 0. -1.
       22    1    1    2    0    0  0.14162502558E-03 -0.56453268699E-04  0.34999665983E-01  0.34999998050E-01  0.00000000000E+00 0.  1.
</event>
<event>
 5   0  0.6221259E+05  0.9118800E+02  0.7546771E-02  0.1180000E+00
      -11   -1    0    0    0    0  0.00000000000E+00  0.00000000000E+00  0.34996269501E-01  0.35000000000E-01  0.51099999109E-03 0.  1.
       11   -1    0    0    0    0 -0.00000000000E+00 -0.00000000000E+00 -0.34996269501E-01  0.35000000000E-01  0.51099999109E-03 0. -1.
       22    1    1    2    0    0 -0.28426497826E-01  0.15658751892E-01 -0.13013057601E-01  0.34965725470E-01  0.00000000000E+00 0. -1.
       22    1    1    2    0    0  0.28424525965E-01 -0.15657111013E-01  0.13064646964E-01  0.34982621427E-01  0.00000000000E+00 0.  1.
       22    1    1    2    0    0  0.19718610966E-05 -0.16408793931E-05 -0.51589362824E-04  0.51653103275E-04  0.00000000000E+00 0. -1.
</event>
<event>
 5   0  0.6221259E+05  0.9118800E+02  0.7546771E-02  0.1180000E+00
      -11   -1    0    0    0    0  0.00000000000E+00  0.00000000000E+00  0.34996269501E-01  0.35000000000E-01  0.51099999109E-03 0.  1.
       11   -1    0    0    0    0 -0.00000000000E+00 -0.00000000000E+00 -0.34996269501E-01  0.35000000000E-01  0.51099999109E-03 0. -1.
       22    1    1    2    0    0 -0.13049434858E-02  0.93247618275E-03  0.34951073678E-01  0.34987854187E-01  0.00000000000E+00 0.  1.
       22    1    1    2    0    0  0.14342339198E-02 -0.47842181562E-03 -0.30158759627E-01  0.30196633862E-01  0.00000000000E+00 0. -1.
       22    1    1    2    0    0 -0.12929043403E-03 -0.45405436712E-03 -0.47923140515E-02  0.48155119513E-02  0.00000000000E+00 0.  1.
</event>
<event>
 5   0  0.6221259E+05  0.9118800E+02  0.7546771E-02  0.1180000E+00
      -11   -1    0    0    0    0  0.00000000000E+00  0.00000000000E+00  0.34996269501E-01  0.35000000000E-01  0.51099999109E-03 0.  1.
       11   -1    0    0    0    0 -0.00000000000E+00 -0.00000000000E+00 -0.34996269501E-01  0.35000000000E-01  0.51099999109E-03 0. -1.
       22    1    1    2    0    0  0.37735187198E-02 -0.51441273545E-02 -0.20524759482E-01  0.21493423216E-01  0.00000000000E+00 0. -1.
       22    1    1    2    0    0  0.15455248429E-01 -0.92980182569E-02  0.19931181569E-02  0.18146359621E-01  0.00000000000E+00 0. -1.
       22    1    1    2    0    0 -0.19228767149E-01  0.14442145611E-01  0.18531641325E-01  0.30360217162E-01  0.00000000000E+00 0.  1.
</event>
<event>
 5   0  0.6221259E+05  0.9118800E+02  0.7546771E-02  0.1180000E+00
      -11   -1    0    0    0    0  0.00000000000E+00  0.00000000000E+00  0.34996269501E-01  0.35000000000E-01  0.51099999109E-03 0. -1.
       11   -1    0    0    0    0 -0.00000000000E+00 -0.00000000000E+00 -0.34996269501E-01  0.35000000000E-01  0.51099999109E-03 0.  1.
       22    1    1    2    0    0 -0.16182383428E-04 -0.43402310553E-05 -0.22780988529E-05  0.16908485249E-04  0.00000000000E+00 0. -1.
       22    1    1    2    0    0  0.63921750488E-02  0.15815672390E-01 -0.30553481293E-01  0.34993008075E-01  0.00000000000E+00 0.  1.
       22    1    1    2    0    0 -0.63759926653E-02 -0.15811332159E-01  0.30555759392E-01  0.34990083440E-01  0.00000000000E+00 0. -1.
</event>
<event>
 5   0  0.6221259E+05  0.9118800E+02  0.7546771E-02  0.1180000E+00
      -11   -1    0    0    0    0  0.00000000000E+00  0.00000000000E+00  0.34996269501E-01  0.35000000000E-01  0.51099999109E-03 0.  1.
       11   -1    0    0    0    0 -0.00000000000E+00 -0.00000000000E+00 -0.34996269501E-01  0.35000000000E-01  0.51099999109E-03 0. -1.
       22    1    1    2    0    0 -0.16501984282E-01  0.11938339399E-01 -0.17519742061E-01  0.26865978388E-01  0.00000000000E+00 0.  1.
       22    1    1    2    0    0 -0.89704026780E-04  0.10246156858E-02  0.21652605884E-01  0.21677020683E-01  0.00000000000E+00 0.  1.
       22    1    1    2    0    0  0.16591688309E-01 -0.12962955085E-01 -0.41328638233E-02  0.21457000929E-01  0.00000000000E+00 0. -1.
</event>
<event>
 5   0  0.6221259E+05  0.9118800E+02  0.7546771E-02  0.1180000E+00
      -11   -1    0    0    0    0  0.00000000000E+00  0.00000000000E+00  0.34996269501E-01  0.35000000000E-01  0.51099999109E-03 0.  1.
       11   -1    0    0    0    0 -0.00000000000E+00 -0.00000000000E+00 -0.34996269501E-01  0.35000000000E-01  0.51099999109E-03 0. -1.
       22    1    1    2    0    0 -0.19918869540E-05 -0.31880017262E-05  0.78281971715E-04  0.78372176595E-04  0.00000000000E+00 0. -1.
       22    1    1    2    0    0  0.69597451783E-02  0.52997360847E-03  0.34218048798E-01  0.34922683008E-01  0.00000000000E+00 0.  1.
       22    1    1    2    0    0 -0.69577532914E-02 -0.52678560675E-03 -0.34296330769E-01  0.34998944815E-01  0.00000000000E+00 0. -1.
</event>
<event>
 5   0  0.6221259E+05  0.9118800E+02  0.7546771E-02  0.1180000E+00
      -11   -1    0    0    0    0  0.00000000000E+00  0.00000000000E+00  0.34996269501E-01  0.35000000000E-01  0.51099999109E-03 0.  1.
       11   -1    0    0    0    0 -0.00000000000E+00 -0.00000000000E+00 -0.34996269501E-01  0.35000000000E-01  0.51099999109E-03 0. -1.
       22    1    1    2    0    0  0.50446374144E-03 -0.41900826157E-04  0.32044099811E-02  0.32441459080E-02  0.00000000000E+00 0.  1.
       22    1    1    2    0    0 -0.26389408513E-02 -0.22697223634E-02  0.31609241863E-01  0.31800311627E-01  0.00000000000E+00 0.  1.
       22    1    1    2    0    0  0.21344771098E-02  0.23116231895E-02 -0.34813651844E-01  0.34955542465E-01  0.00000000000E+00 0. -1.
</event>
<event>
 5   0  0.6221259E+05  0.9118800E+02  0.7546771E-02  0.1180000E+00
      -11   -1    0    0    0    0  0.00000000000E+00  0.00000000000E+00  0.34996269501E-01  0.35000000000E-01  0.51099999109E-03 0.  1.
       11   -1    0    0    0    0 -0.00000000000E+00 -0.00000000000E+00 -0.34996269501E-01  0.35000000000E-01  0.51099999109E-03 0. -1.
       22    1    1    2    0    0  0.10913635079E-02  0.91387383068E-03  0.34091459045E-01  0.34121163806E-01  0.00000000000E+00 0.  1.
       22    1    1    2    0    0 -0.16502648047E-02 -0.22898087593E-02 -0.34267301442E-01  0.34383346931E-01  0.00000000000E+00 0. -1.
       22    1    1    2    0    0  0.55890129683E-03  0.13759349286E-02  0.17584239685E-03  0.14954892630E-02  0.00000000000E+00 0.  1.
</event>
<event>
 5   0  0.6221259E+05  0.9118800E+02  0.7546771E-02  0.1180000E+00
      -11   -1    0    0    0    0  0.00000000000E+00  0.00000000000E+00  0.34996269501E-01  0.35000000000E-01  0.51099999109E-03 0. -1.
       11   -1    0    0    0    0 -0.00000000000E+00 -0.00000000000E+00 -0.34996269501E-01  0.35000000000E-01  0.51099999109E-03 0.  1.
       22    1    1    2    0    0  0.20273136647E-03 -0.58996658582E-03 -0.33526988312E-01  0.33532791501E-01  0.00000000000E+00 0.  1.
       22    1    1    2    0    0 -0.15353574092E-03  0.14123306778E-03 -0.14612459353E-02  0.14760622232E-02  0.00000000000E+00 0.  1.
       22    1    1    2    0    0 -0.49195625543E-04  0.44873351804E-03  0.34988234247E-01  0.34991146276E-01  0.00000000000E+00 0. -1.
</event>
<event>
 5   0  0.6221259E+05  0.9118800E+02  0.7546771E-02  0.1180000E+00
      -11   -1    0    0    0    0  0.00000000000E+00  0.00000000000E+00  0.34996269501E-01  0.35000000000E-01  0.51099999109E-03 0. -1.
       11   -1    0    0    0    0 -0.00000000000E+00 -0.00000000000E+00 -0.34996269501E-01  0.35000000000E-01  0.51099999109E-03 0.  1.
       22    1    1    2    0    0 -0.18184056540E-02  0.24654444242E-02 -0.34824291231E-01  0.34958779656E-01  0.00000000000E+00 0.  1.
       22    1    1    2    0    0  0.76309003247E-03 -0.35191402034E-04  0.17388646987E-01  0.17405418377E-01  0.00000000000E+00 0.  1.
       22    1    1    2    0    0  0.10553156215E-02 -0.24302530222E-02  0.17435644244E-01  0.17635801967E-01  0.00000000000E+00 0. -1.
</event>
<event>
 5   0  0.6221259E+05  0.9118800E+02  0.7546771E-02  0.1180000E+00
      -11   -1    0    0    0    0  0.00000000000E+00  0.00000000000E+00  0.34996269501E-01  0.35000000000E-01  0.51099999109E-03 0.  1.
       11   -1    0    0    0    0 -0.00000000000E+00 -0.00000000000E+00 -0.34996269501E-01  0.35000000000E-01  0.51099999109E-03 0. -1.
       22    1    1    2    0    0  0.13906280647E-04 -0.13905999614E-04  0.17111770408E-04  0.26068643102E-04  0.00000000000E+00 0. -1.
       22    1    1    2    0    0 -0.17142974661E-02 -0.28790628471E-02 -0.34834459376E-01  0.34995247945E-01  0.00000000000E+00 0. -1.
       22    1    1    2    0    0  0.17003911854E-02  0.28929688467E-02  0.34817347606E-01  0.34978683412E-01  0.00000000000E+00 0.  1.
</event>
<event>
 5   0  0.6221259E+05  0.9118800E+02  0.7546771E-02  0.1180000E+00
      -11   -1    0    0    0    0  0.00000000000E+00  0.00000000000E+00  0.34996269501E-01  0.35000000000E-01  0.51099999109E-03 0. -1.
       11   -1    0    0    0    0 -0.00000000000E+00 -0.00000000000E+00 -0.34996269501E-01  0.35000000000E-01  0.51099999109E-03 0.  1.
       22    1    1    2    0    0 -0.30961605533E-01 -0.10279628217E-01 -0.12632223598E-01  0.34983779763E-01  0.00000000000E+00 0.  1.
       22    1    1    2    0    0  0.30948120210E-01  0.10231308800E-01  0.12648383595E-01  0.34963515725E-01  0.00000000000E+00 0. -1.
       22    1    1    2    0    0  0.13485322917E-04  0.48319417614E-04 -0.16159996762E-04  0.52704511649E-04  0.00000000000E+00 0.  1.
</event>
<event>
 5   0  0.6221259E+05  0.9118800E+02  0.7546771E-02  0.1180000E+00
      -11   -1    0    0    0    0  0.00000000000E+00  0.00000000000E+00  0.34996269501E-01  0.35000000000E-01  0.51099999109E-03 0. -1.
       11   -1    0    0    0    0 -0.00000000000E+00 -0.00000000000E+00 -0.34996269501E-01  0.35000000000E-01  0.51099999109E-03 0.  1.
       22    1    1    2    0    0 -0.92307156985E-03 -0.69413354858E-03  0.34980900229E-01  0.34999960904E-01  0.00000000000E+00 0. -1.
       22    1    1    2    0    0  0.92300462699E-03  0.69416765794E-03 -0.34980904271E-01  0.34999963855E-01  0.00000000000E+00 0.  1.
       22    1    1    2    0    0  0.66942863026E-07 -0.34109356622E-07  0.40420030222E-08  0.75240500448E-07  0.00000000000E+00 0.  1.
</event>
<event>
 5   0  0.6221259E+05  0.9118800E+02  0.7546771E-02  0.1180000E+00
      -11   -1    0    0    0    0  0.00000000000E+00  0.00000000000E+00  0.34996269501E-01  0.35000000000E-01  0.51099999109E-03 0.  1.
       11   -1    0    0    0    0 -0.00000000000E+00 -0.00000000000E+00 -0.34996269501E-01  0.35000000000E-01  0.51099999109E-03 0. -1.
       22    1    1    2    0    0  0.16551025059E-03  0.10859419993E-03  0.74881659705E-04  0.21164500057E-03  0.00000000000E+00 0.  1.
       22    1    1    2    0    0  0.18767471300E-01  0.31056206046E-02 -0.29231218311E-01  0.34875879663E-01  0.00000000000E+00 0. -1.
       22    1    1    2    0    0 -0.18932981551E-01 -0.32142148046E-02  0.29156336651E-01  0.34912475336E-01  0.00000000000E+00 0.  1.
</event>
<event>
 5   0  0.6221259E+05  0.9118800E+02  0.7546771E-02  0.1180000E+00
      -11   -1    0    0    0    0  0.00000000000E+00  0.00000000000E+00  0.34996269501E-01  0.35000000000E-01  0.51099999109E-03 0.  1.
       11   -1    0    0    0    0 -0.00000000000E+00 -0.00000000000E+00 -0.34996269501E-01  0.35000000000E-01  0.51099999109E-03 0. -1.
       22    1    1    2    0    0 -0.14309183112E-09 -0.25012647189E-09  0.52198407286E-09  0.59624315207E-09  0.00000000000E+00 0.  1.
       22    1    1    2    0    0  0.27635055234E-02  0.27110677324E-02  0.34785242719E-01  0.34999999458E-01  0.00000000000E+00 0.  1.
       22    1    1    2    0    0 -0.27635053803E-02 -0.27110674822E-02 -0.34785243241E-01  0.34999999946E-01  0.00000000000E+00 0. -1.
</event>
<event>
 5   0  0.6221259E+05  0.9118800E+02  0.7546771E-02  0.1180000E+00
      -11   -1    0    0    0    0  0.00000000000E+00  0.00000000000E+00  0.34996269501E-01  0.35000000000E-01  0.51099999109E-03 0. -1.
       11   -1    0    0    0    0 -0.00000000000E+00 -0.00000000000E+00 -0.34996269501E-01  0.35000000000E-01  0.51099999109E-03 0.  1.
       22    1    1    2    0    0 -0.79250877054E-03 -0.67505539047E-03 -0.34748973304E-01  0.34764564079E-01  0.00000000000E+00 0.  1.
       22    1    1    2    0    0  0.10865546762E-02  0.77690863442E-04  0.34511278438E-01  0.34528466174E-01  0.00000000000E+00 0. -1.
       22    1    1    2    0    0 -0.29404590562E-03  0.59736452703E-03  0.23769486631E-03  0.70696974634E-03  0.00000000000E+00 0. -1.
</event>
<event>
 5   0  0.6221259E+05  0.9118800E+02  0.7546771E-02  0.1180000E+00
      -11   -1    0    0    0    0  0.00000000000E+00  0.00000000000E+00  0.34996269501E-01  0.35000000000E-01  0.51099999109E-03 0.  1.
       11   -1    0    0    0    0 -0.00000000000E+00 -0.00000000000E+00 -0.34996269501E-01  0.35000000000E-01  0.51099999109E-03 0. -1.
       22    1    1    2    0    0  0.99756641677E-02  0.25247297689E-01 -0.16252222423E-01  0.31639763745E-01  0.00000000000E+00 0. -1.
       22    1    1    2    0    0  0.69541445867E-03 -0.10915702255E-03  0.10409040865E-01  0.10432815931E-01  0.00000000000E+00 0.  1.
       22    1    1    2    0    0 -0.10671078626E-01 -0.25138140666E-01  0.58431815580E-02  0.27927420324E-01  0.00000000000E+00 0.  1.
</event>
<event>
 5   0  0.6221259E+05  0.9118800E+02  0.7546771E-02  0.1180000E+00
      -11   -1    0    0    0    0  0.00000000000E+00  0.00000000000E+00  0.34996269501E-01  0.35000000000E-01  0.51099999109E-03 0.  1.
       11   -1    0    0    0    0 -0.00000000000E+00 -0.00000000000E+00 -0.34996269501E-01  0.35000000000E-01  0.51099999109E-03 0. -1.
       22    1    1    2    0    0 -0.54512306706E-03  0.20771174688E-02  0.34933284649E-01  0.34999227885E-01  0.00000000000E+00 0.  1.
       22    1    1    2    0    0 -0.32781314851E-06  0.18726838117E-06  0.71808268768E-06  0.81127902307E-06  0.00000000000E+00 0. -1.
       22    1    1    2    0    0  0.54545088020E-03 -0.20773047372E-02 -0.34934002732E-01  0.34999960836E-01  0.00000000000E+00 0. -1.
</event>
<event>
 5   0  0.6221259E+05  0.9118800E+02  0.7546771E-02  0.1180000E+00
      -11   -1    0    0    0    0  0.00000000000E+00  0.00000000000E+00  0.34996269501E-01  0.35000000000E-01  0.51099999109E-03 0. -1.
       11   -1    0    0    0    0 -0.00000000000E+00 -0.00000000000E+00 -0.34996269501E-01  0.35000000000E-01  0.51099999109E-03 0.  1.
       22    1    1    2    0    0  0.53641452837E-02 -0.58921588034E-03  0.34511583624E-01  0.34930940929E-01  0.00000000000E+00 0. -1.
       22    1    1    2    0    0 -0.53686446162E-02  0.58582298416E-03 -0.34580625058E-01  0.34999788042E-01  0.00000000000E+00 0.  1.
       22    1    1    2    0    0  0.44993325375E-05  0.33928961860E-05  0.69041434170E-04  0.69271028360E-04  0.00000000000E+00 0. -1.
</event>
<event>
 5   0  0.6221259E+05  0.9118800E+02  0.7546771E-02  0.1180000E+00
      -11   -1    0    0    0    0  0.00000000000E+00  0.00000000000E+00  0.34996269501E-01  0.35000000000E-01  0.51099999109E-03 0. -1.
       11   -1    0    0    0    0 -0.00000000000E+00 -0.00000000000E+00 -0.34996269501E-01  0.35000000000E-01  0.51099999109E-03 0.  1.
       22    1    1    2    0    0  0.12358244023E-01  0.84458774063E-02 -0.15928314131E-01  0.21857955795E-01  0.00000000000E+00 0. -1.
       22    1    1    2    0    0 -0.11481159790E-01 -0.92989063455E-02 -0.12702949571E-01  0.19484650809E-01  0.00000000000E+00 0.  1.
       22    1    1    2    0    0 -0.87708423270E-03  0.85302893928E-03  0.28631263701E-01  0.28657393396E-01  0.00000000000E+00 0.  1.
</event>
<event>
 5   0  0.6221259E+05  0.9118800E+02  0.7546771E-02  0.1180000E+00
      -11   -1    0    0    0    0  0.00000000000E+00  0.00000000000E+00  0.34996269501E-01  0.35000000000E-01  0.51099999109E-03 0. -1.
       11   -1    0    0    0    0 -0.00000000000E+00 -0.00000000000E+00 -0.34996269501E-01  0.35000000000E-01  0.51099999109E-03 0.  1.
       22    1    1    2    0    0 -0.15941128673E-01  0.59257950648E-02 -0.30526002380E-01  0.34943832816E-01  0.00000000000E+00 0.  1.
       22    1    1    2    0    0  0.11501158150E-01 -0.46920731829E-02  0.19685078621E-01  0.23276479757E-01  0.00000000000E+00 0. -1.
       22    1    1    2    0    0  0.44399705233E-02 -0.12337218819E-02  0.10840923759E-01  0.11779687427E-01  0.00000000000E+00 0. -1.
</event>
<event>
 5   0  0.6221259E+05  0.9118800E+02  0.7546771E-02  0.1180000E+00
      -11   -1    0    0    0    0  0.00000000000E+00  0.00000000000E+00  0.34996269501E-01  0.35000000000E-01  0.51099999109E-03 0.  1.
       11   -1    0    0    0    0 -0.00000000000E+00 -0.00000000000E+00 -0.34996269501E-01  0.35000000000E-01  0.51099999109E-03 0. -1.
       22    1    1    2    0    0  0.82252083743E-03 -0.37686766651E-03  0.21515398077E-01  0.21534412557E-01  0.00000000000E+00 0.  1.
       22    1    1    2    0    0 -0.34448063763E-02  0.60818650518E-03 -0.34773329073E-01  0.34948833981E-01  0.00000000000E+00 0. -1.
       22    1    1    2    0    0  0.26222855389E-02 -0.23131883866E-03  0.13257930996E-01  0.13516753462E-01  0.00000000000E+00 0.  1.
</event>
<event>
 5   0  0.6221259E+05  0.9118800E+02  0.7546771E-02  0.1180000E+00
      -11   -1    0    0    0    0  0.00000000000E+00  0.00000000000E+00  0.34996269501E-01  0.35000000000E-01  0.51099999109E-03 0.  1.
       11   -1    0    0    0    0 -0.00000000000E+00 -0.00000000000E+00 -0.34996269501E-01  0.35000000000E-01  0.51099999109E-03 0. -1.
       22    1    1    2    0    0 -0.26736475206E-02  0.13924398946E-02  0.34747127894E-01  0.34877645804E-01  0.00000000000E+00 0.  1.
       22    1    1    2    0    0  0.26669988419E-02 -0.14205034247E-02 -0.34867695962E-01  0.34998384742E-01  0.00000000000E+00 0. -1.
       22    1    1    2    0    0  0.66486786586E-05  0.28063530010E-04  0.12056806798E-03  0.12396945455E-03  0.00000000000E+00 0.  1.
</event>
<event>
 5   0  0.6221259E+05  0.9118800E+02  0.7546771E-02  0.1180000E+00
      -11   -1    0    0    0    0  0.00000000000E+00  0.00000000000E+00  0.34996269501E-01  0.35000000000E-01  0.51099999109E-03 0.  1.
       11   -1    0    0    0    0 -0.00000000000E+00 -0.00000000000E+00 -0.34996269501E-01  0.35000000000E-01  0.51099999109E-03 0. -1.
       22    1    1    2    0    0 -0.30046628517E-02 -0.20373428308E-02 -0.34811197343E-01  0.34999974645E-01  0.00000000000E+00 0. -1.
       22    1    1    2    0    0  0.30029614106E-02  0.20363627328E-02  0.34801811435E-01  0.34990436259E-01  0.00000000000E+00 0.  1.
       22    1    1    2    0    0  0.17014411030E-05  0.98009799752E-06  0.93859079486E-05  0.95890959913E-05  0.00000000000E+00 0.  1.
</event>
<event>
 5   0  0.6221259E+05  0.9118800E+02  0.7546771E-02  0.1180000E+00
      -11   -1    0    0    0    0  0.00000000000E+00  0.00000000000E+00  0.34996269501E-01  0.35000000000E-01  0.51099999109E-03 0. -1.
       11   -1    0    0    0    0 -0.00000000000E+00 -0.00000000000E+00 -0.34996269501E-01  0.35000000000E-01  0.51099999109E-03 0.  1.
       22    1    1    2    0    0  0.43977147551E-03 -0.42958198347E-03  0.26870121721E-02  0.27564422802E-02  0.00000000000E+00 0. -1.
       22    1    1    2    0    0 -0.14030393494E-01  0.16453755146E-01  0.24633458907E-01  0.32777817159E-01  0.00000000000E+00 0. -1.
       22    1    1    2    0    0  0.13590622019E-01 -0.16024173162E-01 -0.27320471079E-01  0.34465740560E-01  0.00000000000E+00 0.  1.
</event>
<event>
 5   0  0.6221259E+05  0.9118800E+02  0.7546771E-02  0.1180000E+00
      -11   -1    0    0    0    0  0.00000000000E+00  0.00000000000E+00  0.34996269501E-01  0.35000000000E-01  0.51099999109E-03 0. -1.
       11   -1    0    0    0    0 -0.00000000000E+00 -0.00000000000E+00 -0.34996269501E-01  0.35000000000E-01  0.51099999109E-03 0.  1.
       22    1    1    2    0    0  0.44471365177E-09 -0.50309220875E-10  0.16844579462E-08  0.17428998314E-08  0.00000000000E+00 0. -1.
       22    1    1    2    0    0  0.31588488458E-02 -0.37542968125E-02 -0.34654392581E-01  0.34999999940E-01  0.00000000000E+00 0.  1.
       22    1    1    2    0    0 -0.31588492905E-02  0.37542968628E-02  0.34654390897E-01  0.34999998317E-01  0.00000000000E+00 0. -1.
</event>
<event>
 5   0  0.6221259E+05  0.9118800E+02  0.7546771E-02  0.1180000E+00
      -11   -1    0    0    0    0  0.00000000000E+00  0.00000000000E+00  0.34996269501E-01  0.35000000000E-01  0.51099999109E-03 0. -1.
       11   -1    0    0    0    0 -0.00000000000E+00 -0.00000000000E+00 -0.34996269501E-01  0.35000000000E-01  0.51099999109E-03 0.  1.
       22    1    1    2    0    0  0.62507073939E-04 -0.74177706051E-04  0.45610795754E-03  0.46630884111E-03  0.00000000000E+00 0.  1.
       22    1    1    2    0    0  0.48455789180E-02  0.22122052113E-02  0.34126222036E-01  0.34539434237E-01  0.00000000000E+00 0. -1.
       22    1    1    2    0    0 -0.49080859919E-02 -0.21380275052E-02 -0.34582329994E-01  0.34994256922E-01  0.00000000000E+00 0.  1.
</event>
<event>
 5   0  0.6221259E+05  0.9118800E+02  0.7546771E-02  0.1180000E+00
      -11   -1    0    0    0    0  0.00000000000E+00  0.00000000000E+00  0.34996269501E-01  0.35000000000E-01  0.51099999109E-03 0. -1.
       11   -1    0    0    0    0 -0.00000000000E+00 -0.00000000000E+00 -0.34996269501E-01  0.35000000000E-01  0.51099999109E-03 0. -1.
       22    1    1    2    0    0  0.64347967628E-03  0.45993357532E-03 -0.19308971174E-01  0.19325164237E-01  0.00000000000E+00 0. -1.
       22    1    1    2    0    0 -0.10957742158E-02 -0.22453869043E-02 -0.15558960679E-01  0.15758291179E-01  0.00000000000E+00 0.  1.
       22    1    1    2    0    0  0.45229453954E-03  0.17854533290E-02  0.34867931853E-01  0.34916544584E-01  0.00000000000E+00 0. -1.
</event>
<event>
 5   0  0.6221259E+05  0.9118800E+02  0.7546771E-02  0.1180000E+00
      -11   -1    0    0    0    0  0.00000000000E+00  0.00000000000E+00  0.34996269501E-01  0.35000000000E-01  0.51099999109E-03 0. -1.
       11   -1    0    0    0    0 -0.00000000000E+00 -0.00000000000E+00 -0.34996269501E-01  0.35000000000E-01  0.51099999109E-03 0.  1.
       22    1    1    2    0    0 -0.53978933733E-02 -0.32423816659E-01  0.11986095978E-01  0.34987249626E-01  0.00000000000E+00 0.  1.
       22    1    1    2    0    0  0.57103196938E-06  0.52967654516E-06 -0.39628628513E-04  0.39636281770E-04  0.00000000000E+00 0. -1.
       22    1    1    2    0    0  0.53973223414E-02  0.32423286982E-01 -0.11946467350E-01  0.34973114092E-01  0.00000000000E+00 0. -1.
</event>
<event>
 5   0  0.6221259E+05  0.9118800E+02  0.7546771E-02  0.1180000E+00
      -11   -1    0    0    0    0  0.00000000000E+00  0.00000000000E+00  0.34996269501E-01  0.35000000000E-01  0.51099999109E-03 0. -1.
       11   -1    0    0    0    0 -0.00000000000E+00 -0.00000000000E+00 -0.34996269501E-01  0.35000000000E-01  0.51099999109E-03 0.  1.
       22    1    1    2    0    0  0.36679876830E-04  0.72744749592E-04 -0.11048103261E-04  0.82214795159E-04  0.00000000000E+00 0. -1.
       22    1    1    2    0    0 -0.32947742455E-02  0.20639292658E-02  0.34747087325E-01  0.34963915955E-01  0.00000000000E+00 0. -1.
       22    1    1    2    0    0  0.32580943687E-02 -0.21366740154E-02 -0.34736039221E-01  0.34953869250E-01  0.00000000000E+00 0.  1.
</event>
<event>
 5   0  0.6221259E+05  0.9118800E+02  0.7546771E-02  0.1180000E+00
      -11   -1    0    0    0    0  0.00000000000E+00  0.00000000000E+00  0.34996269501E-01  0.35000000000E-01  0.51099999109E-03 0. -1.
       11   -1    0    0    0    0 -0.00000000000E+00 -0.00000000000E+00 -0.34996269501E-01  0.35000000000E-01  0.51099999109E-03 0.  1.
       22    1    1    2    0    0 -0.56228627026E-03  0.98955836721E-03 -0.18472397735E-02  0.21697203490E-02  0.00000000000E+00 0.  1.
       22    1    1    2    0    0 -0.31767402649E-02 -0.31960612162E-01  0.13072020835E-01  0.34676362802E-01  0.00000000000E+00 0. -1.
       22    1    1    2    0    0  0.37390265351E-02  0.30971053794E-01 -0.11224781061E-01  0.33153916849E-01  0.00000000000E+00 0.  1.
</event>
<event>
 5   0  0.6221259E+05  0.9118800E+02  0.7546771E-02  0.1180000E+00
      -11   -1    0    0    0    0  0.00000000000E+00  0.00000000000E+00  0.34996269501E-01  0.35000000000E-01  0.51099999109E-03 0. -1.
       11   -1    0    0    0    0 -0.00000000000E+00 -0.00000000000E+00 -0.34996269501E-01  0.35000000000E-01  0.51099999109E-03 0.  1.
       22    1    1    2    0    0 -0.42136914998E-02  0.24237663235E-02 -0.34659622603E-01  0.34998846813E-01  0.00000000000E+00 0.  1.
       22    1    1    2    0    0  0.62660266523E-06  0.46116801655E-05  0.43516923390E-05  0.63716129090E-05  0.00000000000E+00 0.  1.
       22    1    1    2    0    0  0.42130648971E-02 -0.24283780037E-02  0.34655270911E-01  0.34994781574E-01  0.00000000000E+00 0. -1.
</event>
<event>
 5   0  0.6221259E+05  0.9118800E+02  0.7546771E-02  0.1180000E+00
      -11   -1    0    0    0    0  0.00000000000E+00  0.00000000000E+00  0.34996269501E-01  0.35000000000E-01  0.51099999109E-03 0.  1.
       11   -1    0    0    0    0 -0.00000000000E+00 -0.00000000000E+00 -0.34996269501E-01  0.35000000000E-01  0.51099999109E-03 0. -1.
       22    1    1    2    0    0 -0.66340885985E-02 -0.17058625360E-02  0.34319592572E-01  0.34996507437E-01  0.00000000000E+00 0.  1.
       22    1    1    2    0    0  0.66332448984E-02  0.17055768153E-02 -0.34323151578E-01  0.34999823777E-01  0.00000000000E+00 0. -1.
       22    1    1    2    0    0  0.84370010890E-06  0.28572073835E-06  0.35590060570E-05  0.36687859474E-05  0.00000000000E+00 0.  1.
</event>
<event>
 5   0  0.6221259E+05  0.9118800E+02  0.7546771E-02  0.1180000E+00
      -11   -1    0    0    0    0  0.00000000000E+00  0.00000000000E+00  0.34996269501E-01  0.35000000000E-01  0.51099999109E-03 0. -1.
       11   -1    0    0    0    0 -0.00000000000E+00 -0.00000000000E+00 -0.34996269501E-01  0.35000000000E-01  0.51099999109E-03 0.  1.
       22    1    1    2    0    0  0.22134131506E-02 -0.15615719592E-01 -0.31244999562E-01  0.34999998482E-01  0.00000000000E+00 0.  1.
       22    1    1    2    0    0  0.14065344661E-08  0.65200040171E-09  0.29798035875E-07  0.29838337516E-07  0.00000000000E+00 0. -1.
       22    1    1    2    0    0 -0.22134145571E-02  0.15615718940E-01  0.31244969764E-01  0.34999971679E-01  0.00000000000E+00 0. -1.
</event>
<event>
 5   0  0.6221259E+05  0.9118800E+02  0.7546771E-02  0.1180000E+00
      -11   -1    0    0    0    0  0.00000000000E+00  0.00000000000E+00  0.34996269501E-01  0.35000000000E-01  0.51099999109E-03 0.  1.
       11   -1    0    0    0    0 -0.00000000000E+00 -0.00000000000E+00 -0.34996269501E-01  0.35000000000E-01  0.51099999109E-03 0. -1.
       22    1    1    2    0    0 -0.25668711401E-01  0.20767285252E-01 -0.11611936329E-01  0.34999999243E-01  0.00000000000E+00 0. -1.
       22    1    1    2    0    0 -0.38249499346E-09 -0.11596678053E-09  0.18855541963E-08  0.19274504770E-08  0.00000000000E+00 0. -1.
       22    1    1    2    0    0  0.25668711783E-01 -0.20767285136E-01  0.11611934444E-01  0.34999998829E-01  0.00000000000E+00 0.  1.
</event>
<event>
 5   0  0.6221259E+05  0.9118800E+02  0.7546771E-02  0.1180000E+00
      -11   -1    0    0    0    0  0.00000000000E+00  0.00000000000E+00  0.34996269501E-01  0.35000000000E-01  0.51099999109E-03 0. -1.
       11   -1    0    0    0    0 -0.00000000000E+00 -0.00000000000E+00 -0.34996269501E-01  0.35000000000E-01  0.51099999109E-03 0.  1.
       22    1    1    2    0    0  0.64869101188E-03  0.18202718449E-02 -0.34946604665E-01  0.34999990961E-01  0.00000000000E+00 0.  1.
       22    1    1    2    0    0 -0.64832741505E-03 -0.18203199998E-02  0.34942369214E-01  0.34995757738E-01  0.00000000000E+00 0. -1.
       22    1    1    2    0    0 -0.36359682689E-06  0.48154930569E-07  0.42354507343E-05  0.42513015034E-05  0.00000000000E+00 0.  1.
</event>
<event>
 5   0  0.6221259E+05  0.9118800E+02  0.7546771E-02  0.1180000E+00
      -11   -1    0    0    0    0  0.00000000000E+00  0.00000000000E+00  0.34996269501E-01  0.35000000000E-01  0.51099999109E-03 0. -1.
       11   -1    0    0    0    0 -0.00000000000E+00 -0.00000000000E+00 -0.34996269501E-01  0.35000000000E-01  0.51099999109E-03 0.  1.
       22    1    1    2    0    0  0.84360635342E-05  0.65636721188E-04 -0.27606349807E-04  0.71703953071E-04  0.00000000000E+00 0.  1.
       22    1    1    2    0    0  0.12113116468E-01 -0.21005771494E-02  0.32745822964E-01  0.34977549035E-01  0.00000000000E+00 0. -1.
       22    1    1    2    0    0 -0.12121552531E-01  0.20349404282E-02 -0.32718216614E-01  0.34950747012E-01  0.00000000000E+00 0.  1.
</event>
<event>
 5   0  0.6221259E+05  0.9118800E+02  0.7546771E-02  0.1180000E+00
      -11   -1    0    0    0    0  0.00000000000E+00  0.00000000000E+00  0.34996269501E-01  0.35000000000E-01  0.51099999109E-03 0.  1.
       11   -1    0    0    0    0 -0.00000000000E+00 -0.00000000000E+00 -0.34996269501E-01  0.35000000000E-01  0.51099999109E-03 0.  1.
       22    1    1    2    0    0  0.22015971774E-03 -0.78352661466E-04  0.34999199306E-01  0.34999979450E-01  0.00000000000E+00 0.  1.
       22    1    1    2    0    0  0.78722637634E-09  0.11878647655E-07  0.18838145973E-07  0.22284473052E-07  0.00000000000E+00 0.  1.
       22    1    1    2    0    0 -0.22016050497E-03  0.78340782818E-04 -0.34999218144E-01  0.34999998266E-01  0.00000000000E+00 0.  1.
</event>
<event>
 5   0  0.6221259E+05  0.9118800E+02  0.7546771E-02  0.1180000E+00
      -11   -1    0    0    0    0  0.00000000000E+00  0.00000000000E+00  0.34996269501E-01  0.35000000000E-01  0.51099999109E-03 0. -1.
       11   -1    0    0    0    0 -0.00000000000E+00 -0.00000000000E+00 -0.34996269501E-01  0.35000000000E-01  0.51099999109E-03 0.  1.
       22    1    1    2    0    0  0.23677666160E-02  0.39219557854E-02 -0.34688632209E-01  0.34989845105E-01  0.00000000000E+00 0.  1.
       22    1    1    2    0    0 -0.35641768786E-03 -0.60201170100E-04  0.19466525299E-02  0.19799277314E-02  0.00000000000E+00 0.  1.
       22    1    1    2    0    0 -0.20113489282E-02 -0.38617546153E-02  0.32741979679E-01  0.33030227164E-01  0.00000000000E+00 0. -1.
</event>
<event>
 5   0  0.6221259E+05  0.9118800E+02  0.7546771E-02  0.1180000E+00
      -11   -1    0    0    0    0  0.00000000000E+00  0.00000000000E+00  0.34996269501E-01  0.35000000000E-01  0.51099999109E-03 0.  1.
       11   -1    0    0    0    0 -0.00000000000E+00 -0.00000000000E+00 -0.34996269501E-01  0.35000000000E-01  0.51099999109E-03 0. -1.
       22    1    1    2    0    0  0.56303218804E-03 -0.10067300647E-01 -0.33515710294E-01  0.34999576913E-01  0.00000000000E+00 0. -1.
       22    1    1    2    0    0 -0.33518985182E-05  0.17394749402E-05  0.26763469922E-04  0.27028583371E-04  0.00000000000E+00 0. -1.
       22    1    1    2    0    0 -0.55968028952E-03  0.10065561172E-01  0.33488946824E-01  0.34973394504E-01  0.00000000000E+00 0.  1.
</event>
<event>
 5   0  0.6221259E+05  0.9118800E+02  0.7546771E-02  0.1180000E+00
      -11   -1    0    0    0    0  0.00000000000E+00  0.00000000000E+00  0.34996269501E-01  0.35000000000E-01  0.51099999109E-03 0.  1.
       11   -1    0    0    0    0 -0.00000000000E+00 -0.00000000000E+00 -0.34996269501E-01  0.35000000000E-01  0.51099999109E-03 0. -1.
       22    1    1    2    0    0 -0.16174206693E-02 -0.18647842699E-02 -0.34912682585E-01  0.34999841075E-01  0.00000000000E+00 0. -1.
       22    1    1    2    0    0  0.16178611315E-02  0.18644371802E-02  0.34912341190E-01  0.34999502397E-01  0.00000000000E+00 0.  1.
       22    1    1    2    0    0 -0.44046213945E-06  0.34708976180E-06  0.34139542131E-06  0.65652801367E-06  0.00000000000E+00 0. -1.
</event>
<event>
 5   0  0.6221259E+05  0.9118800E+02  0.7546771E-02  0.1180000E+00
      -11   -1    0    0    0    0  0.00000000000E+00  0.00000000000E+00  0.34996269501E-01  0.35000000000E-01  0.51099999109E-03 0. -1.
       11   -1    0    0    0    0 -0.00000000000E+00 -0.00000000000E+00 -0.34996269501E-01  0.35000000000E-01  0.51099999109E-03 0.  1.
       22    1    1    2    0    0  0.23823834363E-08 -0.55494773944E-08  0.12247296316E-06  0.12262177276E-06  0.00000000000E+00 0. -1.
       22    1    1    2    0    0  0.81682395331E-04  0.36342524089E-02  0.34810587503E-01  0.34999878069E-01  0.00000000000E+00 0. -1.
       22    1    1    2    0    0 -0.81684777714E-04 -0.36342468594E-02 -0.34810709975E-01  0.34999999309E-01  0.00000000000E+00 0.  1.
</event>
<event>
 5   0  0.6221259E+05  0.9118800E+02  0.7546771E-02  0.1180000E+00
      -11   -1    0    0    0    0  0.00000000000E+00  0.00000000000E+00  0.34996269501E-01  0.35000000000E-01  0.51099999109E-03 0. -1.
       11   -1    0    0    0    0 -0.00000000000E+00 -0.00000000000E+00 -0.34996269501E-01  0.35000000000E-01  0.51099999109E-03 0.  1.
       22    1    1    2    0    0 -0.12198139220E-02 -0.59705532868E-03 -0.34779505030E-01  0.34806010849E-01  0.00000000000E+00 0.  1.
       22    1    1    2    0    0  0.13186665907E-02  0.70273856257E-03  0.34943410598E-01  0.34975343705E-01  0.00000000000E+00 0. -1.
       22    1    1    2    0    0 -0.98852668621E-04 -0.10568323389E-03 -0.16390556736E-03  0.21864544594E-03  0.00000000000E+00 0.  1.
</event>
<event>
 5   0  0.6221259E+05  0.9118800E+02  0.7546771E-02  0.1180000E+00
      -11   -1    0    0    0    0  0.00000000000E+00  0.00000000000E+00  0.34996269501E-01  0.35000000000E-01  0.51099999109E-03 0. -1.
       11   -1    0    0    0    0 -0.00000000000E+00 -0.00000000000E+00 -0.34996269501E-01  0.35000000000E-01  0.51099999109E-03 0.  1.
       22    1    1    2    0    0 -0.10520196689E-01 -0.21756239159E-01 -0.12326951493E-01  0.27128623515E-01  0.00000000000E+00 0. -1.
       22    1    1    2    0    0 -0.12564284095E-03 -0.45385178338E-03 -0.97704807286E-02  0.97818230015E-02  0.00000000000E+00 0.  1.
       22    1    1    2    0    0  0.10645839530E-01  0.22210090942E-01  0.22097432222E-01  0.33089553484E-01  0.00000000000E+00 0.  1.
</event>
<event>
 5   0  0.6221259E+05  0.9118800E+02  0.7546771E-02  0.1180000E+00
      -11   -1    0    0    0    0  0.00000000000E+00  0.00000000000E+00  0.34996269501E-01  0.35000000000E-01  0.51099999109E-03 0.  1.
       11   -1    0    0    0    0 -0.00000000000E+00 -0.00000000000E+00 -0.34996269501E-01  0.35000000000E-01  0.51099999109E-03 0. -1.
       22    1    1    2    0    0 -0.13897922923E-02 -0.17689823796E-02  0.34923546901E-01  0.34995927612E-01  0.00000000000E+00 0.  1.
       22    1    1    2    0    0  0.48887107663E-08 -0.62113749081E-06  0.40372076871E-05  0.40847131590E-05  0.00000000000E+00 0.  1.
       22    1    1    2    0    0  0.13897874036E-02  0.17696035171E-02 -0.34927584108E-01  0.34999987675E-01  0.00000000000E+00 0. -1.
</event>
<event>
 5   0  0.6221259E+05  0.9118800E+02  0.7546771E-02  0.1180000E+00
      -11   -1    0    0    0    0  0.00000000000E+00  0.00000000000E+00  0.34996269501E-01  0.35000000000E-01  0.51099999109E-03 0. -1.
       11   -1    0    0    0    0 -0.00000000000E+00 -0.00000000000E+00 -0.34996269501E-01  0.35000000000E-01  0.51099999109E-03 0. -1.
       22    1    1    2    0    0  0.90047456869E-09  0.56543459619E-08  0.35001322511E-01  0.34999986461E-01  0.00000000000E+00 0. -1.
       22    1    1    2    0    0 -0.90040939079E-09 -0.56539366906E-08  0.12933033776E-07  0.14143588647E-07  0.00000000000E+00 0.  1.
       22    1    1    2    0    0 -0.65177900368E-13 -0.40927130045E-12 -0.35001335444E-01  0.34999999395E-01  0.00000000000E+00 0. -1.
</event>
<event>
 5   0  0.6221259E+05  0.9118800E+02  0.7546771E-02  0.1180000E+00
      -11   -1    0    0    0    0  0.00000000000E+00  0.00000000000E+00  0.34996269501E-01  0.35000000000E-01  0.51099999109E-03 0. -1.
       11   -1    0    0    0    0 -0.00000000000E+00 -0.00000000000E+00 -0.34996269501E-01  0.35000000000E-01  0.51099999109E-03 0. -1.
       22    1    1    2    0    0  0.23471166160E-06  0.28298307624E-07  0.14298554466E-06  0.27628829922E-06  0.00000000000E+00 0.  1.
       22    1    1    2    0    0  0.12647104500E-10  0.15248141113E-11 -0.34999974283E-01  0.34999933348E-01  0.00000000000E+00 0. -1.
       22    1    1    2    0    0 -0.23472430870E-06 -0.28299832438E-07  0.34999831298E-01  0.34999790363E-01  0.00000000000E+00 0. -1.
</event>
<event>
 5   0  0.6221259E+05  0.9118800E+02  0.7546771E-02  0.1180000E+00
      -11   -1    0    0    0    0  0.00000000000E+00  0.00000000000E+00  0.34996269501E-01  0.35000000000E-01  0.51099999109E-03 0. -1.
       11   -1    0    0    0    0 -0.00000000000E+00 -0.00000000000E+00 -0.34996269501E-01  0.35000000000E-01  0.51099999109E-03 0.  1.
       22    1    1    2    0    0  0.18385400762E-02 -0.23380969516E-03  0.34950861562E-01  0.34999966007E-01  0.00000000000E+00 0. -1.
       22    1    1    2    0    0 -0.12610559151E-07 -0.21820725705E-08  0.33147409290E-07  0.35532216162E-07  0.00000000000E+00 0. -1.
       22    1    1    2    0    0 -0.18385274657E-02  0.23381187723E-03 -0.34950894709E-01  0.34999998460E-01  0.00000000000E+00 0.  1.
</event>
<event>
 5   0  0.6221259E+05  0.9118800E+02  0.7546771E-02  0.1180000E+00
      -11   -1    0    0    0    0  0.00000000000E+00  0.00000000000E+00  0.34996269501E-01  0.35000000000E-01  0.51099999109E-03 0. -1.
       11   -1    0    0    0    0 -0.00000000000E+00 -0.00000000000E+00 -0.34996269501E-01  0.35000000000E-01  0.51099999109E-03 0.  1.
       22    1    1    2    0    0 -0.15823768894E-08  0.38869845966E-07  0.45825496964E-08  0.39171017395E-07  0.00000000000E+00 0.  1.
       22    1    1    2    0    0 -0.58665728829E-03 -0.12205819122E-02 -0.34973773729E-01  0.34999983369E-01  0.00000000000E+00 0.  1.
       22    1    1    2    0    0  0.58665887066E-03  0.12205430423E-02  0.34973769146E-01  0.34999977460E-01  0.00000000000E+00 0. -1.
</event>
<event>
 5   0  0.6221259E+05  0.9118800E+02  0.7546771E-02  0.1180000E+00
      -11   -1    0    0    0    0  0.00000000000E+00  0.00000000000E+00  0.34996269501E-01  0.35000000000E-01  0.51099999109E-03 0.  1.
       11   -1    0    0    0    0 -0.00000000000E+00 -0.00000000000E+00 -0.34996269501E-01  0.35000000000E-01  0.51099999109E-03 0. -1.
       22    1    1    2    0    0 -0.32203224348E-01 -0.20544093070E-02  0.13520234624E-01  0.34986640312E-01  0.00000000000E+00 0.  1.
       22    1    1    2    0    0  0.32204973187E-01  0.20272070079E-02 -0.13518662835E-01  0.34986055952E-01  0.00000000000E+00 0. -1.
       22    1    1    2    0    0 -0.17488383943E-05  0.27202299101E-04 -0.15717882412E-05  0.27303736564E-04  0.00000000000E+00 0. -1.
</event>
<event>
 5   0  0.6221259E+05  0.9118800E+02  0.7546771E-02  0.1180000E+00
      -11   -1    0    0    0    0  0.00000000000E+00  0.00000000000E+00  0.34996269501E-01  0.35000000000E-01  0.51099999109E-03 0. -1.
       11   -1    0    0    0    0 -0.00000000000E+00 -0.00000000000E+00 -0.34996269501E-01  0.35000000000E-01  0.51099999109E-03 0.  1.
       22    1    1    2    0    0  0.45211669113E-02  0.25095499532E-01  0.23864045714E-01  0.34924457402E-01  0.00000000000E+00 0.  1.
       22    1    1    2    0    0  0.28878041200E-05 -0.31664919549E-05  0.90785234516E-04  0.90886329500E-04  0.00000000000E+00 0.  1.
       22    1    1    2    0    0 -0.45240547154E-02 -0.25092333040E-01 -0.23954830948E-01  0.34984656268E-01  0.00000000000E+00 0. -1.
</event>
<event>
 5   0  0.6221259E+05  0.9118800E+02  0.7546771E-02  0.1180000E+00
      -11   -1    0    0    0    0  0.00000000000E+00  0.00000000000E+00  0.34996269501E-01  0.35000000000E-01  0.51099999109E-03 0. -1.
       11   -1    0    0    0    0 -0.00000000000E+00 -0.00000000000E+00 -0.34996269501E-01  0.35000000000E-01  0.51099999109E-03 0. -1.
       22    1    1    2    0    0  0.19529132176E-04  0.25497770289E-04  0.15985824403E-03  0.16305269540E-03  0.00000000000E+00 0. -1.
       22    1    1    2    0    0  0.40863709792E-03  0.98581404750E-03  0.34821753180E-01  0.34838101385E-01  0.00000000000E+00 0. -1.
       22    1    1    2    0    0 -0.42816623009E-03 -0.10113118178E-02 -0.34981611424E-01  0.34998845920E-01  0.00000000000E+00 0. -1.
</event>
<event>
 5   0  0.6221259E+05  0.9118800E+02  0.7546771E-02  0.1180000E+00
      -11   -1    0    0    0    0  0.00000000000E+00  0.00000000000E+00  0.34996269501E-01  0.35000000000E-01  0.51099999109E-03 0.  1.
       11   -1    0    0    0    0 -0.00000000000E+00 -0.00000000000E+00 -0.34996269501E-01  0.35000000000E-01  0.51099999109E-03 0. -1.
       22    1    1    2    0    0 -0.54828788908E-03 -0.50202594064E-02 -0.34633743574E-01  0.34999997401E-01  0.00000000000E+00 0. -1.
       22    1    1    2    0    0 -0.25367878637E-08 -0.43702759876E-08  0.55867549507E-09  0.50839672680E-08  0.00000000000E+00 0. -1.
       22    1    1    2    0    0  0.54829042587E-03  0.50202637767E-02  0.34633743016E-01  0.34999997515E-01  0.00000000000E+00 0.  1.
</event>
<event>
 5   0  0.6221259E+05  0.9118800E+02  0.7546771E-02  0.1180000E+00
      -11   -1    0    0    0    0  0.00000000000E+00  0.00000000000E+00  0.34996269501E-01  0.35000000000E-01  0.51099999109E-03 0. -1.
       11   -1    0    0    0    0 -0.00000000000E+00 -0.00000000000E+00 -0.34996269501E-01  0.35000000000E-01  0.51099999109E-03 0.  1.
       22    1    1    2    0    0  0.82076102633E-02  0.61209947691E-02  0.89106388267E-02  0.13573169398E-01  0.00000000000E+00 0. -1.
       22    1    1    2    0    0 -0.20289616877E-02  0.24138888661E-02  0.22797148431E-01  0.23014202605E-01  0.00000000000E+00 0.  1.
       22    1    1    2    0    0 -0.61786485756E-02 -0.85348836352E-02 -0.31707787258E-01  0.33412627997E-01  0.00000000000E+00 0.  1.
</event>
<event>
 5   0  0.6221259E+05  0.9118800E+02  0.7546771E-02  0.1180000E+00
      -11   -1    0    0    0    0  0.00000000000E+00  0.00000000000E+00  0.34996269501E-01  0.35000000000E-01  0.51099999109E-03 0. -1.
       11   -1    0    0    0    0 -0.00000000000E+00 -0.00000000000E+00 -0.34996269501E-01  0.35000000000E-01  0.51099999109E-03 0.  1.
       22    1    1    2    0    0 -0.41506751196E-02 -0.92663403876E-04  0.34752876111E-01  0.34999986977E-01  0.00000000000E+00 0. -1.
       22    1    1    2    0    0 -0.33817395266E-10 -0.14621110017E-08  0.13023862094E-07  0.13105719975E-07  0.00000000000E+00 0.  1.
       22    1    1    2    0    0  0.41506751534E-02  0.92664865987E-04 -0.34752889134E-01  0.34999999917E-01  0.00000000000E+00 0.  1.
</event>
<event>
 5   0  0.6221259E+05  0.9118800E+02  0.7546771E-02  0.1180000E+00
      -11   -1    0    0    0    0  0.00000000000E+00  0.00000000000E+00  0.34996269501E-01  0.35000000000E-01  0.51099999109E-03 0. -1.
       11   -1    0    0    0    0 -0.00000000000E+00 -0.00000000000E+00 -0.34996269501E-01  0.35000000000E-01  0.51099999109E-03 0. -1.
       22    1    1    2    0    0 -0.55894578667E-03 -0.64432941162E-02 -0.34341885299E-01  0.34945579769E-01  0.00000000000E+00 0. -1.
       22    1    1    2    0    0 -0.00000000000E+00 -0.00000000000E+00  0.53695781401E-02  0.53690190784E-02  0.00000000000E+00 0. -1.
       22    1    1    2    0    0  0.55894578667E-03  0.64432941162E-02  0.28972307159E-01  0.29685401153E-01  0.00000000000E+00 0.  1.
</event>
<event>
 5   0  0.6221259E+05  0.9118800E+02  0.7546771E-02  0.1180000E+00
      -11   -1    0    0    0    0  0.00000000000E+00  0.00000000000E+00  0.34996269501E-01  0.35000000000E-01  0.51099999109E-03 0.  1.
       11   -1    0    0    0    0 -0.00000000000E+00 -0.00000000000E+00 -0.34996269501E-01  0.35000000000E-01  0.51099999109E-03 0. -1.
       22    1    1    2    0    0  0.15474409367E-02  0.14349041025E-03  0.31455099408E-01  0.31493466652E-01  0.00000000000E+00 0.  1.
       22    1    1    2    0    0 -0.59448547532E-03  0.38842895090E-03  0.34813513781E-02  0.35530405919E-02  0.00000000000E+00 0.  1.
       22    1    1    2    0    0 -0.95295546141E-03 -0.53191936115E-03 -0.34936450786E-01  0.34953492756E-01  0.00000000000E+00 0. -1.
</event>
<event>
 5   0  0.6221259E+05  0.9118800E+02  0.7546771E-02  0.1180000E+00
      -11   -1    0    0    0    0  0.00000000000E+00  0.00000000000E+00  0.34996269501E-01  0.35000000000E-01  0.51099999109E-03 0. -1.
       11   -1    0    0    0    0 -0.00000000000E+00 -0.00000000000E+00 -0.34996269501E-01  0.35000000000E-01  0.51099999109E-03 0.  1.
       22    1    1    2    0    0 -0.83208230984E-02 -0.12684164502E-01 -0.31188600484E-01  0.34682170150E-01  0.00000000000E+00 0.  1.
       22    1    1    2    0    0  0.82871101291E-02  0.12553624979E-01  0.25345023151E-01  0.29472697415E-01  0.00000000000E+00 0. -1.
       22    1    1    2    0    0  0.33712969317E-04  0.13053952255E-03  0.58435773330E-02  0.58451324346E-02  0.00000000000E+00 0.  1.
</event>
<event>
 5   0  0.6221259E+05  0.9118800E+02  0.7546771E-02  0.1180000E+00
      -11   -1    0    0    0    0  0.00000000000E+00  0.00000000000E+00  0.34996269501E-01  0.35000000000E-01  0.51099999109E-03 0.  1.
       11   -1    0    0    0    0 -0.00000000000E+00 -0.00000000000E+00 -0.34996269501E-01  0.35000000000E-01  0.51099999109E-03 0. -1.
       22    1    1    2    0    0  0.23492497918E-01  0.10398345455E-01 -0.23752927582E-01  0.34988921323E-01  0.00000000000E+00 0. -1.
       22    1    1    2    0    0 -0.23508866977E-01 -0.10388605817E-01  0.23737776160E-01  0.34986739979E-01  0.00000000000E+00 0.  1.
       22    1    1    2    0    0  0.16369059289E-04 -0.97396378446E-05  0.15151421890E-04  0.24338698253E-04  0.00000000000E+00 0.  1.
</event>
<event>
 5   0  0.6221259E+05  0.9118800E+02  0.7546771E-02  0.1180000E+00
      -11   -1    0    0    0    0  0.00000000000E+00  0.00000000000E+00  0.34996269501E-01  0.35000000000E-01  0.51099999109E-03 0. -1.
       11   -1    0    0    0    0 -0.00000000000E+00 -0.00000000000E+00 -0.34996269501E-01  0.35000000000E-01  0.51099999109E-03 0.  1.
       22    1    1    2    0    0  0.14599029032E-06 -0.86023247246E-06  0.20128433470E-05  0.21938211894E-05  0.00000000000E+00 0.  1.
       22    1    1    2    0    0  0.25979171890E-01  0.17072261385E-01 -0.16080640402E-01  0.34999521092E-01  0.00000000000E+00 0.  1.
       22    1    1    2    0    0 -0.25979317880E-01 -0.17071401153E-01  0.16078627559E-01  0.34998285087E-01  0.00000000000E+00 0. -1.
</event>
<event>
 5   0  0.6221259E+05  0.9118800E+02  0.7546771E-02  0.1180000E+00
      -11   -1    0    0    0    0  0.00000000000E+00  0.00000000000E+00  0.34996269501E-01  0.35000000000E-01  0.51099999109E-03 0.  1.
       11   -1    0    0    0    0 -0.00000000000E+00 -0.00000000000E+00 -0.34996269501E-01  0.35000000000E-01  0.51099999109E-03 0. -1.
       22    1    1    2    0    0  0.11816851293E-01 -0.25863155190E-01 -0.13502681470E-01  0.31477979251E-01  0.00000000000E+00 0. -1.
       22    1    1    2    0    0  0.10036676332E-02 -0.39135556194E-03  0.88751433854E-02  0.89402840003E-02  0.00000000000E+00 0. -1.
       22    1    1    2    0    0 -0.12820518926E-01  0.26254510752E-01  0.46275380849E-02  0.29581736749E-01  0.00000000000E+00 0.  1.
</event>
<event>
 5   0  0.6221259E+05  0.9118800E+02  0.7546771E-02  0.1180000E+00
      -11   -1    0    0    0    0  0.00000000000E+00  0.00000000000E+00  0.34996269501E-01  0.35000000000E-01  0.51099999109E-03 0.  1.
       11   -1    0    0    0    0 -0.00000000000E+00 -0.00000000000E+00 -0.34996269501E-01  0.35000000000E-01  0.51099999109E-03 0. -1.
       22    1    1    2    0    0 -0.63846233802E-02  0.57929137941E-03 -0.34406568340E-01  0.34998727679E-01  0.00000000000E+00 0. -1.
       22    1    1    2    0    0  0.63477436761E-02 -0.54042973788E-03  0.34154795353E-01  0.34743862187E-01  0.00000000000E+00 0.  1.
       22    1    1    2    0    0  0.36879704122E-04 -0.38861641536E-04  0.25177298742E-03  0.25741013375E-03  0.00000000000E+00 0.  1.
</event>
<event>
 5   0  0.6221259E+05  0.9118800E+02  0.7546771E-02  0.1180000E+00
      -11   -1    0    0    0    0  0.00000000000E+00  0.00000000000E+00  0.34996269501E-01  0.35000000000E-01  0.51099999109E-03 0. -1.
       11   -1    0    0    0    0 -0.00000000000E+00 -0.00000000000E+00 -0.34996269501E-01  0.35000000000E-01  0.51099999109E-03 0.  1.
       22    1    1    2    0    0 -0.85036443328E-02  0.18332570986E-01  0.25384680699E-01  0.32446527396E-01  0.00000000000E+00 0. -1.
       22    1    1    2    0    0  0.84574740154E-02 -0.18299974762E-01 -0.28240059488E-01  0.34697534536E-01  0.00000000000E+00 0.  1.
       22    1    1    2    0    0  0.46170317353E-04 -0.32596224623E-04  0.28553787896E-02  0.28559380673E-02  0.00000000000E+00 0.  1.
</event>
<event>
 5   0  0.6221259E+05  0.9118800E+02  0.7546771E-02  0.1180000E+00
      -11   -1    0    0    0    0  0.00000000000E+00  0.00000000000E+00  0.34996269501E-01  0.35000000000E-01  0.51099999109E-03 0.  1.
       11   -1    0    0    0    0 -0.00000000000E+00 -0.00000000000E+00 -0.34996269501E-01  0.35000000000E-01  0.51099999109E-03 0. -1.
       22    1    1    2    0    0 -0.22684820962E-04 -0.10837481503E-03 -0.21003936476E-03  0.23743680503E-03  0.00000000000E+00 0.  1.
       22    1    1    2    0    0 -0.21859205889E-01  0.86892280783E-02  0.25869567735E-01  0.34965155534E-01  0.00000000000E+00 0.  1.
       22    1    1    2    0    0  0.21881890710E-01 -0.85808532632E-02 -0.25659528371E-01  0.34797407661E-01  0.00000000000E+00 0. -1.
</event>
<event>
 5   0  0.6221259E+05  0.9118800E+02  0.7546771E-02  0.1180000E+00
      -11   -1    0    0    0    0  0.00000000000E+00  0.00000000000E+00  0.34996269501E-01  0.35000000000E-01  0.51099999109E-03 0.  1.
       11   -1    0    0    0    0 -0.00000000000E+00 -0.00000000000E+00 -0.34996269501E-01  0.35000000000E-01  0.51099999109E-03 0. -1.
       22    1    1    2    0    0  0.11056759379E-01  0.23415506549E-01  0.23546923446E-01  0.34999935410E-01  0.00000000000E+00 0.  1.
       22    1    1    2    0    0  0.30535857045E-10  0.98262984870E-08  0.72895521875E-07  0.73554837936E-07  0.00000000000E+00 0. -1.
       22    1    1    2    0    0 -0.11056759410E-01 -0.23415516375E-01 -0.23546996342E-01  0.34999991035E-01  0.00000000000E+00 0. -1.
</event>
<event>
 5   0  0.6221259E+05  0.9118800E+02  0.7546771E-02  0.1180000E+00
      -11   -1    0    0    0    0  0.00000000000E+00  0.00000000000E+00  0.34996269501E-01  0.35000000000E-01  0.51099999109E-03 0. -1.
       11   -1    0    0    0    0 -0.00000000000E+00 -0.00000000000E+00 -0.34996269501E-01  0.35000000000E-01  0.51099999109E-03 0.  1.
       22    1    1    2    0    0 -0.32945746050E-02 -0.88526729048E-03  0.32924533553E-01  0.33100798022E-01  0.00000000000E+00 0. -1.
       22    1    1    2    0    0  0.76262155251E-02 -0.18333529995E-02 -0.29999052442E-01  0.31007474806E-01  0.00000000000E+00 0.  1.
       22    1    1    2    0    0 -0.43316409201E-02  0.27186202899E-02 -0.29254811112E-02  0.58917271724E-02  0.00000000000E+00 0. -1.
</event>
<event>
 5   0  0.6221259E+05  0.9118800E+02  0.7546771E-02  0.1180000E+00
      -11   -1    0    0    0    0  0.00000000000E+00  0.00000000000E+00  0.34996269501E-01  0.35000000000E-01  0.51099999109E-03 0. -1.
       11   -1    0    0    0    0 -0.00000000000E+00 -0.00000000000E+00 -0.34996269501E-01  0.35000000000E-01  0.51099999109E-03 0.  1.
       22    1    1    2    0    0 -0.15485347001E-02 -0.96897905319E-03  0.34951980969E-01  0.34999683624E-01  0.00000000000E+00 0. -1.
       22    1    1    2    0    0  0.15487142714E-02  0.96848737923E-03 -0.34952085711E-01  0.34999782560E-01  0.00000000000E+00 0.  1.
       22    1    1    2    0    0 -0.17957125100E-06  0.49167396623E-06  0.10474181807E-06  0.53381642136E-06  0.00000000000E+00 0.  1.
</event>
<event>
 5   0  0.6221259E+05  0.9118800E+02  0.7546771E-02  0.1180000E+00
      -11   -1    0    0    0    0  0.00000000000E+00  0.00000000000E+00  0.34996269501E-01  0.35000000000E-01  0.51099999109E-03 0.  1.
       11   -1    0    0    0    0 -0.00000000000E+00 -0.00000000000E+00 -0.34996269501E-01  0.35000000000E-01  0.51099999109E-03 0. -1.
       22    1    1    2    0    0 -0.13228648743E-02  0.46738677258E-03  0.34969845655E-01  0.34997978899E-01  0.00000000000E+00 0.  1.
       22    1    1    2    0    0  0.13229176448E-02 -0.46732305667E-03 -0.34971866150E-01  0.34999998913E-01  0.00000000000E+00 0. -1.
       22    1    1    2    0    0 -0.52770442401E-07 -0.63715905217E-07  0.20204949973E-05  0.20221880403E-05  0.00000000000E+00 0.  1.
</event>
<event>
 5   0  0.6221259E+05  0.9118800E+02  0.7546771E-02  0.1180000E+00
      -11   -1    0    0    0    0  0.00000000000E+00  0.00000000000E+00  0.34996269501E-01  0.35000000000E-01  0.51099999109E-03 0. -1.
       11   -1    0    0    0    0 -0.00000000000E+00 -0.00000000000E+00 -0.34996269501E-01  0.35000000000E-01  0.51099999109E-03 0.  1.
       22    1    1    2    0    0 -0.83394122558E-06  0.21356200486E-06  0.10897048095E-05  0.13887128103E-05  0.00000000000E+00 0.  1.
       22    1    1    2    0    0  0.13314366605E-01  0.30929891267E-01 -0.95412660514E-02  0.34999518421E-01  0.00000000000E+00 0.  1.
       22    1    1    2    0    0 -0.13313532664E-01 -0.30930104829E-01  0.95401763466E-02  0.34999092866E-01  0.00000000000E+00 0. -1.
</event>
<event>
 5   0  0.6221259E+05  0.9118800E+02  0.7546771E-02  0.1180000E+00
      -11   -1    0    0    0    0  0.00000000000E+00  0.00000000000E+00  0.34996269501E-01  0.35000000000E-01  0.51099999109E-03 0. -1.
       11   -1    0    0    0    0 -0.00000000000E+00 -0.00000000000E+00 -0.34996269501E-01  0.35000000000E-01  0.51099999109E-03 0.  1.
       22    1    1    2    0    0  0.47814380389E-04  0.10154340811E-03 -0.16674872612E-03  0.20100352326E-03  0.00000000000E+00 0. -1.
       22    1    1    2    0    0 -0.30127482709E-01 -0.17629997760E-01 -0.15635060262E-02  0.34941759922E-01  0.00000000000E+00 0.  1.
       22    1    1    2    0    0  0.30079668328E-01  0.17528454352E-01  0.17302547523E-02  0.34857236554E-01  0.00000000000E+00 0. -1.
</event>
<event>
 5   0  0.6221259E+05  0.9118800E+02  0.7546771E-02  0.1180000E+00
      -11   -1    0    0    0    0  0.00000000000E+00  0.00000000000E+00  0.34996269501E-01  0.35000000000E-01  0.51099999109E-03 0. -1.
       11   -1    0    0    0    0 -0.00000000000E+00 -0.00000000000E+00 -0.34996269501E-01  0.35000000000E-01  0.51099999109E-03 0.  1.
       22    1    1    2    0    0  0.26224924519E-03 -0.50702772382E-03  0.34994013729E-01  0.34998669242E-01  0.00000000000E+00 0. -1.
       22    1    1    2    0    0 -0.17653718444E-05  0.68635053228E-06  0.67421029132E-06  0.20105159336E-05  0.00000000000E+00 0.  1.
       22    1    1    2    0    0 -0.26048387334E-03  0.50634137328E-03 -0.34994687940E-01  0.34999320243E-01  0.00000000000E+00 0.  1.
</event>
<event>
 5   0  0.6221259E+05  0.9118800E+02  0.7546771E-02  0.1180000E+00
      -11   -1    0    0    0    0  0.00000000000E+00  0.00000000000E+00  0.34996269501E-01  0.35000000000E-01  0.51099999109E-03 0. -1.
       11   -1    0    0    0    0 -0.00000000000E+00 -0.00000000000E+00 -0.34996269501E-01  0.35000000000E-01  0.51099999109E-03 0.  1.
       22    1    1    2    0    0 -0.14758101444E-01  0.16644294127E-01 -0.26893117655E-01  0.34900914922E-01  0.00000000000E+00 0.  1.
       22    1    1    2    0    0  0.14682866979E-01 -0.16738283663E-01  0.26956542763E-01  0.34963007886E-01  0.00000000000E+00 0. -1.
       22    1    1    2    0    0  0.75234464924E-04  0.93989536484E-04 -0.63425108136E-04  0.13607719141E-03  0.00000000000E+00 0.  1.
</event>
<event>
 5   0  0.6221259E+05  0.9118800E+02  0.7546771E-02  0.1180000E+00
      -11   -1    0    0    0    0  0.00000000000E+00  0.00000000000E+00  0.34996269501E-01  0.35000000000E-01  0.51099999109E-03 0. -1.
       11   -1    0    0    0    0 -0.00000000000E+00 -0.00000000000E+00 -0.34996269501E-01  0.35000000000E-01  0.51099999109E-03 0.  1.
       22    1    1    2    0    0 -0.17991199172E-01 -0.75911670536E-02  0.29046347983E-01  0.34999991372E-01  0.00000000000E+00 0. -1.
       22    1    1    2    0    0  0.36368810597E-08  0.33719392483E-09  0.10143331938E-07  0.10780899146E-07  0.00000000000E+00 0.  1.
       22    1    1    2    0    0  0.17991195535E-01  0.75911667164E-02 -0.29046358126E-01  0.34999997847E-01  0.00000000000E+00 0.  1.
</event>
<event>
 5   0  0.6221259E+05  0.9118800E+02  0.7546771E-02  0.1180000E+00
      -11   -1    0    0    0    0  0.00000000000E+00  0.00000000000E+00  0.34996269501E-01  0.35000000000E-01  0.51099999109E-03 0.  1.
       11   -1    0    0    0    0 -0.00000000000E+00 -0.00000000000E+00 -0.34996269501E-01  0.35000000000E-01  0.51099999109E-03 0. -1.
       22    1    1    2    0    0  0.29367864442E-02 -0.15718330248E-02 -0.34694842870E-01  0.34854375557E-01  0.00000000000E+00 0. -1.
       22    1    1    2    0    0 -0.14714010668E-03  0.55709309343E-03  0.35301279895E-03  0.67573734688E-03  0.00000000000E+00 0.  1.
       22    1    1    2    0    0 -0.27896463376E-02  0.10147399314E-02  0.34341830071E-01  0.34469887096E-01  0.00000000000E+00 0.  1.
</event>
<event>
 5   0  0.6221259E+05  0.9118800E+02  0.7546771E-02  0.1180000E+00
      -11   -1    0    0    0    0  0.00000000000E+00  0.00000000000E+00  0.34996269501E-01  0.35000000000E-01  0.51099999109E-03 0.  1.
       11   -1    0    0    0    0 -0.00000000000E+00 -0.00000000000E+00 -0.34996269501E-01  0.35000000000E-01  0.51099999109E-03 0.  1.
       22    1    1    2    0    0  0.17318209809E-09 -0.30471548917E-09 -0.34999753462E-01  0.34999627311E-01  0.00000000000E+00 0.  1.
       22    1    1    2    0    0 -0.31407713174E-05  0.55262159247E-05  0.34973008700E-01  0.34972883030E-01  0.00000000000E+00 0.  1.
       22    1    1    2    0    0  0.31405981353E-05 -0.55259112093E-05  0.26744762192E-04  0.27489659074E-04  0.00000000000E+00 0. -1.
</event>
<event>
 5   0  0.6221259E+05  0.9118800E+02  0.7546771E-02  0.1180000E+00
      -11   -1    0    0    0    0  0.00000000000E+00  0.00000000000E+00  0.34996269501E-01  0.35000000000E-01  0.51099999109E-03 0.  1.
       11   -1    0    0    0    0 -0.00000000000E+00 -0.00000000000E+00 -0.34996269501E-01  0.35000000000E-01  0.51099999109E-03 0. -1.
       22    1    1    2    0    0  0.10532039634E-03  0.19565880889E-02 -0.14619419560E-01  0.14750144325E-01  0.00000000000E+00 0. -1.
       22    1    1    2    0    0 -0.23147874572E-01 -0.30372988032E-03  0.21029275359E-01  0.31275338066E-01  0.00000000000E+00 0.  1.
       22    1    1    2    0    0  0.23042554176E-01 -0.16528582086E-02 -0.64098557985E-02  0.23974517609E-01  0.00000000000E+00 0. -1.
</event>
<event>
 5   0  0.6221259E+05  0.9118800E+02  0.7546771E-02  0.1180000E+00
      -11   -1    0    0    0    0  0.00000000000E+00  0.00000000000E+00  0.34996269501E-01  0.35000000000E-01  0.51099999109E-03 0. -1.
       11   -1    0    0    0    0 -0.00000000000E+00 -0.00000000000E+00 -0.34996269501E-01  0.35000000000E-01  0.51099999109E-03 0.  1.
       22    1    1    2    0    0 -0.26172006117E-01 -0.65832517326E-02  0.17840847716E-01  0.32351336213E-01  0.00000000000E+00 0.  1.
       22    1    1    2    0    0  0.25866290860E-01  0.74035355588E-02 -0.84264571328E-02  0.28193661015E-01  0.00000000000E+00 0. -1.
       22    1    1    2    0    0  0.30571525652E-03 -0.82028382618E-03 -0.94143905828E-02  0.94550027720E-02  0.00000000000E+00 0. -1.
</event>
<event>
 5   0  0.6221259E+05  0.9118800E+02  0.7546771E-02  0.1180000E+00
      -11   -1    0    0    0    0  0.00000000000E+00  0.00000000000E+00  0.34996269501E-01  0.35000000000E-01  0.51099999109E-03 0.  1.
       11   -1    0    0    0    0 -0.00000000000E+00 -0.00000000000E+00 -0.34996269501E-01  0.35000000000E-01  0.51099999109E-03 0. -1.
       22    1    1    2    0    0 -0.12010410390E-02 -0.35611979593E-03 -0.34977571214E-01  0.34999997270E-01  0.00000000000E+00 0. -1.
       22    1    1    2    0    0  0.12938772503E-07 -0.10843202795E-07  0.21766255479E-07  0.27545539717E-07  0.00000000000E+00 0. -1.
       22    1    1    2    0    0  0.12010281002E-02  0.35613063913E-03  0.34977549448E-01  0.34999975184E-01  0.00000000000E+00 0.  1.
</event>
<event>
 5   0  0.6221259E+05  0.9118800E+02  0.7546771E-02  0.1180000E+00
      -11   -1    0    0    0    0  0.00000000000E+00  0.00000000000E+00  0.34996269501E-01  0.35000000000E-01  0.51099999109E-03 0.  1.
       11   -1    0    0    0    0 -0.00000000000E+00 -0.00000000000E+00 -0.34996269501E-01  0.35000000000E-01  0.51099999109E-03 0. -1.
       22    1    1    2    0    0 -0.41332264042E-02 -0.25670700362E-02  0.41148490684E-02  0.63722360232E-02  0.00000000000E+00 0. -1.
       22    1    1    2    0    0 -0.16824248433E-02  0.63118096989E-03 -0.33531353051E-01  0.33579466646E-01  0.00000000000E+00 0. -1.
       22    1    1    2    0    0  0.58156512475E-02  0.19358890663E-02  0.29416503983E-01  0.30048297331E-01  0.00000000000E+00 0.  1.
</event>
<event>
 5   0  0.6221259E+05  0.9118800E+02  0.7546771E-02  0.1180000E+00
      -11   -1    0    0    0    0  0.00000000000E+00  0.00000000000E+00  0.34996269501E-01  0.35000000000E-01  0.51099999109E-03 0. -1.
       11   -1    0    0    0    0 -0.00000000000E+00 -0.00000000000E+00 -0.34996269501E-01  0.35000000000E-01  0.51099999109E-03 0. -1.
       22    1    1    2    0    0  0.13688361260E-07  0.47699521693E-09 -0.54213200220E-07  0.55916632914E-07  0.00000000000E+00 0. -1.
       22    1    1    2    0    0 -0.68404181154E-04 -0.74260164517E-04  0.34999853537E-01  0.34999999162E-01  0.00000000000E+00 0. -1.
       22    1    1    2    0    0  0.68390492792E-04  0.74259687521E-04 -0.34999799324E-01  0.34999944921E-01  0.00000000000E+00 0. -1.
</event>
<event>
 5   0  0.6221259E+05  0.9118800E+02  0.7546771E-02  0.1180000E+00
      -11   -1    0    0    0    0  0.00000000000E+00  0.00000000000E+00  0.34996269501E-01  0.35000000000E-01  0.51099999109E-03 0.  1.
       11   -1    0    0    0    0 -0.00000000000E+00 -0.00000000000E+00 -0.34996269501E-01  0.35000000000E-01  0.51099999109E-03 0.  1.
       22    1    1    2    0    0  0.51707776617E-03 -0.41450409237E-03 -0.34993725113E-01  0.34999999719E-01  0.00000000000E+00 0.  1.
       22    1    1    2    0    0 -0.51707695589E-03  0.41450388668E-03  0.34993724795E-01  0.34999999387E-01  0.00000000000E+00 0.  1.
       22    1    1    2    0    0 -0.81028657526E-09  0.20569819713E-09  0.31782414089E-09  0.89436472811E-09  0.00000000000E+00 0.  1.
</event>
<event>
 5   0  0.6221259E+05  0.9118800E+02  0.7546771E-02  0.1180000E+00
      -11   -1    0    0    0    0  0.00000000000E+00  0.00000000000E+00  0.34996269501E-01  0.35000000000E-01  0.51099999109E-03 0.  1.
       11   -1    0    0    0    0 -0.00000000000E+00 -0.00000000000E+00 -0.34996269501E-01  0.35000000000E-01  0.51099999109E-03 0.  1.
       22    1    1    2    0    0  0.99724116411E-07 -0.13745845407E-06  0.53562700978E-05  0.53589615680E-05  0.00000000000E+00 0. -1.
       22    1    1    2    0    0 -0.99731381550E-07  0.13746846824E-06  0.34996010332E-01  0.34994642280E-01  0.00000000000E+00 0.  1.
       22    1    1    2    0    0  0.72651384338E-11 -0.10014174441E-10 -0.35001366602E-01  0.34999998759E-01  0.00000000000E+00 0.  1.
</event>
<event>
 5   0  0.6221259E+05  0.9118800E+02  0.7546771E-02  0.1180000E+00
      -11   -1    0    0    0    0  0.00000000000E+00  0.00000000000E+00  0.34996269501E-01  0.35000000000E-01  0.51099999109E-03 0. -1.
       11   -1    0    0    0    0 -0.00000000000E+00 -0.00000000000E+00 -0.34996269501E-01  0.35000000000E-01  0.51099999109E-03 0. -1.
       22    1    1    2    0    0  0.14694491672E-03  0.41605326166E-03  0.12428666994E-01  0.12436496950E-01  0.00000000000E+00 0. -1.
       22    1    1    2    0    0 -0.42792614680E-03  0.35581515971E-03  0.22559165663E-01  0.22566029350E-01  0.00000000000E+00 0. -1.
       22    1    1    2    0    0  0.28098123007E-03 -0.77186842137E-03 -0.34987832658E-01  0.34997473700E-01  0.00000000000E+00 0. -1.
</event>
<event>
 5   0  0.6221259E+05  0.9118800E+02  0.7546771E-02  0.1180000E+00
      -11   -1    0    0    0    0  0.00000000000E+00  0.00000000000E+00  0.34996269501E-01  0.35000000000E-01  0.51099999109E-03 0. -1.
       11   -1    0    0    0    0 -0.00000000000E+00 -0.00000000000E+00 -0.34996269501E-01  0.35000000000E-01  0.51099999109E-03 0. -1.
       22    1    1    2    0    0 -0.74326134010E-06  0.21655350530E-05  0.34990930406E-01  0.34989348169E-01  0.00000000000E+00 0. -1.
       22    1    1    2    0    0  0.56425237203E-10 -0.16439820349E-09 -0.35001459023E-01  0.34999877187E-01  0.00000000000E+00 0. -1.
       22    1    1    2    0    0  0.74320491486E-06 -0.21653706548E-05  0.10528616800E-04  0.10774644094E-04  0.00000000000E+00 0.  1.
</event>
<event>
 5   0  0.6221259E+05  0.9118800E+02  0.7546771E-02  0.1180000E+00
      -11   -1    0    0    0    0  0.00000000000E+00  0.00000000000E+00  0.34996269501E-01  0.35000000000E-01  0.51099999109E-03 0.  1.
       11   -1    0    0    0    0 -0.00000000000E+00 -0.00000000000E+00 -0.34996269501E-01  0.35000000000E-01  0.51099999109E-03 0. -1.
       22    1    1    2    0    0 -0.46542177203E-02 -0.91744522169E-02  0.33319389096E-01  0.34871392370E-01  0.00000000000E+00 0.  1.
       22    1    1    2    0    0 -0.26143085255E-03 -0.17882842655E-03 -0.30812983616E-02  0.30975353573E-02  0.00000000000E+00 0.  1.
       22    1    1    2    0    0  0.49156485728E-02  0.93532806435E-02 -0.30238090734E-01  0.32031072273E-01  0.00000000000E+00 0. -1.
</event>
<event>
 5   0  0.6221259E+05  0.9118800E+02  0.7546771E-02  0.1180000E+00
      -11   -1    0    0    0    0  0.00000000000E+00  0.00000000000E+00  0.34996269501E-01  0.35000000000E-01  0.51099999109E-03 0.  1.
       11   -1    0    0    0    0 -0.00000000000E+00 -0.00000000000E+00 -0.34996269501E-01  0.35000000000E-01  0.51099999109E-03 0. -1.
       22    1    1    2    0    0  0.11739160878E-02 -0.44308534796E-02 -0.34687199800E-01  0.34988746355E-01  0.00000000000E+00 0. -1.
       22    1    1    2    0    0 -0.12695615474E-02  0.44627001438E-02  0.33499626028E-01  0.33819408970E-01  0.00000000000E+00 0.  1.
       22    1    1    2    0    0  0.95645459540E-04 -0.31846664162E-04  0.11875737720E-02  0.11918446744E-02  0.00000000000E+00 0.  1.
</event>
<event>
 5   0  0.6221259E+05  0.9118800E+02  0.7546771E-02  0.1180000E+00
      -11   -1    0    0    0    0  0.00000000000E+00  0.00000000000E+00  0.34996269501E-01  0.35000000000E-01  0.51099999109E-03 0. -1.
       11   -1    0    0    0    0 -0.00000000000E+00 -0.00000000000E+00 -0.34996269501E-01  0.35000000000E-01  0.51099999109E-03 0. -1.
       22    1    1    2    0    0  0.73453464627E-03  0.22053444597E-03  0.24369452051E-01  0.24381516972E-01  0.00000000000E+00 0. -1.
       22    1    1    2    0    0  0.22477711253E-03 -0.87223997076E-03 -0.34956500323E-01  0.34968103211E-01  0.00000000000E+00 0. -1.
       22    1    1    2    0    0 -0.95931175880E-03  0.65170552479E-03  0.10587048272E-01  0.10650379818E-01  0.00000000000E+00 0.  1.
</event>
<event>
 5   0  0.6221259E+05  0.9118800E+02  0.7546771E-02  0.1180000E+00
      -11   -1    0    0    0    0  0.00000000000E+00  0.00000000000E+00  0.34996269501E-01  0.35000000000E-01  0.51099999109E-03 0. -1.
       11   -1    0    0    0    0 -0.00000000000E+00 -0.00000000000E+00 -0.34996269501E-01  0.35000000000E-01  0.51099999109E-03 0.  1.
       22    1    1    2    0    0 -0.16150355969E-03  0.54233140030E-03 -0.34995425281E-01  0.34999999962E-01  0.00000000000E+00 0.  1.
       22    1    1    2    0    0  0.16150321985E-03 -0.54233094948E-03  0.34995423424E-01  0.34999998097E-01  0.00000000000E+00 0. -1.
       22    1    1    2    0    0  0.33983356763E-09 -0.45082264702E-09  0.18571921252E-08  0.19411054847E-08  0.00000000000E+00 0.  1.
</event>
<event>
 5   0  0.6221259E+05  0.9118800E+02  0.7546771E-02  0.1180000E+00
      -11   -1    0    0    0    0  0.00000000000E+00  0.00000000000E+00  0.34996269501E-01  0.35000000000E-01  0.51099999109E-03 0.  1.
       11   -1    0    0    0    0 -0.00000000000E+00 -0.00000000000E+00 -0.34996269501E-01  0.35000000000E-01  0.51099999109E-03 0. -1.
       22    1    1    2    0    0  0.17599679899E-02  0.14769516152E-03 -0.34912498625E-01  0.34957143210E-01  0.00000000000E+00 0. -1.
       22    1    1    2    0    0 -0.14486709709E-02  0.24135037215E-03  0.85197656687E-02  0.86454210211E-02  0.00000000000E+00 0. -1.
       22    1    1    2    0    0 -0.31129701899E-03 -0.38904553367E-03  0.26392732956E-01  0.26397435769E-01  0.00000000000E+00 0.  1.
</event>
<event>
 5   0  0.6221259E+05  0.9118800E+02  0.7546771E-02  0.1180000E+00
      -11   -1    0    0    0    0  0.00000000000E+00  0.00000000000E+00  0.34996269501E-01  0.35000000000E-01  0.51099999109E-03 0. -1.
       11   -1    0    0    0    0 -0.00000000000E+00 -0.00000000000E+00 -0.34996269501E-01  0.35000000000E-01  0.51099999109E-03 0.  1.
       22    1    1    2    0    0  0.51205770444E-02  0.70266886118E-02  0.33621125259E-01  0.34727146813E-01  0.00000000000E+00 0. -1.
       22    1    1    2    0    0  0.19342631821E-04  0.56633640406E-04  0.26662322151E-03  0.27325711131E-03  0.00000000000E+00 0.  1.
       22    1    1    2    0    0 -0.51399196762E-02 -0.70833222522E-02 -0.33887748480E-01  0.34999596076E-01  0.00000000000E+00 0.  1.
</event>
<event>
 5   0  0.6221259E+05  0.9118800E+02  0.7546771E-02  0.1180000E+00
      -11   -1    0    0    0    0  0.00000000000E+00  0.00000000000E+00  0.34996269501E-01  0.35000000000E-01  0.51099999109E-03 0.  1.
       11   -1    0    0    0    0 -0.00000000000E+00 -0.00000000000E+00 -0.34996269501E-01  0.35000000000E-01  0.51099999109E-03 0. -1.
       22    1    1    2    0    0  0.19693545298E-02  0.91306419180E-03  0.20687194603E-01  0.20800770756E-01  0.00000000000E+00 0. -1.
       22    1    1    2    0    0 -0.20069875591E-02 -0.12335237686E-02  0.14157945329E-01  0.14352595440E-01  0.00000000000E+00 0.  1.
       22    1    1    2    0    0  0.37633029294E-04  0.32045957676E-03 -0.34845139932E-01  0.34846633804E-01  0.00000000000E+00 0. -1.
</event>
<event>
 5   0  0.6221259E+05  0.9118800E+02  0.7546771E-02  0.1180000E+00
      -11   -1    0    0    0    0  0.00000000000E+00  0.00000000000E+00  0.34996269501E-01  0.35000000000E-01  0.51099999109E-03 0.  1.
       11   -1    0    0    0    0 -0.00000000000E+00 -0.00000000000E+00 -0.34996269501E-01  0.35000000000E-01  0.51099999109E-03 0. -1.
       22    1    1    2    0    0 -0.25591047106E-03  0.14255347125E-04  0.71914262380E-03  0.76345235443E-03  0.00000000000E+00 0. -1.
       22    1    1    2    0    0  0.45707084879E-02 -0.89978199816E-02  0.32773716441E-01  0.34292399010E-01  0.00000000000E+00 0.  1.
       22    1    1    2    0    0 -0.43147980168E-02  0.89835646345E-02 -0.33492859065E-01  0.34944148635E-01  0.00000000000E+00 0. -1.
</event>
<event>
 5   0  0.6221259E+05  0.9118800E+02  0.7546771E-02  0.1180000E+00
      -11   -1    0    0    0    0  0.00000000000E+00  0.00000000000E+00  0.34996269501E-01  0.35000000000E-01  0.51099999109E-03 0. -1.
       11   -1    0    0    0    0 -0.00000000000E+00 -0.00000000000E+00 -0.34996269501E-01  0.35000000000E-01  0.51099999109E-03 0.  1.
       22    1    1    2    0    0 -0.69132951281E-02  0.14080110170E-02 -0.24387134118E-01  0.25387171072E-01  0.00000000000E+00 0.  1.
       22    1    1    2    0    0 -0.69091586879E-03  0.12204453951E-01 -0.34541424875E-02  0.12702643870E-01  0.00000000000E+00 0.  1.
       22    1    1    2    0    0  0.76042109969E-02 -0.13612464968E-01  0.27841276606E-01  0.31910185058E-01  0.00000000000E+00 0. -1.
</event>
<event>
 5   0  0.6221259E+05  0.9118800E+02  0.7546771E-02  0.1180000E+00
      -11   -1    0    0    0    0  0.00000000000E+00  0.00000000000E+00  0.34996269501E-01  0.35000000000E-01  0.51099999109E-03 0. -1.
       11   -1    0    0    0    0 -0.00000000000E+00 -0.00000000000E+00 -0.34996269501E-01  0.35000000000E-01  0.51099999109E-03 0.  1.
       22    1    1    2    0    0 -0.13873474936E-01 -0.14559381306E-01  0.28639679593E-01  0.34995430244E-01  0.00000000000E+00 0. -1.
       22    1    1    2    0    0 -0.26057082690E-06 -0.15108970795E-06  0.49296883986E-05  0.49388817523E-05  0.00000000000E+00 0. -1.
       22    1    1    2    0    0  0.13873735507E-01  0.14559532396E-01 -0.28644609281E-01  0.34999630874E-01  0.00000000000E+00 0.  1.
</event>
<event>
 5   0  0.6221259E+05  0.9118800E+02  0.7546771E-02  0.1180000E+00
      -11   -1    0    0    0    0  0.00000000000E+00  0.00000000000E+00  0.34996269501E-01  0.35000000000E-01  0.51099999109E-03 0. -1.
       11   -1    0    0    0    0 -0.00000000000E+00 -0.00000000000E+00 -0.34996269501E-01  0.35000000000E-01  0.51099999109E-03 0.  1.
       22    1    1    2    0    0  0.11291453661E-01 -0.46861221013E-02 -0.18350243062E-01  0.22049673162E-01  0.00000000000E+00 0.  1.
       22    1    1    2    0    0 -0.70981538457E-03 -0.27995092891E-02 -0.13372966876E-01  0.13681276739E-01  0.00000000000E+00 0.  1.
       22    1    1    2    0    0 -0.10581638276E-01  0.74856313904E-02  0.31723209938E-01  0.34269050099E-01  0.00000000000E+00 0. -1.
</event>
<event>
 5   0  0.6221259E+05  0.9118800E+02  0.7546771E-02  0.1180000E+00
      -11   -1    0    0    0    0  0.00000000000E+00  0.00000000000E+00  0.34996269501E-01  0.35000000000E-01  0.51099999109E-03 0.  1.
       11   -1    0    0    0    0 -0.00000000000E+00 -0.00000000000E+00 -0.34996269501E-01  0.35000000000E-01  0.51099999109E-03 0.  1.
       22    1    1    2    0    0 -0.36335013756E-03 -0.47192250599E-03  0.34994296367E-01  0.34999364457E-01  0.00000000000E+00 0.  1.
       22    1    1    2    0    0  0.36334288603E-03  0.47192887259E-03 -0.34994931914E-01  0.34999999923E-01  0.00000000000E+00 0.  1.
       22    1    1    2    0    0  0.72515315426E-08 -0.63665922972E-08  0.63554677903E-06  0.63562003315E-06  0.00000000000E+00 0. -1.
</event>
<event>
 5   0  0.6221259E+05  0.9118800E+02  0.7546771E-02  0.1180000E+00
      -11   -1    0    0    0    0  0.00000000000E+00  0.00000000000E+00  0.34996269501E-01  0.35000000000E-01  0.51099999109E-03 0.  1.
       11   -1    0    0    0    0 -0.00000000000E+00 -0.00000000000E+00 -0.34996269501E-01  0.35000000000E-01  0.51099999109E-03 0. -1.
       22    1    1    2    0    0  0.25145939304E-02  0.10048223124E-02  0.34361154187E-01  0.34467691649E-01  0.00000000000E+00 0.  1.
       22    1    1    2    0    0 -0.99324073620E-03 -0.72161234167E-03 -0.95154953467E-04  0.12313837732E-02  0.00000000000E+00 0. -1.
       22    1    1    2    0    0 -0.15213531942E-02 -0.28320997069E-03 -0.34265999234E-01  0.34300924578E-01  0.00000000000E+00 0. -1.
</event>
<event>
 5   0  0.6221259E+05  0.9118800E+02  0.7546771E-02  0.1180000E+00
      -11   -1    0    0    0    0  0.00000000000E+00  0.00000000000E+00  0.34996269501E-01  0.35000000000E-01  0.51099999109E-03 0. -1.
       11   -1    0    0    0    0 -0.00000000000E+00 -0.00000000000E+00 -0.34996269501E-01  0.35000000000E-01  0.51099999109E-03 0.  1.
       22    1    1    2    0    0 -0.57217846535E-02  0.13551081175E-01  0.31758922218E-01  0.34999996587E-01  0.00000000000E+00 0. -1.
       22    1    1    2    0    0  0.60018063367E-09  0.13873387460E-09  0.35744348211E-08  0.36271267101E-08  0.00000000000E+00 0.  1.
       22    1    1    2    0    0  0.57217840533E-02 -0.13551081314E-01 -0.31758925792E-01  0.34999999786E-01  0.00000000000E+00 0.  1.
</event>
<event>
 5   0  0.6221259E+05  0.9118800E+02  0.7546771E-02  0.1180000E+00
      -11   -1    0    0    0    0  0.00000000000E+00  0.00000000000E+00  0.34996269501E-01  0.35000000000E-01  0.51099999109E-03 0.  1.
       11   -1    0    0    0    0 -0.00000000000E+00 -0.00000000000E+00 -0.34996269501E-01  0.35000000000E-01  0.51099999109E-03 0. -1.
       22    1    1    2    0    0  0.13875171788E-02  0.46681456936E-03 -0.34969366818E-01  0.34999996221E-01  0.00000000000E+00 0. -1.
       22    1    1    2    0    0 -0.69415584017E-08 -0.33909027612E-09 -0.83903924950E-09  0.70003001451E-08  0.00000000000E+00 0.  1.
       22    1    1    2    0    0 -0.13875102373E-02 -0.46681423027E-03  0.34969367657E-01  0.34999996779E-01  0.00000000000E+00 0.  1.
</event>
<event>
 5   0  0.6221259E+05  0.9118800E+02  0.7546771E-02  0.1180000E+00
      -11   -1    0    0    0    0  0.00000000000E+00  0.00000000000E+00  0.34996269501E-01  0.35000000000E-01  0.51099999109E-03 0.  1.
       11   -1    0    0    0    0 -0.00000000000E+00 -0.00000000000E+00 -0.34996269501E-01  0.35000000000E-01  0.51099999109E-03 0. -1.
       22    1    1    2    0    0  0.13543145474E-02 -0.34051680623E-01 -0.71388083697E-02  0.34818295566E-01  0.00000000000E+00 0.  1.
       22    1    1    2    0    0 -0.13648280793E-02  0.34054034611E-01  0.74369632732E-02  0.34883354938E-01  0.00000000000E+00 0. -1.
       22    1    1    2    0    0  0.10513531929E-04 -0.23539877027E-05 -0.29815490350E-03  0.29834949655E-03  0.00000000000E+00 0.  1.
</event>
<event>
 5   0  0.6221259E+05  0.9118800E+02  0.7546771E-02  0.1180000E+00
      -11   -1    0    0    0    0  0.00000000000E+00  0.00000000000E+00  0.34996269501E-01  0.35000000000E-01  0.51099999109E-03 0.  1.
       11   -1    0    0    0    0 -0.00000000000E+00 -0.00000000000E+00 -0.34996269501E-01  0.35000000000E-01  0.51099999109E-03 0. -1.
       22    1    1    2    0    0 -0.15999076951E-02  0.29157443771E-02  0.34836074117E-01  0.34994475704E-01  0.00000000000E+00 0.  1.
       22    1    1    2    0    0 -0.73425962538E-07  0.18364724391E-06  0.55257031480E-05  0.55292416263E-05  0.00000000000E+00 0.  1.
       22    1    1    2    0    0  0.15999811211E-02 -0.29159280243E-02 -0.34841599820E-01  0.34999995055E-01  0.00000000000E+00 0. -1.
</event>
<event>
 5   0  0.6221259E+05  0.9118800E+02  0.7546771E-02  0.1180000E+00
      -11   -1    0    0    0    0  0.00000000000E+00  0.00000000000E+00  0.34996269501E-01  0.35000000000E-01  0.51099999109E-03 0. -1.
       11   -1    0    0    0    0 -0.00000000000E+00 -0.00000000000E+00 -0.34996269501E-01  0.35000000000E-01  0.51099999109E-03 0.  1.
       22    1    1    2    0    0  0.22456650234E-06  0.60808546099E-07  0.11898656026E-06  0.26131512542E-06  0.00000000000E+00 0. -1.
       22    1    1    2    0    0  0.19751727362E-02 -0.12329245558E-02  0.34922269683E-01  0.34999804715E-01  0.00000000000E+00 0. -1.
       22    1    1    2    0    0 -0.19753973027E-02  0.12328637473E-02 -0.34922388669E-01  0.34999933970E-01  0.00000000000E+00 0.  1.
</event>
<event>
 5   0  0.6221259E+05  0.9118800E+02  0.7546771E-02  0.1180000E+00
      -11   -1    0    0    0    0  0.00000000000E+00  0.00000000000E+00  0.34996269501E-01  0.35000000000E-01  0.51099999109E-03 0.  1.
       11   -1    0    0    0    0 -0.00000000000E+00 -0.00000000000E+00 -0.34996269501E-01  0.35000000000E-01  0.51099999109E-03 0.  1.
       22    1    1    2    0    0 -0.51527426686E-13 -0.80989866315E-13 -0.35000819631E-01  0.34999999291E-01  0.00000000000E+00 0.  1.
       22    1    1    2    0    0  0.79255017324E-09  0.12457158587E-08  0.35000819570E-01  0.34999999231E-01  0.00000000000E+00 0.  1.
       22    1    1    2    0    0 -0.79249864581E-09 -0.12456348688E-08  0.60435281116E-10  0.14776037199E-08  0.00000000000E+00 0. -1.
</event>
<event>
 5   0  0.6221259E+05  0.9118800E+02  0.7546771E-02  0.1180000E+00
      -11   -1    0    0    0    0  0.00000000000E+00  0.00000000000E+00  0.34996269501E-01  0.35000000000E-01  0.51099999109E-03 0. -1.
       11   -1    0    0    0    0 -0.00000000000E+00 -0.00000000000E+00 -0.34996269501E-01  0.35000000000E-01  0.51099999109E-03 0.  1.
       22    1    1    2    0    0  0.28954537143E-02 -0.14619716649E-01  0.31572957277E-01  0.34913770898E-01  0.00000000000E+00 0. -1.
       22    1    1    2    0    0 -0.28865837890E-02  0.14622059385E-01 -0.31663134470E-01  0.34995586451E-01  0.00000000000E+00 0.  1.
       22    1    1    2    0    0 -0.88699253035E-05 -0.23427359422E-05  0.90177192794E-04  0.90642650484E-04  0.00000000000E+00 0.  1.
</event>
<event>
 5   0  0.6221259E+05  0.9118800E+02  0.7546771E-02  0.1180000E+00
      -11   -1    0    0    0    0  0.00000000000E+00  0.00000000000E+00  0.34996269501E-01  0.35000000000E-01  0.51099999109E-03 0.  1.
       11   -1    0    0    0    0 -0.00000000000E+00 -0.00000000000E+00 -0.34996269501E-01  0.35000000000E-01  0.51099999109E-03 0. -1.
       22    1    1    2    0    0 -0.98184835273E-02  0.97701299683E-02  0.32130115273E-01  0.34988603371E-01  0.00000000000E+00 0.  1.
       22    1    1    2    0    0  0.13642581468E-04  0.11974953385E-04 -0.27550289848E-03  0.27610028360E-03  0.00000000000E+00 0.  1.
       22    1    1    2    0    0  0.98048409459E-02 -0.97821049217E-02 -0.31854612375E-01  0.34735296346E-01  0.00000000000E+00 0. -1.
</event>
<event>
 5   0  0.6221259E+05  0.9118800E+02  0.7546771E-02  0.1180000E+00
      -11   -1    0    0    0    0  0.00000000000E+00  0.00000000000E+00  0.34996269501E-01  0.35000000000E-01  0.51099999109E-03 0.  1.
       11   -1    0    0    0    0 -0.00000000000E+00 -0.00000000000E+00 -0.34996269501E-01  0.35000000000E-01  0.51099999109E-03 0. -1.
       22    1    1    2    0    0  0.49606050062E-04 -0.89314538964E-04  0.23808570697E-02  0.23830480972E-02  0.00000000000E+00 0.  1.
       22    1    1    2    0    0 -0.12698490957E-01  0.36825142806E-02  0.29936850397E-01  0.32726557957E-01  0.00000000000E+00 0.  1.
       22    1    1    2    0    0  0.12648884906E-01 -0.35931997416E-02 -0.32317707467E-01  0.34890393946E-01  0.00000000000E+00 0. -1.
</event>
<event>
 5   0  0.6221259E+05  0.9118800E+02  0.7546771E-02  0.1180000E+00
      -11   -1    0    0    0    0  0.00000000000E+00  0.00000000000E+00  0.34996269501E-01  0.35000000000E-01  0.51099999109E-03 0. -1.
       11   -1    0    0    0    0 -0.00000000000E+00 -0.00000000000E+00 -0.34996269501E-01  0.35000000000E-01  0.51099999109E-03 0.  1.
       22    1    1    2    0    0  0.52769644093E-02 -0.33577688949E-02 -0.34436593944E-01  0.34999999540E-01  0.00000000000E+00 0.  1.
       22    1    1    2    0    0 -0.42653984132E-08 -0.45654203889E-08  0.38868456290E-07  0.39367417763E-07  0.00000000000E+00 0.  1.
       22    1    1    2    0    0 -0.52769601439E-02  0.33577734604E-02  0.34436555076E-01  0.34999961092E-01  0.00000000000E+00 0. -1.
</event>
<event>
 5   0  0.6221259E+05  0.9118800E+02  0.7546771E-02  0.1180000E+00
      -11   -1    0    0    0    0  0.00000000000E+00  0.00000000000E+00  0.34996269501E-01  0.35000000000E-01  0.51099999109E-03 0. -1.
       11   -1    0    0    0    0 -0.00000000000E+00 -0.00000000000E+00 -0.34996269501E-01  0.35000000000E-01  0.51099999109E-03 0.  1.
       22    1    1    2    0    0 -0.94699454096E-03 -0.21584799772E-02 -0.34920524933E-01  0.34999984230E-01  0.00000000000E+00 0.  1.
       22    1    1    2    0    0  0.12787840678E-05  0.10424519207E-04  0.16636088817E-03  0.16669208440E-03  0.00000000000E+00 0. -1.
       22    1    1    2    0    0  0.94571575689E-03  0.21480554580E-02  0.34754164045E-01  0.34833323686E-01  0.00000000000E+00 0. -1.
</event>
<event>
 5   0  0.6221259E+05  0.9118800E+02  0.7546771E-02  0.1180000E+00
      -11   -1    0    0    0    0  0.00000000000E+00  0.00000000000E+00  0.34996269501E-01  0.35000000000E-01  0.51099999109E-03 0. -1.
       11   -1    0    0    0    0 -0.00000000000E+00 -0.00000000000E+00 -0.34996269501E-01  0.35000000000E-01  0.51099999109E-03 0. -1.
       22    1    1    2    0    0  0.52210571645E-09 -0.25621580091E-09 -0.35000402500E-01  0.34999265924E-01  0.00000000000E+00 0. -1.
       22    1    1    2    0    0  0.75033249523E-05 -0.36821477941E-05  0.23061250161E-04  0.24529153200E-04  0.00000000000E+00 0.  1.
       22    1    1    2    0    0 -0.75038470580E-05  0.36824040099E-05  0.34977341250E-01  0.34976204923E-01  0.00000000000E+00 0. -1.
</event>
<event>
 5   0  0.6221259E+05  0.9118800E+02  0.7546771E-02  0.1180000E+00
      -11   -1    0    0    0    0  0.00000000000E+00  0.00000000000E+00  0.34996269501E-01  0.35000000000E-01  0.51099999109E-03 0. -1.
       11   -1    0    0    0    0 -0.00000000000E+00 -0.00000000000E+00 -0.34996269501E-01  0.35000000000E-01  0.51099999109E-03 0.  1.
       22    1    1    2    0    0  0.17639956887E-01 -0.15880980255E-01 -0.25722069012E-01  0.34999977816E-01  0.00000000000E+00 0.  1.
       22    1    1    2    0    0 -0.17639959496E-01  0.15880978902E-01  0.25721904379E-01  0.34999857525E-01  0.00000000000E+00 0. -1.
       22    1    1    2    0    0  0.26088091272E-08  0.13530815353E-08  0.16463300293E-06  0.16465923104E-06  0.00000000000E+00 0.  1.
</event>
<event>
 5   0  0.6221259E+05  0.9118800E+02  0.7546771E-02  0.1180000E+00
      -11   -1    0    0    0    0  0.00000000000E+00  0.00000000000E+00  0.34996269501E-01  0.35000000000E-01  0.51099999109E-03 0.  1.
       11   -1    0    0    0    0 -0.00000000000E+00 -0.00000000000E+00 -0.34996269501E-01  0.35000000000E-01  0.51099999109E-03 0. -1.
       22    1    1    2    0    0 -0.14646786175E-01  0.15272853515E-01 -0.27873924025E-01  0.34996343242E-01  0.00000000000E+00 0. -1.
       22    1    1    2    0    0  0.14649787741E-01 -0.15273204968E-01  0.27845733894E-01  0.34975305101E-01  0.00000000000E+00 0.  1.
       22    1    1    2    0    0 -0.30015662190E-05  0.35145280989E-06  0.28190131637E-04  0.28351656751E-04  0.00000000000E+00 0. -1.
</event>
<event>
 5   0  0.6221259E+05  0.9118800E+02  0.7546771E-02  0.1180000E+00
      -11   -1    0    0    0    0  0.00000000000E+00  0.00000000000E+00  0.34996269501E-01  0.35000000000E-01  0.51099999109E-03 0.  1.
       11   -1    0    0    0    0 -0.00000000000E+00 -0.00000000000E+00 -0.34996269501E-01  0.35000000000E-01  0.51099999109E-03 0. -1.
       22    1    1    2    0    0  0.37344076542E-02 -0.18421638571E-03 -0.34799710787E-01  0.34999994387E-01  0.00000000000E+00 0. -1.
       22    1    1    2    0    0 -0.12851788502E-06 -0.30853080877E-07  0.37460130212E-06  0.39723405559E-06  0.00000000000E+00 0. -1.
       22    1    1    2    0    0 -0.37342791363E-02  0.18424723879E-03  0.34799336186E-01  0.34999608379E-01  0.00000000000E+00 0.  1.
</event>
<event>
 5   0  0.6221259E+05  0.9118800E+02  0.7546771E-02  0.1180000E+00
      -11   -1    0    0    0    0  0.00000000000E+00  0.00000000000E+00  0.34996269501E-01  0.35000000000E-01  0.51099999109E-03 0.  1.
       11   -1    0    0    0    0 -0.00000000000E+00 -0.00000000000E+00 -0.34996269501E-01  0.35000000000E-01  0.51099999109E-03 0.  1.
       22    1    1    2    0    0 -0.87659895224E-03 -0.93536526581E-04 -0.28780357976E-02  0.30100273847E-02  0.00000000000E+00 0. -1.
       22    1    1    2    0    0  0.92869892024E-03 -0.18596604685E-05 -0.32049157423E-01  0.32062610260E-01  0.00000000000E+00 0.  1.
       22    1    1    2    0    0 -0.52099968007E-04  0.95396187050E-04  0.34927193221E-01  0.34927362355E-01  0.00000000000E+00 0.  1.
</event>
<event>
 5   0  0.6221259E+05  0.9118800E+02  0.7546771E-02  0.1180000E+00
      -11   -1    0    0    0    0  0.00000000000E+00  0.00000000000E+00  0.34996269501E-01  0.35000000000E-01  0.51099999109E-03 0.  1.
       11   -1    0    0    0    0 -0.00000000000E+00 -0.00000000000E+00 -0.34996269501E-01  0.35000000000E-01  0.51099999109E-03 0. -1.
       22    1    1    2    0    0 -0.12137295483E-01  0.14587726566E-02  0.32793419506E-01  0.34997861681E-01  0.00000000000E+00 0.  1.
       22    1    1    2    0    0  0.39733337501E-06 -0.16827033361E-05  0.19803462818E-05  0.26289039017E-05  0.00000000000E+00 0. -1.
       22    1    1    2    0    0  0.12136898150E-01 -0.14570899533E-02 -0.32795399853E-01  0.34999509415E-01  0.00000000000E+00 0. -1.
</event>
<event>
 5   0  0.6221259E+05  0.9118800E+02  0.7546771E-02  0.1180000E+00
      -11   -1    0    0    0    0  0.00000000000E+00  0.00000000000E+00  0.34996269501E-01  0.35000000000E-01  0.51099999109E-03 0. -1.
       11   -1    0    0    0    0 -0.00000000000E+00 -0.00000000000E+00 -0.34996269501E-01  0.35000000000E-01  0.51099999109E-03 0.  1.
       22    1    1    2    0    0 -0.55174532669E-03 -0.30401047697E-02 -0.34863351799E-01  0.34999999409E-01  0.00000000000E+00 0.  1.
       22    1    1    2    0    0  0.50461333411E-08  0.57903549414E-08  0.16491027785E-07  0.18191912199E-07  0.00000000000E+00 0.  1.
       22    1    1    2    0    0  0.55174028056E-03  0.30400989793E-02  0.34863335308E-01  0.34999982399E-01  0.00000000000E+00 0. -1.
</event>
<event>
 5   0  0.6221259E+05  0.9118800E+02  0.7546771E-02  0.1180000E+00
      -11   -1    0    0    0    0  0.00000000000E+00  0.00000000000E+00  0.34996269501E-01  0.35000000000E-01  0.51099999109E-03 0.  1.
       11   -1    0    0    0    0 -0.00000000000E+00 -0.00000000000E+00 -0.34996269501E-01  0.35000000000E-01  0.51099999109E-03 0. -1.
       22    1    1    2    0    0  0.30631009013E-04 -0.81789715781E-05  0.27359409272E-03  0.27542491148E-03  0.00000000000E+00 0.  1.
       22    1    1    2    0    0 -0.24911008014E-01  0.73698436802E-02 -0.23403101363E-01  0.34965383876E-01  0.00000000000E+00 0. -1.
       22    1    1    2    0    0  0.24880377005E-01 -0.73616647086E-02  0.23129507271E-01  0.34759191213E-01  0.00000000000E+00 0.  1.
</event>
<event>
 5   0  0.6221259E+05  0.9118800E+02  0.7546771E-02  0.1180000E+00
      -11   -1    0    0    0    0  0.00000000000E+00  0.00000000000E+00  0.34996269501E-01  0.35000000000E-01  0.51099999109E-03 0.  1.
       11   -1    0    0    0    0 -0.00000000000E+00 -0.00000000000E+00 -0.34996269501E-01  0.35000000000E-01  0.51099999109E-03 0. -1.
       22    1    1    2    0    0  0.12039967646E-02  0.28622022876E-03 -0.34977470468E-01  0.34999356717E-01  0.00000000000E+00 0. -1.
       22    1    1    2    0    0 -0.12047074848E-02 -0.28522165392E-03  0.34977514301E-01  0.34999416827E-01  0.00000000000E+00 0.  1.
       22    1    1    2    0    0  0.71072015311E-06 -0.99857483496E-06 -0.43833149416E-07  0.12264567591E-05  0.00000000000E+00 0.  1.
</event>
<event>
 5   0  0.6221259E+05  0.9118800E+02  0.7546771E-02  0.1180000E+00
      -11   -1    0    0    0    0  0.00000000000E+00  0.00000000000E+00  0.34996269501E-01  0.35000000000E-01  0.51099999109E-03 0. -1.
       11   -1    0    0    0    0 -0.00000000000E+00 -0.00000000000E+00 -0.34996269501E-01  0.35000000000E-01  0.51099999109E-03 0. -1.
       22    1    1    2    0    0 -0.28145554997E-03  0.72040324874E-04  0.34991468661E-01  0.34992674749E-01  0.00000000000E+00 0. -1.
       22    1    1    2    0    0  0.28000864850E-03 -0.67626345767E-04 -0.34998068886E-01  0.34999254334E-01  0.00000000000E+00 0. -1.
       22    1    1    2    0    0  0.14469014647E-05 -0.44139791073E-05  0.66002251214E-05  0.80709173618E-05  0.00000000000E+00 0.  1.
</event>
<event>
 5   0  0.6221259E+05  0.9118800E+02  0.7546771E-02  0.1180000E+00
      -11   -1    0    0    0    0  0.00000000000E+00  0.00000000000E+00  0.34996269501E-01  0.35000000000E-01  0.51099999109E-03 0. -1.
       11   -1    0    0    0    0 -0.00000000000E+00 -0.00000000000E+00 -0.34996269501E-01  0.35000000000E-01  0.51099999109E-03 0.  1.
       22    1    1    2    0    0 -0.15624901107E-03  0.34235905308E-03  0.80877235947E-02  0.80964743203E-02  0.00000000000E+00 0.  1.
       22    1    1    2    0    0  0.67972432748E-03 -0.14622213553E-01  0.23242846037E-01  0.27468182435E-01  0.00000000000E+00 0. -1.
       22    1    1    2    0    0 -0.52347531642E-03  0.14279854500E-01 -0.31330569632E-01  0.34435343245E-01  0.00000000000E+00 0.  1.
</event>
<event>
 5   0  0.6221259E+05  0.9118800E+02  0.7546771E-02  0.1180000E+00
      -11   -1    0    0    0    0  0.00000000000E+00  0.00000000000E+00  0.34996269501E-01  0.35000000000E-01  0.51099999109E-03 0.  1.
       11   -1    0    0    0    0 -0.00000000000E+00 -0.00000000000E+00 -0.34996269501E-01  0.35000000000E-01  0.51099999109E-03 0. -1.
       22    1    1    2    0    0 -0.10412627894E-01 -0.82105535859E-02  0.32390690664E-01  0.34999897879E-01  0.00000000000E+00 0.  1.
       22    1    1    2    0    0 -0.35442701653E-07  0.13323328207E-06  0.73998069397E-07  0.15647046631E-06  0.00000000000E+00 0. -1.
       22    1    1    2    0    0  0.10412663336E-01  0.82104203526E-02 -0.32390764662E-01  0.34999945650E-01  0.00000000000E+00 0. -1.
</event>
<event>
 5   0  0.6221259E+05  0.9118800E+02  0.7546771E-02  0.1180000E+00
      -11   -1    0    0    0    0  0.00000000000E+00  0.00000000000E+00  0.34996269501E-01  0.35000000000E-01  0.51099999109E-03 0. -1.
       11   -1    0    0    0    0 -0.00000000000E+00 -0.00000000000E+00 -0.34996269501E-01  0.35000000000E-01  0.51099999109E-03 0.  1.
       22    1    1    2    0    0  0.87124687090E-02 -0.11111374741E-01 -0.31811835756E-01  0.34804635522E-01  0.00000000000E+00 0.  1.
       22    1    1    2    0    0 -0.87150129000E-02  0.11103213852E-01  0.32016854866E-01  0.34990167236E-01  0.00000000000E+00 0. -1.
       22    1    1    2    0    0  0.25441909633E-05  0.81608892733E-05 -0.20501911002E-03  0.20519724290E-03  0.00000000000E+00 0.  1.
</event>
<event>
 5   0  0.6221259E+05  0.9118800E+02  0.7546771E-02  0.1180000E+00
      -11   -1    0    0    0    0  0.00000000000E+00  0.00000000000E+00  0.34996269501E-01  0.35000000000E-01  0.51099999109E-03 0. -1.
       11   -1    0    0    0    0 -0.00000000000E+00 -0.00000000000E+00 -0.34996269501E-01  0.35000000000E-01  0.51099999109E-03 0.  1.
       22    1    1    2    0    0 -0.29244448539E-02 -0.92556511000E-02 -0.30955919277E-01  0.32442077511E-01  0.00000000000E+00 0.  1.
       22    1    1    2    0    0  0.38690652539E-02  0.98266418781E-02  0.51880271385E-02  0.11766400560E-01  0.00000000000E+00 0. -1.
       22    1    1    2    0    0 -0.94462039992E-03 -0.57099077806E-03  0.25767892138E-01  0.25791521929E-01  0.00000000000E+00 0. -1.
</event>
<event>
 5   0  0.6221259E+05  0.9118800E+02  0.7546771E-02  0.1180000E+00
      -11   -1    0    0    0    0  0.00000000000E+00  0.00000000000E+00  0.34996269501E-01  0.35000000000E-01  0.51099999109E-03 0.  1.
       11   -1    0    0    0    0 -0.00000000000E+00 -0.00000000000E+00 -0.34996269501E-01  0.35000000000E-01  0.51099999109E-03 0. -1.
       22    1    1    2    0    0  0.51318339429E-03  0.12541453941E-02  0.31704052440E-01  0.31732998267E-01  0.00000000000E+00 0.  1.
       22    1    1    2    0    0 -0.23275740979E-02  0.22751476121E-02 -0.33677920667E-01  0.33834837643E-01  0.00000000000E+00 0. -1.
       22    1    1    2    0    0  0.18143907037E-02 -0.35292930062E-02  0.19738682268E-02  0.44321640905E-02  0.00000000000E+00 0.  1.
</event>
<event>
 5   0  0.6221259E+05  0.9118800E+02  0.7546771E-02  0.1180000E+00
      -11   -1    0    0    0    0  0.00000000000E+00  0.00000000000E+00  0.34996269501E-01  0.35000000000E-01  0.51099999109E-03 0.  1.
       11   -1    0    0    0    0 -0.00000000000E+00 -0.00000000000E+00 -0.34996269501E-01  0.35000000000E-01  0.51099999109E-03 0. -1.
       22    1    1    2    0    0 -0.17227737181E-02  0.97303489342E-03  0.10224762983E-02  0.22271515368E-02  0.00000000000E+00 0. -1.
       22    1    1    2    0    0  0.15344596457E-01  0.23136092267E-01 -0.19988478213E-01  0.34209277500E-01  0.00000000000E+00 0. -1.
       22    1    1    2    0    0 -0.13621822738E-01 -0.24109127160E-01  0.18966001915E-01  0.33563570963E-01  0.00000000000E+00 0.  1.
</event>
<event>
 5   0  0.6221259E+05  0.9118800E+02  0.7546771E-02  0.1180000E+00
      -11   -1    0    0    0    0  0.00000000000E+00  0.00000000000E+00  0.34996269501E-01  0.35000000000E-01  0.51099999109E-03 0.  1.
       11   -1    0    0    0    0 -0.00000000000E+00 -0.00000000000E+00 -0.34996269501E-01  0.35000000000E-01  0.51099999109E-03 0.  1.
       22    1    1    2    0    0  0.35331367871E-03 -0.31071903073E-03  0.34994137157E-01  0.34997300071E-01  0.00000000000E+00 0.  1.
       22    1    1    2    0    0  0.24106669386E-06  0.25155882369E-06  0.26887093332E-05  0.27111903052E-05  0.00000000000E+00 0.  1.
       22    1    1    2    0    0 -0.35355474540E-03  0.31046747190E-03 -0.34996825866E-01  0.34999988739E-01  0.00000000000E+00 0.  1.
</event>
<event>
 5   0  0.6221259E+05  0.9118800E+02  0.7546771E-02  0.1180000E+00
      -11   -1    0    0    0    0  0.00000000000E+00  0.00000000000E+00  0.34996269501E-01  0.35000000000E-01  0.51099999109E-03 0.  1.
       11   -1    0    0    0    0 -0.00000000000E+00 -0.00000000000E+00 -0.34996269501E-01  0.35000000000E-01  0.51099999109E-03 0. -1.
       22    1    1    2    0    0  0.12083515627E-01 -0.12147508370E-01 -0.30493603669E-01  0.34977609613E-01  0.00000000000E+00 0. -1.
       22    1    1    2    0    0 -0.10023671074E-04  0.14231972533E-04  0.40813044070E-03  0.40850150508E-03  0.00000000000E+00 0.  1.
       22    1    1    2    0    0 -0.12073491956E-01  0.12133276397E-01  0.30085473229E-01  0.34613888882E-01  0.00000000000E+00 0.  1.
</event>
<event>
 5   0  0.6221259E+05  0.9118800E+02  0.7546771E-02  0.1180000E+00
      -11   -1    0    0    0    0  0.00000000000E+00  0.00000000000E+00  0.34996269501E-01  0.35000000000E-01  0.51099999109E-03 0. -1.
       11   -1    0    0    0    0 -0.00000000000E+00 -0.00000000000E+00 -0.34996269501E-01  0.35000000000E-01  0.51099999109E-03 0. -1.
       22    1    1    2    0    0  0.82194995283E-03  0.12840164861E-04  0.34884079109E-01  0.34893763653E-01  0.00000000000E+00 0. -1.
       22    1    1    2    0    0 -0.10500361376E-03 -0.82912670057E-04  0.65687034682E-04  0.14904716128E-03  0.00000000000E+00 0. -1.
       22    1    1    2    0    0 -0.71694633906E-03  0.70072505196E-04 -0.34949766144E-01  0.34957189185E-01  0.00000000000E+00 0. -1.
</event>
<event>
 5   0  0.6221259E+05  0.9118800E+02  0.7546771E-02  0.1180000E+00
      -11   -1    0    0    0    0  0.00000000000E+00  0.00000000000E+00  0.34996269501E-01  0.35000000000E-01  0.51099999109E-03 0. -1.
       11   -1    0    0    0    0 -0.00000000000E+00 -0.00000000000E+00 -0.34996269501E-01  0.35000000000E-01  0.51099999109E-03 0.  1.
       22    1    1    2    0    0 -0.29119032268E-02 -0.12571616294E-01 -0.32534216830E-01  0.34999999734E-01  0.00000000000E+00 0.  1.
       22    1    1    2    0    0  0.29119024372E-02  0.12571616089E-01  0.32534207828E-01  0.34999991227E-01  0.00000000000E+00 0. -1.
       22    1    1    2    0    0  0.78964711333E-09  0.20469797903E-09  0.90024329504E-08  0.90393165036E-08  0.00000000000E+00 0. -1.
</event>
<event>
 5   0  0.6221259E+05  0.9118800E+02  0.7546771E-02  0.1180000E+00
      -11   -1    0    0    0    0  0.00000000000E+00  0.00000000000E+00  0.34996269501E-01  0.35000000000E-01  0.51099999109E-03 0.  1.
       11   -1    0    0    0    0 -0.00000000000E+00 -0.00000000000E+00 -0.34996269501E-01  0.35000000000E-01  0.51099999109E-03 0. -1.
       22    1    1    2    0    0 -0.54810478910E-03  0.72952427511E-02  0.34211484313E-01  0.34984948829E-01  0.00000000000E+00 0.  1.
       22    1    1    2    0    0  0.54917822901E-03 -0.72972578401E-02 -0.34226394892E-01  0.34999966801E-01  0.00000000000E+00 0. -1.
       22    1    1    2    0    0 -0.10734399135E-05  0.20150890867E-05  0.14910579717E-04  0.15084370878E-04  0.00000000000E+00 0.  1.
</event>
<event>
 5   0  0.6221259E+05  0.9118800E+02  0.7546771E-02  0.1180000E+00
      -11   -1    0    0    0    0  0.00000000000E+00  0.00000000000E+00  0.34996269501E-01  0.35000000000E-01  0.51099999109E-03 0.  1.
       11   -1    0    0    0    0 -0.00000000000E+00 -0.00000000000E+00 -0.34996269501E-01  0.35000000000E-01  0.51099999109E-03 0. -1.
       22    1    1    2    0    0  0.15226922743E-02  0.21935139045E-02 -0.34897984715E-01  0.34999991889E-01  0.00000000000E+00 0. -1.
       22    1    1    2    0    0 -0.94044700279E-08  0.56785479556E-08 -0.44398093546E-08  0.11849129525E-07  0.00000000000E+00 0.  1.
       22    1    1    2    0    0 -0.15226828698E-02 -0.21935195830E-02  0.34897989155E-01  0.34999996262E-01  0.00000000000E+00 0.  1.
</event>
<event>
 5   0  0.6221259E+05  0.9118800E+02  0.7546771E-02  0.1180000E+00
      -11   -1    0    0    0    0  0.00000000000E+00  0.00000000000E+00  0.34996269501E-01  0.35000000000E-01  0.51099999109E-03 0.  1.
       11   -1    0    0    0    0 -0.00000000000E+00 -0.00000000000E+00 -0.34996269501E-01  0.35000000000E-01  0.51099999109E-03 0. -1.
       22    1    1    2    0    0  0.13154240367E-07 -0.13206083610E-07  0.11794547201E-07  0.22057788367E-07  0.00000000000E+00 0.  1.
       22    1    1    2    0    0 -0.12039597305E-02 -0.13197101068E-02 -0.34954377192E-01  0.34999994838E-01  0.00000000000E+00 0. -1.
       22    1    1    2    0    0  0.12039465762E-02  0.13197233129E-02  0.34954365397E-01  0.34999983104E-01  0.00000000000E+00 0.  1.
</event>
<event>
 5   0  0.6221259E+05  0.9118800E+02  0.7546771E-02  0.1180000E+00
      -11   -1    0    0    0    0  0.00000000000E+00  0.00000000000E+00  0.34996269501E-01  0.35000000000E-01  0.51099999109E-03 0.  1.
       11   -1    0    0    0    0 -0.00000000000E+00 -0.00000000000E+00 -0.34996269501E-01  0.35000000000E-01  0.51099999109E-03 0. -1.
       22    1    1    2    0    0 -0.54117041518E-02 -0.10710232154E-01 -0.32632586525E-01  0.34768970619E-01  0.00000000000E+00 0. -1.
       22    1    1    2    0    0 -0.35567018680E-03  0.12770058165E-04 -0.52405873935E-04  0.35973703144E-03  0.00000000000E+00 0.  1.
       22    1    1    2    0    0  0.57673743386E-02  0.10697462096E-01  0.32684992398E-01  0.34871292350E-01  0.00000000000E+00 0.  1.
</event>
<event>
 5   0  0.6221259E+05  0.9118800E+02  0.7546771E-02  0.1180000E+00
      -11   -1    0    0    0    0  0.00000000000E+00  0.00000000000E+00  0.34996269501E-01  0.35000000000E-01  0.51099999109E-03 0. -1.
       11   -1    0    0    0    0 -0.00000000000E+00 -0.00000000000E+00 -0.34996269501E-01  0.35000000000E-01  0.51099999109E-03 0.  1.
       22    1    1    2    0    0  0.94907092035E-03 -0.90886238430E-03  0.34700133782E-01  0.34725006133E-01  0.00000000000E+00 0. -1.
       22    1    1    2    0    0 -0.94592042248E-03  0.90274684068E-03 -0.34975304212E-01  0.34999737457E-01  0.00000000000E+00 0.  1.
       22    1    1    2    0    0 -0.31504978778E-05  0.61155436118E-05  0.27517043018E-03  0.27525640984E-03  0.00000000000E+00 0.  1.
</event>
<event>
 5   0  0.6221259E+05  0.9118800E+02  0.7546771E-02  0.1180000E+00
      -11   -1    0    0    0    0  0.00000000000E+00  0.00000000000E+00  0.34996269501E-01  0.35000000000E-01  0.51099999109E-03 0.  1.
       11   -1    0    0    0    0 -0.00000000000E+00 -0.00000000000E+00 -0.34996269501E-01  0.35000000000E-01  0.51099999109E-03 0. -1.
       22    1    1    2    0    0  0.38380093853E-03 -0.87923360333E-03  0.34986849475E-01  0.34999999873E-01  0.00000000000E+00 0.  1.
       22    1    1    2    0    0 -0.38380115729E-03  0.87923313653E-03 -0.34986849103E-01  0.34999999491E-01  0.00000000000E+00 0. -1.
       22    1    1    2    0    0  0.21875565150E-09  0.46680343235E-09 -0.37218055809E-09  0.63582847321E-09  0.00000000000E+00 0.  1.
</event>
<event>
 5   0  0.6221259E+05  0.9118800E+02  0.7546771E-02  0.1180000E+00
      -11   -1    0    0    0    0  0.00000000000E+00  0.00000000000E+00  0.34996269501E-01  0.35000000000E-01  0.51099999109E-03 0. -1.
       11   -1    0    0    0    0 -0.00000000000E+00 -0.00000000000E+00 -0.34996269501E-01  0.35000000000E-01  0.51099999109E-03 0.  1.
       22    1    1    2    0    0 -0.17192015640E-08 -0.32810782336E-08  0.25006344293E-07  0.25279208518E-07  0.00000000000E+00 0. -1.
       22    1    1    2    0    0  0.36992481620E-03  0.27116334936E-01 -0.22126167617E-01  0.34999996545E-01  0.00000000000E+00 0.  1.
       22    1    1    2    0    0 -0.36992309699E-03 -0.27116331655E-01  0.22126142610E-01  0.34999978176E-01  0.00000000000E+00 0. -1.
</event>
<event>
 5   0  0.6221259E+05  0.9118800E+02  0.7546771E-02  0.1180000E+00
      -11   -1    0    0    0    0  0.00000000000E+00  0.00000000000E+00  0.34996269501E-01  0.35000000000E-01  0.51099999109E-03 0. -1.
       11   -1    0    0    0    0 -0.00000000000E+00 -0.00000000000E+00 -0.34996269501E-01  0.35000000000E-01  0.51099999109E-03 0.  1.
       22    1    1    2    0    0 -0.48570110780E-02 -0.14714370064E-02  0.34630062661E-01  0.34999956048E-01  0.00000000000E+00 0. -1.
       22    1    1    2    0    0 -0.17989766388E-07  0.25245067123E-07  0.37903311727E-07  0.48965356617E-07  0.00000000000E+00 0. -1.
       22    1    1    2    0    0  0.48570290678E-02  0.14714117614E-02 -0.34630100564E-01  0.34999994986E-01  0.00000000000E+00 0.  1.
</event>
<event>
 5   0  0.6221259E+05  0.9118800E+02  0.7546771E-02  0.1180000E+00
      -11   -1    0    0    0    0  0.00000000000E+00  0.00000000000E+00  0.34996269501E-01  0.35000000000E-01  0.51099999109E-03 0. -1.
       11   -1    0    0    0    0 -0.00000000000E+00 -0.00000000000E+00 -0.34996269501E-01  0.35000000000E-01  0.51099999109E-03 0.  1.
       22    1    1    2    0    0 -0.10857970341E-02  0.72202551030E-04  0.34983044719E-01  0.34999965518E-01  0.00000000000E+00 0. -1.
       22    1    1    2    0    0  0.98148759467E-09 -0.39814679952E-10  0.34499104701E-07  0.34513086333E-07  0.00000000000E+00 0. -1.
       22    1    1    2    0    0  0.10857960526E-02 -0.72202511215E-04 -0.34983079218E-01  0.34999999969E-01  0.00000000000E+00 0.  1.
</event>
<event>
 5   0  0.6221259E+05  0.9118800E+02  0.7546771E-02  0.1180000E+00
      -11   -1    0    0    0    0  0.00000000000E+00  0.00000000000E+00  0.34996269501E-01  0.35000000000E-01  0.51099999109E-03 0.  1.
       11   -1    0    0    0    0 -0.00000000000E+00 -0.00000000000E+00 -0.34996269501E-01  0.35000000000E-01  0.51099999109E-03 0. -1.
       22    1    1    2    0    0 -0.23090728367E-05 -0.16522730563E-06  0.23281269609E-05  0.32831832989E-05  0.00000000000E+00 0. -1.
       22    1    1    2    0    0 -0.23492459284E-02 -0.12363450869E-02  0.34896285046E-01  0.34997117247E-01  0.00000000000E+00 0.  1.
       22    1    1    2    0    0  0.23515550012E-02  0.12365103142E-02 -0.34898613173E-01  0.34999599570E-01  0.00000000000E+00 0. -1.
</event>
<event>
 5   0  0.6221259E+05  0.9118800E+02  0.7546771E-02  0.1180000E+00
      -11   -1    0    0    0    0  0.00000000000E+00  0.00000000000E+00  0.34996269501E-01  0.35000000000E-01  0.51099999109E-03 0. -1.
       11   -1    0    0    0    0 -0.00000000000E+00 -0.00000000000E+00 -0.34996269501E-01  0.35000000000E-01  0.51099999109E-03 0.  1.
       22    1    1    2    0    0  0.57853858746E-07 -0.12400111409E-07  0.85833738958E-06  0.86037428255E-06  0.00000000000E+00 0.  1.
       22    1    1    2    0    0  0.34100495149E-02 -0.12623945985E-02 -0.34810594298E-01  0.34999993617E-01  0.00000000000E+00 0.  1.
       22    1    1    2    0    0 -0.34101073687E-02  0.12624069986E-02  0.34809735961E-01  0.34999146009E-01  0.00000000000E+00 0. -1.
</event>
<event>
 5   0  0.6221259E+05  0.9118800E+02  0.7546771E-02  0.1180000E+00
      -11   -1    0    0    0    0  0.00000000000E+00  0.00000000000E+00  0.34996269501E-01  0.35000000000E-01  0.51099999109E-03 0. -1.
       11   -1    0    0    0    0 -0.00000000000E+00 -0.00000000000E+00 -0.34996269501E-01  0.35000000000E-01  0.51099999109E-03 0.  1.
       22    1    1    2    0    0  0.46661311923E-03 -0.39092673199E-02 -0.34777454589E-01  0.34999592090E-01  0.00000000000E+00 0.  1.
       22    1    1    2    0    0 -0.45599620231E-03  0.39038903147E-02  0.34593134955E-01  0.34815704476E-01  0.00000000000E+00 0. -1.
       22    1    1    2    0    0 -0.10616916920E-04  0.53770051921E-05  0.18431963400E-03  0.18470343415E-03  0.00000000000E+00 0. -1.
</event>
<event>
 5   0  0.6221259E+05  0.9118800E+02  0.7546771E-02  0.1180000E+00
      -11   -1    0    0    0    0  0.00000000000E+00  0.00000000000E+00  0.34996269501E-01  0.35000000000E-01  0.51099999109E-03 0.  1.
       11   -1    0    0    0    0 -0.00000000000E+00 -0.00000000000E+00 -0.34996269501E-01  0.35000000000E-01  0.51099999109E-03 0. -1.
       22    1    1    2    0    0 -0.45574115546E-03  0.38519409789E-04  0.34997003389E-01  0.34999991856E-01  0.00000000000E+00 0.  1.
       22    1    1    2    0    0  0.45573853989E-03 -0.38517985640E-04 -0.34997011279E-01  0.34999999710E-01  0.00000000000E+00 0. -1.
       22    1    1    2    0    0  0.26155684141E-08 -0.14241490100E-08  0.78904666254E-08  0.84337928655E-08  0.00000000000E+00 0.  1.
</event>
<event>
 5   0  0.6221259E+05  0.9118800E+02  0.7546771E-02  0.1180000E+00
      -11   -1    0    0    0    0  0.00000000000E+00  0.00000000000E+00  0.34996269501E-01  0.35000000000E-01  0.51099999109E-03 0.  1.
       11   -1    0    0    0    0 -0.00000000000E+00 -0.00000000000E+00 -0.34996269501E-01  0.35000000000E-01  0.51099999109E-03 0. -1.
       22    1    1    2    0    0  0.18133476316E-02 -0.20575343711E-01  0.28255375676E-01  0.34999989329E-01  0.00000000000E+00 0.  1.
       22    1    1    2    0    0 -0.18133420099E-02  0.20575337947E-01 -0.28255388213E-01  0.34999995771E-01  0.00000000000E+00 0. -1.
       22    1    1    2    0    0 -0.56217279195E-08  0.57636814044E-08  0.12537806086E-07  0.14900349982E-07  0.00000000000E+00 0.  1.
</event>
<event>
 5   0  0.6221259E+05  0.9118800E+02  0.7546771E-02  0.1180000E+00
      -11   -1    0    0    0    0  0.00000000000E+00  0.00000000000E+00  0.34996269501E-01  0.35000000000E-01  0.51099999109E-03 0. -1.
       11   -1    0    0    0    0 -0.00000000000E+00 -0.00000000000E+00 -0.34996269501E-01  0.35000000000E-01  0.51099999109E-03 0.  1.
       22    1    1    2    0    0  0.19269762338E-02  0.10355693554E-03  0.34923223075E-01  0.34976498844E-01  0.00000000000E+00 0. -1.
       22    1    1    2    0    0 -0.33448244455E-05  0.25543462046E-05  0.23419576971E-04  0.23794728841E-04  0.00000000000E+00 0.  1.
       22    1    1    2    0    0 -0.19236314093E-02 -0.10611128174E-03 -0.34946642651E-01  0.34999706428E-01  0.00000000000E+00 0.  1.
</event>
<event>
 5   0  0.6221259E+05  0.9118800E+02  0.7546771E-02  0.1180000E+00
      -11   -1    0    0    0    0  0.00000000000E+00  0.00000000000E+00  0.34996269501E-01  0.35000000000E-01  0.51099999109E-03 0.  1.
       11   -1    0    0    0    0 -0.00000000000E+00 -0.00000000000E+00 -0.34996269501E-01  0.35000000000E-01  0.51099999109E-03 0.  1.
       22    1    1    2    0    0  0.27272768013E-04 -0.28029828154E-04  0.68710217003E-03  0.68821425966E-03  0.00000000000E+00 0. -1.
       22    1    1    2    0    0 -0.21536400065E-02 -0.30921128123E-02 -0.34793532250E-01  0.34996988633E-01  0.00000000000E+00 0.  1.
       22    1    1    2    0    0  0.21263672384E-02  0.31201426405E-02  0.34106430080E-01  0.34314797108E-01  0.00000000000E+00 0.  1.
</event>
<event>
 5   0  0.6221259E+05  0.9118800E+02  0.7546771E-02  0.1180000E+00
      -11   -1    0    0    0    0  0.00000000000E+00  0.00000000000E+00  0.34996269501E-01  0.35000000000E-01  0.51099999109E-03 0. -1.
       11   -1    0    0    0    0 -0.00000000000E+00 -0.00000000000E+00 -0.34996269501E-01  0.35000000000E-01  0.51099999109E-03 0. -1.
       22    1    1    2    0    0  0.00000000000E+00 -0.00000000000E+00  0.96598873694E-02  0.96589150559E-02  0.00000000000E+00 0. -1.
       22    1    1    2    0    0  0.39749762258E-02 -0.21060682583E-01 -0.25778137556E-01  0.33524098239E-01  0.00000000000E+00 0. -1.
       22    1    1    2    0    0 -0.39749762258E-02  0.21060682583E-01  0.16118250186E-01  0.26816986705E-01  0.00000000000E+00 0.  1.
</event>
<event>
 5   0  0.6221259E+05  0.9118800E+02  0.7546771E-02  0.1180000E+00
      -11   -1    0    0    0    0  0.00000000000E+00  0.00000000000E+00  0.34996269501E-01  0.35000000000E-01  0.51099999109E-03 0. -1.
       11   -1    0    0    0    0 -0.00000000000E+00 -0.00000000000E+00 -0.34996269501E-01  0.35000000000E-01  0.51099999109E-03 0.  1.
       22    1    1    2    0    0  0.24486074309E-06 -0.89778009289E-07  0.22061991283E-06  0.34159921018E-06  0.00000000000E+00 0. -1.
       22    1    1    2    0    0  0.38323595631E-04  0.62002307076E-03 -0.34994426891E-01  0.34999940154E-01  0.00000000000E+00 0.  1.
       22    1    1    2    0    0 -0.38568456374E-04 -0.61993329275E-03  0.34994206271E-01  0.34999718247E-01  0.00000000000E+00 0. -1.
</event>
<event>
 5   0  0.6221259E+05  0.9118800E+02  0.7546771E-02  0.1180000E+00
      -11   -1    0    0    0    0  0.00000000000E+00  0.00000000000E+00  0.34996269501E-01  0.35000000000E-01  0.51099999109E-03 0. -1.
       11   -1    0    0    0    0 -0.00000000000E+00 -0.00000000000E+00 -0.34996269501E-01  0.35000000000E-01  0.51099999109E-03 0.  1.
       22    1    1    2    0    0  0.15501766655E-01 -0.22118917624E-02  0.31293545674E-01  0.34992616870E-01  0.00000000000E+00 0. -1.
       22    1    1    2    0    0  0.98257919651E-05 -0.83854991176E-05 -0.83825947177E-04  0.84815400744E-04  0.00000000000E+00 0.  1.
       22    1    1    2    0    0 -0.15511592447E-01  0.22202772615E-02 -0.31209719727E-01  0.34922567729E-01  0.00000000000E+00 0.  1.
</event>
<event>
 5   0  0.6221259E+05  0.9118800E+02  0.7546771E-02  0.1180000E+00
      -11   -1    0    0    0    0  0.00000000000E+00  0.00000000000E+00  0.34996269501E-01  0.35000000000E-01  0.51099999109E-03 0. -1.
       11   -1    0    0    0    0 -0.00000000000E+00 -0.00000000000E+00 -0.34996269501E-01  0.35000000000E-01  0.51099999109E-03 0.  1.
       22    1    1    2    0    0  0.49913495238E-02 -0.95568723623E-02  0.33297924820E-01  0.34999988239E-01  0.00000000000E+00 0. -1.
       22    1    1    2    0    0 -0.70386984967E-08  0.38889169189E-08  0.11846226789E-07  0.14317822476E-07  0.00000000000E+00 0. -1.
       22    1    1    2    0    0 -0.49913424851E-02  0.95568684734E-02 -0.33297936666E-01  0.34999997443E-01  0.00000000000E+00 0.  1.
</event>
<event>
 5   0  0.6221259E+05  0.9118800E+02  0.7546771E-02  0.1180000E+00
      -11   -1    0    0    0    0  0.00000000000E+00  0.00000000000E+00  0.34996269501E-01  0.35000000000E-01  0.51099999109E-03 0.  1.
       11   -1    0    0    0    0 -0.00000000000E+00 -0.00000000000E+00 -0.34996269501E-01  0.35000000000E-01  0.51099999109E-03 0. -1.
       22    1    1    2    0    0 -0.60472383274E-03 -0.75992955453E-04 -0.34994622375E-01  0.34999929443E-01  0.00000000000E+00 0. -1.
       22    1    1    2    0    0 -0.20119795958E-05  0.21476739021E-05  0.41355319299E-04  0.41459896278E-04  0.00000000000E+00 0.  1.
       22    1    1    2    0    0  0.60673581234E-03  0.73845281551E-04  0.34953267056E-01  0.34958610661E-01  0.00000000000E+00 0.  1.
</event>
<event>
 5   0  0.6221259E+05  0.9118800E+02  0.7546771E-02  0.1180000E+00
      -11   -1    0    0    0    0  0.00000000000E+00  0.00000000000E+00  0.34996269501E-01  0.35000000000E-01  0.51099999109E-03 0. -1.
       11   -1    0    0    0    0 -0.00000000000E+00 -0.00000000000E+00 -0.34996269501E-01  0.35000000000E-01  0.51099999109E-03 0.  1.
       22    1    1    2    0    0  0.12547710966E-03 -0.29435337880E-02 -0.34875776769E-01  0.34999999156E-01  0.00000000000E+00 0.  1.
       22    1    1    2    0    0  0.97961934428E-09  0.93874411417E-09 -0.36061486765E-09  0.14039008706E-08  0.00000000000E+00 0.  1.
       22    1    1    2    0    0 -0.12547808927E-03  0.29435328493E-02  0.34875777130E-01  0.34999999440E-01  0.00000000000E+00 0. -1.
</event>
<event>
 5   0  0.6221259E+05  0.9118800E+02  0.7546771E-02  0.1180000E+00
      -11   -1    0    0    0    0  0.00000000000E+00  0.00000000000E+00  0.34996269501E-01  0.35000000000E-01  0.51099999109E-03 0. -1.
       11   -1    0    0    0    0 -0.00000000000E+00 -0.00000000000E+00 -0.34996269501E-01  0.35000000000E-01  0.51099999109E-03 0.  1.
       22    1    1    2    0    0 -0.23549681782E-02  0.12927038573E-02  0.99815875725E-02  0.10336781358E-01  0.00000000000E+00 0.  1.
       22    1    1    2    0    0  0.37798756089E-02  0.38977503772E-03 -0.34669464398E-01  0.34877086258E-01  0.00000000000E+00 0.  1.
       22    1    1    2    0    0 -0.14249074307E-02 -0.16824788950E-02  0.24687876825E-01  0.24786132384E-01  0.00000000000E+00 0. -1.
</event>
<event>
 5   0  0.6221259E+05  0.9118800E+02  0.7546771E-02  0.1180000E+00
      -11   -1    0    0    0    0  0.00000000000E+00  0.00000000000E+00  0.34996269501E-01  0.35000000000E-01  0.51099999109E-03 0.  1.
       11   -1    0    0    0    0 -0.00000000000E+00 -0.00000000000E+00 -0.34996269501E-01  0.35000000000E-01  0.51099999109E-03 0. -1.
       22    1    1    2    0    0  0.35483738076E-02 -0.14734999386E-02 -0.34785311241E-01  0.34996857528E-01  0.00000000000E+00 0. -1.
       22    1    1    2    0    0 -0.35502617596E-02  0.14614524960E-02  0.34777234428E-01  0.34988515779E-01  0.00000000000E+00 0.  1.
       22    1    1    2    0    0  0.18879519600E-05  0.12047442606E-04  0.80768129837E-05  0.14626692857E-04  0.00000000000E+00 0.  1.
</event>
<event>
 5   0  0.6221259E+05  0.9118800E+02  0.7546771E-02  0.1180000E+00
      -11   -1    0    0    0    0  0.00000000000E+00  0.00000000000E+00  0.34996269501E-01  0.35000000000E-01  0.51099999109E-03 0. -1.
       11   -1    0    0    0    0 -0.00000000000E+00 -0.00000000000E+00 -0.34996269501E-01  0.35000000000E-01  0.51099999109E-03 0. -1.
       22    1    1    2    0    0 -0.41135306870E-03 -0.11851223184E-03 -0.34997381476E-01  0.34999999524E-01  0.00000000000E+00 0. -1.
       22    1    1    2    0    0 -0.20250284807E-07  0.52323984955E-09  0.29514870912E-06  0.29584304675E-06  0.00000000000E+00 0. -1.
       22    1    1    2    0    0  0.41137331899E-03  0.11851170860E-03  0.34997086327E-01  0.34999704633E-01  0.00000000000E+00 0. -1.
</event>
<event>
 5   0  0.6221259E+05  0.9118800E+02  0.7546771E-02  0.1180000E+00
      -11   -1    0    0    0    0  0.00000000000E+00  0.00000000000E+00  0.34996269501E-01  0.35000000000E-01  0.51099999109E-03 0. -1.
       11   -1    0    0    0    0 -0.00000000000E+00 -0.00000000000E+00 -0.34996269501E-01  0.35000000000E-01  0.51099999109E-03 0. -1.
       22    1    1    2    0    0  0.11638228760E-06 -0.31410365346E-07  0.29457600934E-06  0.31828677823E-06  0.00000000000E+00 0.  1.
       22    1    1    2    0    0 -0.11638992195E-06  0.31412425778E-07  0.35000554349E-01  0.34999693565E-01  0.00000000000E+00 0. -1.
       22    1    1    2    0    0  0.76343540054E-11 -0.20604325060E-11 -0.35000848925E-01  0.34999988148E-01  0.00000000000E+00 0. -1.
</event>
<event>
 5   0  0.6221259E+05  0.9118800E+02  0.7546771E-02  0.1180000E+00
      -11   -1    0    0    0    0  0.00000000000E+00  0.00000000000E+00  0.34996269501E-01  0.35000000000E-01  0.51099999109E-03 0.  1.
       11   -1    0    0    0    0 -0.00000000000E+00 -0.00000000000E+00 -0.34996269501E-01  0.35000000000E-01  0.51099999109E-03 0. -1.
       22    1    1    2    0    0 -0.22299500818E-01  0.13227607118E-02 -0.26944048902E-01  0.34999988627E-01  0.00000000000E+00 0. -1.
       22    1    1    2    0    0 -0.51685699163E-08  0.32479810226E-08  0.83010843024E-07  0.83234989970E-07  0.00000000000E+00 0. -1.
       22    1    1    2    0    0  0.22299505987E-01 -0.13227639597E-02  0.26943965891E-01  0.34999928138E-01  0.00000000000E+00 0.  1.
</event>
<event>
 5   0  0.6221259E+05  0.9118800E+02  0.7546771E-02  0.1180000E+00
      -11   -1    0    0    0    0  0.00000000000E+00  0.00000000000E+00  0.34996269501E-01  0.35000000000E-01  0.51099999109E-03 0. -1.
       11   -1    0    0    0    0 -0.00000000000E+00 -0.00000000000E+00 -0.34996269501E-01  0.35000000000E-01  0.51099999109E-03 0. -1.
       22    1    1    2    0    0 -0.63534015872E-03 -0.13258631326E-02  0.34969100137E-01  0.34999993351E-01  0.00000000000E+00 0. -1.
       22    1    1    2    0    0  0.63534015383E-03  0.13258639268E-02 -0.34969106750E-01  0.34999999988E-01  0.00000000000E+00 0. -1.
       22    1    1    2    0    0  0.48892749362E-11 -0.79417689181E-09  0.66133584502E-08  0.66608746296E-08  0.00000000000E+00 0. -1.
</event>
<event>
 5   0  0.6221259E+05  0.9118800E+02  0.7546771E-02  0.1180000E+00
      -11   -1    0    0    0    0  0.00000000000E+00  0.00000000000E+00  0.34996269501E-01  0.35000000000E-01  0.51099999109E-03 0.  1.
       11   -1    0    0    0    0 -0.00000000000E+00 -0.00000000000E+00 -0.34996269501E-01  0.35000000000E-01  0.51099999109E-03 0. -1.
       22    1    1    2    0    0  0.10168073419E-02 -0.32461249725E-03 -0.73540995603E-03  0.12961860389E-02  0.00000000000E+00 0.  1.
       22    1    1    2    0    0 -0.81736501015E-03 -0.63250072019E-03 -0.33969458624E-01  0.33985177091E-01  0.00000000000E+00 0. -1.
       22    1    1    2    0    0 -0.19944233175E-03  0.95711321744E-03  0.34704868580E-01  0.34718636870E-01  0.00000000000E+00 0.  1.
</event>
<event>
 5   0  0.6221259E+05  0.9118800E+02  0.7546771E-02  0.1180000E+00
      -11   -1    0    0    0    0  0.00000000000E+00  0.00000000000E+00  0.34996269501E-01  0.35000000000E-01  0.51099999109E-03 0.  1.
       11   -1    0    0    0    0 -0.00000000000E+00 -0.00000000000E+00 -0.34996269501E-01  0.35000000000E-01  0.51099999109E-03 0. -1.
       22    1    1    2    0    0  0.23245244464E-01  0.26079722548E-01 -0.21190368341E-02  0.34999766220E-01  0.00000000000E+00 0. -1.
       22    1    1    2    0    0 -0.69720675857E-08 -0.14653562596E-07  0.51396742408E-06  0.51422354053E-06  0.00000000000E+00 0. -1.
       22    1    1    2    0    0 -0.23245237492E-01 -0.26079707894E-01  0.21185228667E-02  0.34999719556E-01  0.00000000000E+00 0.  1.
</event>
<event>
 5   0  0.6221259E+05  0.9118800E+02  0.7546771E-02  0.1180000E+00
      -11   -1    0    0    0    0  0.00000000000E+00  0.00000000000E+00  0.34996269501E-01  0.35000000000E-01  0.51099999109E-03 0.  1.
       11   -1    0    0    0    0 -0.00000000000E+00 -0.00000000000E+00 -0.34996269501E-01  0.35000000000E-01  0.51099999109E-03 0. -1.
       22    1    1    2    0    0  0.89498478270E-07  0.98185247083E-07  0.84515153894E-07  0.15745834876E-06  0.00000000000E+00 0. -1.
       22    1    1    2    0    0  0.75358000321E-04  0.37169432164E-02 -0.34801949843E-01  0.34999957979E-01  0.00000000000E+00 0. -1.
       22    1    1    2    0    0 -0.75447498799E-04 -0.37170414016E-02  0.34801865327E-01  0.34999884562E-01  0.00000000000E+00 0.  1.
</event>
<event>
 5   0  0.6221259E+05  0.9118800E+02  0.7546771E-02  0.1180000E+00
      -11   -1    0    0    0    0  0.00000000000E+00  0.00000000000E+00  0.34996269501E-01  0.35000000000E-01  0.51099999109E-03 0.  1.
       11   -1    0    0    0    0 -0.00000000000E+00 -0.00000000000E+00 -0.34996269501E-01  0.35000000000E-01  0.51099999109E-03 0.  1.
       22    1    1    2    0    0 -0.17094804529E-03  0.32038097216E-03  0.34998114513E-01  0.34999998381E-01  0.00000000000E+00 0.  1.
       22    1    1    2    0    0  0.17094751732E-03 -0.32037996472E-03 -0.34998115939E-01  0.34999999795E-01  0.00000000000E+00 0.  1.
       22    1    1    2    0    0  0.52797118272E-09 -0.10074399479E-08  0.14255174326E-08  0.18236745239E-08  0.00000000000E+00 0.  1.
</event>
<event>
 5   0  0.6221259E+05  0.9118800E+02  0.7546771E-02  0.1180000E+00
      -11   -1    0    0    0    0  0.00000000000E+00  0.00000000000E+00  0.34996269501E-01  0.35000000000E-01  0.51099999109E-03 0. -1.
       11   -1    0    0    0    0 -0.00000000000E+00 -0.00000000000E+00 -0.34996269501E-01  0.35000000000E-01  0.51099999109E-03 0.  1.
       22    1    1    2    0    0 -0.42048096806E-02  0.85945619056E-02  0.33666764860E-01  0.34999971070E-01  0.00000000000E+00 0. -1.
       22    1    1    2    0    0  0.42048097010E-02 -0.85945625690E-02 -0.33666794263E-01  0.34999999519E-01  0.00000000000E+00 0.  1.
       22    1    1    2    0    0 -0.20371316805E-10  0.66339325543E-09  0.29403257509E-07  0.29410747317E-07  0.00000000000E+00 0.  1.
</event>
<event>
 5   0  0.6221259E+05  0.9118800E+02  0.7546771E-02  0.1180000E+00
      -11   -1    0    0    0    0  0.00000000000E+00  0.00000000000E+00  0.34996269501E-01  0.35000000000E-01  0.51099999109E-03 0.  1.
       11   -1    0    0    0    0 -0.00000000000E+00 -0.00000000000E+00 -0.34996269501E-01  0.35000000000E-01  0.51099999109E-03 0. -1.
       22    1    1    2    0    0  0.15187345981E-02  0.37977891953E-02 -0.34760181350E-01  0.34999999501E-01  0.00000000000E+00 0. -1.
       22    1    1    2    0    0 -0.13736724868E-08  0.30721449677E-08  0.97205272570E-07  0.97263508400E-07  0.00000000000E+00 0. -1.
       22    1    1    2    0    0 -0.15187332244E-02 -0.37977922674E-02  0.34760084145E-01  0.34999903236E-01  0.00000000000E+00 0.  1.
</event>
<event>
 5   0  0.6221259E+05  0.9118800E+02  0.7546771E-02  0.1180000E+00
      -11   -1    0    0    0    0  0.00000000000E+00  0.00000000000E+00  0.34996269501E-01  0.35000000000E-01  0.51099999109E-03 0.  1.
       11   -1    0    0    0    0 -0.00000000000E+00 -0.00000000000E+00 -0.34996269501E-01  0.35000000000E-01  0.51099999109E-03 0. -1.
       22    1    1    2    0    0  0.18328104735E-02 -0.15532323530E-03 -0.34951181505E-01  0.34999548684E-01  0.00000000000E+00 0. -1.
       22    1    1    2    0    0 -0.18279739621E-02  0.14594186875E-03  0.34902402945E-01  0.34950543903E-01  0.00000000000E+00 0.  1.
       22    1    1    2    0    0 -0.48365114141E-05  0.93813665513E-05  0.48778560044E-04  0.49907412285E-04  0.00000000000E+00 0.  1.
</event>
<event>
 5   0  0.6221259E+05  0.9118800E+02  0.7546771E-02  0.1180000E+00
      -11   -1    0    0    0    0  0.00000000000E+00  0.00000000000E+00  0.34996269501E-01  0.35000000000E-01  0.51099999109E-03 0. -1.
       11   -1    0    0    0    0 -0.00000000000E+00 -0.00000000000E+00 -0.34996269501E-01  0.35000000000E-01  0.51099999109E-03 0. -1.
       22    1    1    2    0    0  0.38064428574E-08  0.69950820635E-08  0.13084103664E-07  0.15317112946E-07  0.00000000000E+00 0. -1.
       22    1    1    2    0    0  0.26548414609E-12  0.48787896155E-12 -0.35001150096E-01  0.34999998884E-01  0.00000000000E+00 0. -1.
       22    1    1    2    0    0 -0.38067083416E-08 -0.69955699425E-08  0.35001137012E-01  0.34999985799E-01  0.00000000000E+00 0. -1.
</event>
<event>
 5   0  0.6221259E+05  0.9118800E+02  0.7546771E-02  0.1180000E+00
      -11   -1    0    0    0    0  0.00000000000E+00  0.00000000000E+00  0.34996269501E-01  0.35000000000E-01  0.51099999109E-03 0.  1.
       11   -1    0    0    0    0 -0.00000000000E+00 -0.00000000000E+00 -0.34996269501E-01  0.35000000000E-01  0.51099999109E-03 0. -1.
       22    1    1    2    0    0 -0.29009547269E-02  0.62115644000E-02 -0.34322016948E-01  0.34999998829E-01  0.00000000000E+00 0. -1.
       22    1    1    2    0    0  0.29009585482E-02 -0.62115571262E-02  0.34321856581E-01  0.34999840594E-01  0.00000000000E+00 0.  1.
       22    1    1    2    0    0 -0.38213706333E-08 -0.72737820782E-08  0.16036720340E-06  0.16057755355E-06  0.00000000000E+00 0.  1.
</event>
<event>
 5   0  0.6221259E+05  0.9118800E+02  0.7546771E-02  0.1180000E+00
      -11   -1    0    0    0    0  0.00000000000E+00  0.00000000000E+00  0.34996269501E-01  0.35000000000E-01  0.51099999109E-03 0.  1.
       11   -1    0    0    0    0 -0.00000000000E+00 -0.00000000000E+00 -0.34996269501E-01  0.35000000000E-01  0.51099999109E-03 0.  1.
       22    1    1    2    0    0 -0.44606422605E-03 -0.10664368697E-02  0.34952755318E-01  0.34971865338E-01  0.00000000000E+00 0.  1.
       22    1    1    2    0    0  0.44632031417E-03  0.10658874886E-02 -0.34980901136E-01  0.34999982318E-01  0.00000000000E+00 0.  1.
       22    1    1    2    0    0 -0.25608811919E-06  0.54938112818E-06  0.28145817719E-04  0.28152343700E-04  0.00000000000E+00 0.  1.
</event>
<event>
 5   0  0.6221259E+05  0.9118800E+02  0.7546771E-02  0.1180000E+00
      -11   -1    0    0    0    0  0.00000000000E+00  0.00000000000E+00  0.34996269501E-01  0.35000000000E-01  0.51099999109E-03 0.  1.
       11   -1    0    0    0    0 -0.00000000000E+00 -0.00000000000E+00 -0.34996269501E-01  0.35000000000E-01  0.51099999109E-03 0. -1.
       22    1    1    2    0    0 -0.31829311960E-09  0.17219114929E-09  0.37150078677E-08  0.37325920965E-08  0.00000000000E+00 0.  1.
       22    1    1    2    0    0  0.10771700863E-01 -0.10528496010E-01 -0.31593056583E-01  0.34999999885E-01  0.00000000000E+00 0. -1.
       22    1    1    2    0    0 -0.10771700545E-01  0.10528495838E-01  0.31593052868E-01  0.34999996382E-01  0.00000000000E+00 0.  1.
</event>
<event>
 5   0  0.6221259E+05  0.9118800E+02  0.7546771E-02  0.1180000E+00
      -11   -1    0    0    0    0  0.00000000000E+00  0.00000000000E+00  0.34996269501E-01  0.35000000000E-01  0.51099999109E-03 0. -1.
       11   -1    0    0    0    0 -0.00000000000E+00 -0.00000000000E+00 -0.34996269501E-01  0.35000000000E-01  0.51099999109E-03 0.  1.
       22    1    1    2    0    0 -0.28827866982E-02 -0.20824609666E-02 -0.34818220560E-01  0.34999365506E-01  0.00000000000E+00 0.  1.
       22    1    1    2    0    0  0.28887917333E-02  0.20786464273E-02  0.34788803437E-01  0.34970369361E-01  0.00000000000E+00 0. -1.
       22    1    1    2    0    0 -0.60050351702E-05  0.38145392691E-05  0.29417123271E-04  0.30265133385E-04  0.00000000000E+00 0. -1.
</event>
<event>
 5   0  0.6221259E+05  0.9118800E+02  0.7546771E-02  0.1180000E+00
      -11   -1    0    0    0    0  0.00000000000E+00  0.00000000000E+00  0.34996269501E-01  0.35000000000E-01  0.51099999109E-03 0. -1.
       11   -1    0    0    0    0 -0.00000000000E+00 -0.00000000000E+00 -0.34996269501E-01  0.35000000000E-01  0.51099999109E-03 0.  1.
       22    1    1    2    0    0  0.32410695825E-06 -0.20016758824E-06  0.36878387093E-05  0.37074609545E-05  0.00000000000E+00 0.  1.
       22    1    1    2    0    0 -0.21106116630E-02 -0.30196767783E-02  0.34801851177E-01  0.34996313732E-01  0.00000000000E+00 0. -1.
       22    1    1    2    0    0  0.21102875560E-02  0.30198769459E-02 -0.34805539016E-01  0.34999978807E-01  0.00000000000E+00 0.  1.
</event>
<event>
 5   0  0.6221259E+05  0.9118800E+02  0.7546771E-02  0.1180000E+00
      -11   -1    0    0    0    0  0.00000000000E+00  0.00000000000E+00  0.34996269501E-01  0.35000000000E-01  0.51099999109E-03 0. -1.
       11   -1    0    0    0    0 -0.00000000000E+00 -0.00000000000E+00 -0.34996269501E-01  0.35000000000E-01  0.51099999109E-03 0.  1.
       22    1    1    2    0    0  0.33111155712E-01 -0.51113865695E-02  0.10078039700E-01  0.34986308600E-01  0.00000000000E+00 0. -1.
       22    1    1    2    0    0 -0.33110965741E-01  0.51108754039E-02 -0.10099486165E-01  0.34992238003E-01  0.00000000000E+00 0.  1.
       22    1    1    2    0    0 -0.18997153285E-06  0.51116567692E-06  0.21446464838E-04  0.21453396784E-04  0.00000000000E+00 0. -1.
</event>
<event>
 5   0  0.6221259E+05  0.9118800E+02  0.7546771E-02  0.1180000E+00
      -11   -1    0    0    0    0  0.00000000000E+00  0.00000000000E+00  0.34996269501E-01  0.35000000000E-01  0.51099999109E-03 0.  1.
       11   -1    0    0    0    0 -0.00000000000E+00 -0.00000000000E+00 -0.34996269501E-01  0.35000000000E-01  0.51099999109E-03 0. -1.
       22    1    1    2    0    0 -0.73877578738E-04 -0.26915968594E-04  0.70572851280E-03  0.71009513432E-03  0.00000000000E+00 0.  1.
       22    1    1    2    0    0 -0.19241296685E-02 -0.59231142347E-03 -0.34936912120E-01  0.34994870142E-01  0.00000000000E+00 0. -1.
       22    1    1    2    0    0  0.19980072473E-02  0.61922739206E-03  0.34231183607E-01  0.34295034723E-01  0.00000000000E+00 0.  1.
</event>
<event>
 5   0  0.6221259E+05  0.9118800E+02  0.7546771E-02  0.1180000E+00
      -11   -1    0    0    0    0  0.00000000000E+00  0.00000000000E+00  0.34996269501E-01  0.35000000000E-01  0.51099999109E-03 0. -1.
       11   -1    0    0    0    0 -0.00000000000E+00 -0.00000000000E+00 -0.34996269501E-01  0.35000000000E-01  0.51099999109E-03 0.  1.
       22    1    1    2    0    0  0.19850693111E-01  0.10201300756E-01 -0.26920658705E-01  0.34969106640E-01  0.00000000000E+00 0.  1.
       22    1    1    2    0    0  0.13738871477E-04 -0.37993640970E-04 -0.23667185618E-04  0.46823167543E-04  0.00000000000E+00 0. -1.
       22    1    1    2    0    0 -0.19864431983E-01 -0.10163307115E-01  0.26944325891E-01  0.34984070192E-01  0.00000000000E+00 0. -1.
</event>
<event>
 5   0  0.6221259E+05  0.9118800E+02  0.7546771E-02  0.1180000E+00
      -11   -1    0    0    0    0  0.00000000000E+00  0.00000000000E+00  0.34996269501E-01  0.35000000000E-01  0.51099999109E-03 0.  1.
       11   -1    0    0    0    0 -0.00000000000E+00 -0.00000000000E+00 -0.34996269501E-01  0.35000000000E-01  0.51099999109E-03 0.  1.
       22    1    1    2    0    0  0.16371121020E-03 -0.48837874743E-03 -0.34996201404E-01  0.34999991827E-01  0.00000000000E+00 0.  1.
       22    1    1    2    0    0  0.36968076984E-07  0.16087027232E-06  0.73371725436E-06  0.75205511273E-06  0.00000000000E+00 0.  1.
       22    1    1    2    0    0 -0.16374817827E-03  0.48821787716E-03  0.34995467687E-01  0.34999256118E-01  0.00000000000E+00 0.  1.
</event>
<event>
 5   0  0.6221259E+05  0.9118800E+02  0.7546771E-02  0.1180000E+00
      -11   -1    0    0    0    0  0.00000000000E+00  0.00000000000E+00  0.34996269501E-01  0.35000000000E-01  0.51099999109E-03 0.  1.
       11   -1    0    0    0    0 -0.00000000000E+00 -0.00000000000E+00 -0.34996269501E-01  0.35000000000E-01  0.51099999109E-03 0. -1.
       22    1    1    2    0    0 -0.15292684679E-02 -0.81215416743E-03 -0.34777612314E-01  0.34820691761E-01  0.00000000000E+00 0. -1.
       22    1    1    2    0    0  0.26112258137E-02  0.98647347616E-03  0.32798201050E-01  0.32916768102E-01  0.00000000000E+00 0.  1.
       22    1    1    2    0    0 -0.10819573459E-02 -0.17431930873E-03  0.19794112636E-02  0.22625401367E-02  0.00000000000E+00 0. -1.
</event>
<event>
 5   0  0.6221259E+05  0.9118800E+02  0.7546771E-02  0.1180000E+00
      -11   -1    0    0    0    0  0.00000000000E+00  0.00000000000E+00  0.34996269501E-01  0.35000000000E-01  0.51099999109E-03 0.  1.
       11   -1    0    0    0    0 -0.00000000000E+00 -0.00000000000E+00 -0.34996269501E-01  0.35000000000E-01  0.51099999109E-03 0. -1.
       22    1    1    2    0    0  0.11813958775E-02  0.29837089877E-02 -0.34521596783E-01  0.34670432071E-01  0.00000000000E+00 0. -1.
       22    1    1    2    0    0 -0.15153932234E-02 -0.37647612730E-02  0.34170092227E-01  0.34410246248E-01  0.00000000000E+00 0.  1.
       22    1    1    2    0    0  0.33399734594E-03  0.78105228522E-03  0.35150455594E-03  0.91932168048E-03  0.00000000000E+00 0. -1.
</event>
<event>
 5   0  0.6221259E+05  0.9118800E+02  0.7546771E-02  0.1180000E+00
      -11   -1    0    0    0    0  0.00000000000E+00  0.00000000000E+00  0.34996269501E-01  0.35000000000E-01  0.51099999109E-03 0.  1.
       11   -1    0    0    0    0 -0.00000000000E+00 -0.00000000000E+00 -0.34996269501E-01  0.35000000000E-01  0.51099999109E-03 0. -1.
       22    1    1    2    0    0  0.19201502261E-04 -0.11508889605E-05 -0.84989549640E-06  0.19254728168E-04  0.00000000000E+00 0.  1.
       22    1    1    2    0    0  0.90852765525E-03 -0.41164718062E-02 -0.34734759624E-01  0.34989631161E-01  0.00000000000E+00 0. -1.
       22    1    1    2    0    0 -0.92772915751E-03  0.41176226951E-02  0.34735609519E-01  0.34991114111E-01  0.00000000000E+00 0.  1.
</event>
<event>
 5   0  0.6221259E+05  0.9118800E+02  0.7546771E-02  0.1180000E+00
      -11   -1    0    0    0    0  0.00000000000E+00  0.00000000000E+00  0.34996269501E-01  0.35000000000E-01  0.51099999109E-03 0. -1.
       11   -1    0    0    0    0 -0.00000000000E+00 -0.00000000000E+00 -0.34996269501E-01  0.35000000000E-01  0.51099999109E-03 0.  1.
       22    1    1    2    0    0  0.20221267840E-03 -0.28839237403E-02 -0.71936183631E-02  0.77528092496E-02  0.00000000000E+00 0.  1.
       22    1    1    2    0    0 -0.61141569552E-02  0.10597126582E-01  0.32720498158E-01  0.34932978785E-01  0.00000000000E+00 0. -1.
       22    1    1    2    0    0  0.59119442768E-02 -0.77132028412E-02 -0.25526879795E-01  0.27314211965E-01  0.00000000000E+00 0.  1.
</event>
<event>
 5   0  0.6221259E+05  0.9118800E+02  0.7546771E-02  0.1180000E+00
      -11   -1    0    0    0    0  0.00000000000E+00  0.00000000000E+00  0.34996269501E-01  0.35000000000E-01  0.51099999109E-03 0.  1.
       11   -1    0    0    0    0 -0.00000000000E+00 -0.00000000000E+00 -0.34996269501E-01  0.35000000000E-01  0.51099999109E-03 0.  1.
       22    1    1    2    0    0  0.79544474774E-06 -0.95074562641E-06  0.13090543939E-05  0.18028513525E-05  0.00000000000E+00 0.  1.
       22    1    1    2    0    0  0.65230064947E-10 -0.77965439002E-10 -0.35001762105E-01  0.34999753128E-01  0.00000000000E+00 0.  1.
       22    1    1    2    0    0 -0.79550997781E-06  0.95082359185E-06  0.35000453051E-01  0.34998444021E-01  0.00000000000E+00 0.  1.
</event>
<event>
 5   0  0.6221259E+05  0.9118800E+02  0.7546771E-02  0.1180000E+00
      -11   -1    0    0    0    0  0.00000000000E+00  0.00000000000E+00  0.34996269501E-01  0.35000000000E-01  0.51099999109E-03 0. -1.
       11   -1    0    0    0    0 -0.00000000000E+00 -0.00000000000E+00 -0.34996269501E-01  0.35000000000E-01  0.51099999109E-03 0.  1.
       22    1    1    2    0    0 -0.71248508980E-03 -0.17984024649E-02 -0.34946500189E-01  0.34999996598E-01  0.00000000000E+00 0.  1.
       22    1    1    2    0    0  0.71218821395E-03  0.17981564943E-02  0.34942746815E-01  0.34996230280E-01  0.00000000000E+00 0. -1.
       22    1    1    2    0    0  0.29687585705E-06  0.24597057617E-06  0.37533738343E-05  0.37731223063E-05  0.00000000000E+00 0.  1.
</event>
<event>
 5   0  0.6221259E+05  0.9118800E+02  0.7546771E-02  0.1180000E+00
      -11   -1    0    0    0    0  0.00000000000E+00  0.00000000000E+00  0.34996269501E-01  0.35000000000E-01  0.51099999109E-03 0. -1.
       11   -1    0    0    0    0 -0.00000000000E+00 -0.00000000000E+00 -0.34996269501E-01  0.35000000000E-01  0.51099999109E-03 0. -1.
       22    1    1    2    0    0 -0.35692905256E-12 -0.14075809189E-11 -0.35001542623E-01  0.34999995379E-01  0.00000000000E+00 0. -1.
       22    1    1    2    0    0  0.47338964145E-08  0.18668534313E-07  0.35001527182E-01  0.34999979937E-01  0.00000000000E+00 0. -1.
       22    1    1    2    0    0 -0.47335394855E-08 -0.18667126732E-07  0.15440911522E-07  0.24683795598E-07  0.00000000000E+00 0.  1.
</event>
<event>
 5   0  0.6221259E+05  0.9118800E+02  0.7546771E-02  0.1180000E+00
      -11   -1    0    0    0    0  0.00000000000E+00  0.00000000000E+00  0.34996269501E-01  0.35000000000E-01  0.51099999109E-03 0.  1.
       11   -1    0    0    0    0 -0.00000000000E+00 -0.00000000000E+00 -0.34996269501E-01  0.35000000000E-01  0.51099999109E-03 0. -1.
       22    1    1    2    0    0 -0.32791395434E-02 -0.20264440294E-01 -0.27436391660E-01  0.34265958091E-01  0.00000000000E+00 0. -1.
       22    1    1    2    0    0 -0.13512489018E-03  0.34469239193E-03 -0.87445246001E-03  0.94959922379E-03  0.00000000000E+00 0.  1.
       22    1    1    2    0    0  0.34142644336E-02  0.19919747902E-01  0.28310844120E-01  0.34784442685E-01  0.00000000000E+00 0.  1.
</event>
<event>
 5   0  0.6221259E+05  0.9118800E+02  0.7546771E-02  0.1180000E+00
      -11   -1    0    0    0    0  0.00000000000E+00  0.00000000000E+00  0.34996269501E-01  0.35000000000E-01  0.51099999109E-03 0. -1.
       11   -1    0    0    0    0 -0.00000000000E+00 -0.00000000000E+00 -0.34996269501E-01  0.35000000000E-01  0.51099999109E-03 0.  1.
       22    1    1    2    0    0 -0.24979979237E-01 -0.14794521681E-01 -0.19543700542E-01  0.34997620852E-01  0.00000000000E+00 0.  1.
       22    1    1    2    0    0  0.24980966175E-01  0.14795464988E-01  0.19535686290E-01  0.34994249443E-01  0.00000000000E+00 0. -1.
       22    1    1    2    0    0 -0.98693817959E-06 -0.94330671512E-06  0.80142516477E-05  0.81297050378E-05  0.00000000000E+00 0.  1.
</event>
<event>
 5   0  0.6221259E+05  0.9118800E+02  0.7546771E-02  0.1180000E+00
      -11   -1    0    0    0    0  0.00000000000E+00  0.00000000000E+00  0.34996269501E-01  0.35000000000E-01  0.51099999109E-03 0.  1.
       11   -1    0    0    0    0 -0.00000000000E+00 -0.00000000000E+00 -0.34996269501E-01  0.35000000000E-01  0.51099999109E-03 0. -1.
       22    1    1    2    0    0 -0.17823764767E-02  0.11790293925E-01  0.32800607721E-01  0.34900827548E-01  0.00000000000E+00 0.  1.
       22    1    1    2    0    0  0.68561356858E-03 -0.57113229164E-03 -0.53535945143E-02  0.54274517302E-02  0.00000000000E+00 0.  1.
       22    1    1    2    0    0  0.10967629081E-02 -0.11219161633E-01 -0.27447013206E-01  0.29671720721E-01  0.00000000000E+00 0. -1.
</event>
<event>
 5   0  0.6221259E+05  0.9118800E+02  0.7546771E-02  0.1180000E+00
      -11   -1    0    0    0    0  0.00000000000E+00  0.00000000000E+00  0.34996269501E-01  0.35000000000E-01  0.51099999109E-03 0. -1.
       11   -1    0    0    0    0 -0.00000000000E+00 -0.00000000000E+00 -0.34996269501E-01  0.35000000000E-01  0.51099999109E-03 0.  1.
       22    1    1    2    0    0 -0.14572252578E-01  0.21002928927E-01 -0.22681509563E-01  0.34174909579E-01  0.00000000000E+00 0.  1.
       22    1    1    2    0    0  0.83498976342E-02 -0.17935440323E-01  0.20647215098E-01  0.28595599336E-01  0.00000000000E+00 0. -1.
       22    1    1    2    0    0  0.62223549434E-02 -0.30674886035E-02  0.20342944651E-02  0.72294910848E-02  0.00000000000E+00 0. -1.
</event>
<event>
 5   0  0.6221259E+05  0.9118800E+02  0.7546771E-02  0.1180000E+00
      -11   -1    0    0    0    0  0.00000000000E+00  0.00000000000E+00  0.34996269501E-01  0.35000000000E-01  0.51099999109E-03 0.  1.
       11   -1    0    0    0    0 -0.00000000000E+00 -0.00000000000E+00 -0.34996269501E-01  0.35000000000E-01  0.51099999109E-03 0. -1.
       22    1    1    2    0    0  0.53325847447E-05 -0.73550764879E-04  0.10847267256E-03  0.13116581935E-03  0.00000000000E+00 0. -1.
       22    1    1    2    0    0  0.11800690882E-02 -0.73918442528E-05  0.34860106499E-01  0.34880075155E-01  0.00000000000E+00 0.  1.
       22    1    1    2    0    0 -0.11854016730E-02  0.80942609132E-04 -0.34968579172E-01  0.34988759025E-01  0.00000000000E+00 0. -1.
</event>
<event>
 5   0  0.6221259E+05  0.9118800E+02  0.7546771E-02  0.1180000E+00
      -11   -1    0    0    0    0  0.00000000000E+00  0.00000000000E+00  0.34996269501E-01  0.35000000000E-01  0.51099999109E-03 0.  1.
       11   -1    0    0    0    0 -0.00000000000E+00 -0.00000000000E+00 -0.34996269501E-01  0.35000000000E-01  0.51099999109E-03 0. -1.
       22    1    1    2    0    0 -0.10084278515E-01 -0.85065991070E-03 -0.33504592499E-01  0.34999628769E-01  0.00000000000E+00 0. -1.
       22    1    1    2    0    0  0.10083966017E-01  0.85287007351E-03  0.33500887388E-01  0.34996045688E-01  0.00000000000E+00 0.  1.
       22    1    1    2    0    0  0.31249817300E-06 -0.22101628068E-05  0.37051111498E-05  0.43255431304E-05  0.00000000000E+00 0.  1.
</event>
<event>
 5   0  0.6221259E+05  0.9118800E+02  0.7546771E-02  0.1180000E+00
      -11   -1    0    0    0    0  0.00000000000E+00  0.00000000000E+00  0.34996269501E-01  0.35000000000E-01  0.51099999109E-03 0.  1.
       11   -1    0    0    0    0 -0.00000000000E+00 -0.00000000000E+00 -0.34996269501E-01  0.35000000000E-01  0.51099999109E-03 0. -1.
       22    1    1    2    0    0 -0.20893082272E-01  0.57526957754E-04 -0.28069284942E-01  0.34991555457E-01  0.00000000000E+00 0. -1.
       22    1    1    2    0    0 -0.16791990036E-05  0.25139730300E-05  0.79820346955E-04  0.79877578567E-04  0.00000000000E+00 0.  1.
       22    1    1    2    0    0  0.20894761471E-01 -0.60040930784E-04  0.27989464595E-01  0.34928566964E-01  0.00000000000E+00 0.  1.
</event>
<event>
 5   0  0.6221259E+05  0.9118800E+02  0.7546771E-02  0.1180000E+00
      -11   -1    0    0    0    0  0.00000000000E+00  0.00000000000E+00  0.34996269501E-01  0.35000000000E-01  0.51099999109E-03 0. -1.
       11   -1    0    0    0    0 -0.00000000000E+00 -0.00000000000E+00 -0.34996269501E-01  0.35000000000E-01  0.51099999109E-03 0.  1.
       22    1    1    2    0    0 -0.46118444347E-02 -0.11744334395E-02  0.34516839848E-01  0.34843372915E-01  0.00000000000E+00 0. -1.
       22    1    1    2    0    0  0.21392534684E-03 -0.34394981267E-06  0.10395528523E-03  0.23784632360E-03  0.00000000000E+00 0.  1.
       22    1    1    2    0    0  0.43979190879E-02  0.11747773893E-02 -0.34620795133E-01  0.34918780762E-01  0.00000000000E+00 0.  1.
</event>
<event>
 5   0  0.6221259E+05  0.9118800E+02  0.7546771E-02  0.1180000E+00
      -11   -1    0    0    0    0  0.00000000000E+00  0.00000000000E+00  0.34996269501E-01  0.35000000000E-01  0.51099999109E-03 0.  1.
       11   -1    0    0    0    0 -0.00000000000E+00 -0.00000000000E+00 -0.34996269501E-01  0.35000000000E-01  0.51099999109E-03 0.  1.
       22    1    1    2    0    0 -0.59010943330E-04  0.73148356783E-05  0.17281405152E-02  0.17291632192E-02  0.00000000000E+00 0.  1.
       22    1    1    2    0    0 -0.47737821989E-03  0.10432169659E-03  0.33267409628E-01  0.33270998126E-01  0.00000000000E+00 0.  1.
       22    1    1    2    0    0  0.53638916322E-03 -0.11163653227E-03 -0.34995550143E-01  0.34999838655E-01  0.00000000000E+00 0.  1.
</event>
<event>
 5   0  0.6221259E+05  0.9118800E+02  0.7546771E-02  0.1180000E+00
      -11   -1    0    0    0    0  0.00000000000E+00  0.00000000000E+00  0.34996269501E-01  0.35000000000E-01  0.51099999109E-03 0. -1.
       11   -1    0    0    0    0 -0.00000000000E+00 -0.00000000000E+00 -0.34996269501E-01  0.35000000000E-01  0.51099999109E-03 0.  1.
       22    1    1    2    0    0 -0.22028070009E-01  0.23889148235E-01 -0.11516659548E-01  0.34475508972E-01  0.00000000000E+00 0.  1.
       22    1    1    2    0    0  0.21833177313E-01 -0.23826892191E-01  0.12402399181E-01  0.34615429053E-01  0.00000000000E+00 0. -1.
       22    1    1    2    0    0  0.19489269624E-03 -0.62256043538E-04 -0.88573963261E-03  0.90906197522E-03  0.00000000000E+00 0. -1.
</event>
<event>
 5   0  0.6221259E+05  0.9118800E+02  0.7546771E-02  0.1180000E+00
      -11   -1    0    0    0    0  0.00000000000E+00  0.00000000000E+00  0.34996269501E-01  0.35000000000E-01  0.51099999109E-03 0.  1.
       11   -1    0    0    0    0 -0.00000000000E+00 -0.00000000000E+00 -0.34996269501E-01  0.35000000000E-01  0.51099999109E-03 0. -1.
       22    1    1    2    0    0  0.88172656353E-02 -0.12631349233E-02  0.32992223230E-01  0.34173476217E-01  0.00000000000E+00 0.  1.
       22    1    1    2    0    0 -0.45771885561E-04 -0.10287711746E-03  0.84077921953E-03  0.84828560214E-03  0.00000000000E+00 0. -1.
       22    1    1    2    0    0 -0.87714937498E-02  0.13660120408E-02 -0.33833002449E-01  0.34978238181E-01  0.00000000000E+00 0. -1.
</event>
<event>
 5   0  0.6221259E+05  0.9118800E+02  0.7546771E-02  0.1180000E+00
      -11   -1    0    0    0    0  0.00000000000E+00  0.00000000000E+00  0.34996269501E-01  0.35000000000E-01  0.51099999109E-03 0.  1.
       11   -1    0    0    0    0 -0.00000000000E+00 -0.00000000000E+00 -0.34996269501E-01  0.35000000000E-01  0.51099999109E-03 0.  1.
       22    1    1    2    0    0 -0.45842304372E-07  0.83381902857E-08  0.35001614241E-01  0.34999693535E-01  0.00000000000E+00 0.  1.
       22    1    1    2    0    0  0.45838603338E-07 -0.83375171099E-08  0.30468566053E-06  0.30822725947E-06  0.00000000000E+00 0.  1.
       22    1    1    2    0    0  0.37010340011E-11 -0.67317570915E-12 -0.35001918927E-01  0.34999998238E-01  0.00000000000E+00 0.  1.
</event>
<event>
 5   0  0.6221259E+05  0.9118800E+02  0.7546771E-02  0.1180000E+00
      -11   -1    0    0    0    0  0.00000000000E+00  0.00000000000E+00  0.34996269501E-01  0.35000000000E-01  0.51099999109E-03 0. -1.
       11   -1    0    0    0    0 -0.00000000000E+00 -0.00000000000E+00 -0.34996269501E-01  0.35000000000E-01  0.51099999109E-03 0.  1.
       22    1    1    2    0    0  0.14293419089E-02  0.21626648572E-03 -0.34966999317E-01  0.34996868870E-01  0.00000000000E+00 0.  1.
       22    1    1    2    0    0 -0.76932894995E-05 -0.12266156043E-04  0.12470091108E-04  0.19108858146E-04  0.00000000000E+00 0.  1.
       22    1    1    2    0    0 -0.14216486194E-02 -0.20400032968E-03  0.34954529226E-01  0.34984022272E-01  0.00000000000E+00 0. -1.
</event>
<event>
 5   0  0.6221259E+05  0.9118800E+02  0.7546771E-02  0.1180000E+00
      -11   -1    0    0    0    0  0.00000000000E+00  0.00000000000E+00  0.34996269501E-01  0.35000000000E-01  0.51099999109E-03 0.  1.
       11   -1    0    0    0    0 -0.00000000000E+00 -0.00000000000E+00 -0.34996269501E-01  0.35000000000E-01  0.51099999109E-03 0.  1.
       22    1    1    2    0    0 -0.41796802159E-06  0.49519232116E-06  0.21473143126E-04  0.21482918526E-04  0.00000000000E+00 0. -1.
       22    1    1    2    0    0 -0.33195470422E-10  0.39328707464E-10 -0.35001820643E-01  0.34999995669E-01  0.00000000000E+00 0.  1.
       22    1    1    2    0    0  0.41800121706E-06 -0.49523164987E-06  0.34980347500E-01  0.34978521412E-01  0.00000000000E+00 0.  1.
</event>
<event>
 5   0  0.6221259E+05  0.9118800E+02  0.7546771E-02  0.1180000E+00
      -11   -1    0    0    0    0  0.00000000000E+00  0.00000000000E+00  0.34996269501E-01  0.35000000000E-01  0.51099999109E-03 0.  1.
       11   -1    0    0    0    0 -0.00000000000E+00 -0.00000000000E+00 -0.34996269501E-01  0.35000000000E-01  0.51099999109E-03 0.  1.
       22    1    1    2    0    0 -0.62570553963E-07  0.28977565524E-06  0.21499210403E-06  0.36620569273E-06  0.00000000000E+00 0. -1.
       22    1    1    2    0    0  0.60034774067E-03 -0.89707267885E-04 -0.34994661094E-01  0.34999925284E-01  0.00000000000E+00 0.  1.
       22    1    1    2    0    0 -0.60028517012E-03  0.89417492230E-04  0.34994446102E-01  0.34999708510E-01  0.00000000000E+00 0.  1.
</event>
<event>
 5   0  0.6221259E+05  0.9118800E+02  0.7546771E-02  0.1180000E+00
      -11   -1    0    0    0    0  0.00000000000E+00  0.00000000000E+00  0.34996269501E-01  0.35000000000E-01  0.51099999109E-03 0.  1.
       11   -1    0    0    0    0 -0.00000000000E+00 -0.00000000000E+00 -0.34996269501E-01  0.35000000000E-01  0.51099999109E-03 0.  1.
       22    1    1    2    0    0  0.48676097098E-03  0.63370720504E-03  0.57924793672E-02  0.58473359989E-02  0.00000000000E+00 0. -1.
       22    1    1    2    0    0  0.12101744361E-03 -0.73598086771E-03  0.29172609925E-01  0.29182143220E-01  0.00000000000E+00 0.  1.
       22    1    1    2    0    0 -0.60777841458E-03  0.10227366267E-03 -0.34965089292E-01  0.34970520781E-01  0.00000000000E+00 0.  1.
</event>
<event>
 5   0  0.6221259E+05  0.9118800E+02  0.7546771E-02  0.1180000E+00
      -11   -1    0    0    0    0  0.00000000000E+00  0.00000000000E+00  0.34996269501E-01  0.35000000000E-01  0.51099999109E-03 0.  1.
       11   -1    0    0    0    0 -0.00000000000E+00 -0.00000000000E+00 -0.34996269501E-01  0.35000000000E-01  0.51099999109E-03 0. -1.
       22    1    1    2    0    0  0.98419652720E-02  0.29512519824E-01 -0.13237088596E-01  0.33809371797E-01  0.00000000000E+00 0. -1.
       22    1    1    2    0    0 -0.10004429490E-01 -0.29857695695E-01  0.14647713334E-01  0.34729326333E-01  0.00000000000E+00 0.  1.
       22    1    1    2    0    0  0.16246421763E-03  0.34517587083E-03 -0.14106247381E-02  0.14613018701E-02  0.00000000000E+00 0. -1.
</event>
<event>
 5   0  0.6221259E+05  0.9118800E+02  0.7546771E-02  0.1180000E+00
      -11   -1    0    0    0    0  0.00000000000E+00  0.00000000000E+00  0.34996269501E-01  0.35000000000E-01  0.51099999109E-03 0. -1.
       11   -1    0    0    0    0 -0.00000000000E+00 -0.00000000000E+00 -0.34996269501E-01  0.35000000000E-01  0.51099999109E-03 0.  1.
       22    1    1    2    0    0 -0.10376805146E-01  0.15174758171E-01 -0.29783360823E-01  0.34999999322E-01  0.00000000000E+00 0.  1.
       22    1    1    2    0    0  0.10376806683E-01 -0.15174758355E-01  0.29783358693E-01  0.34999998045E-01  0.00000000000E+00 0. -1.
       22    1    1    2    0    0 -0.15374814924E-08  0.18483190489E-09  0.21302176501E-08  0.26335981868E-08  0.00000000000E+00 0.  1.
</event>
<event>
 5   0  0.6221259E+05  0.9118800E+02  0.7546771E-02  0.1180000E+00
      -11   -1    0    0    0    0  0.00000000000E+00  0.00000000000E+00  0.34996269501E-01  0.35000000000E-01  0.51099999109E-03 0. -1.
       11   -1    0    0    0    0 -0.00000000000E+00 -0.00000000000E+00 -0.34996269501E-01  0.35000000000E-01  0.51099999109E-03 0.  1.
       22    1    1    2    0    0 -0.11906072786E-08 -0.19912681390E-08  0.19929131254E-08  0.30584959079E-08  0.00000000000E+00 0. -1.
       22    1    1    2    0    0 -0.61489297014E-03 -0.53106977578E-02  0.34589278811E-01  0.34999997324E-01  0.00000000000E+00 0. -1.
       22    1    1    2    0    0  0.61489416075E-03  0.53106997491E-02 -0.34589280804E-01  0.34999999617E-01  0.00000000000E+00 0.  1.
</event>
<event>
 5   0  0.6221259E+05  0.9118800E+02  0.7546771E-02  0.1180000E+00
      -11   -1    0    0    0    0  0.00000000000E+00  0.00000000000E+00  0.34996269501E-01  0.35000000000E-01  0.51099999109E-03 0. -1.
       11   -1    0    0    0    0 -0.00000000000E+00 -0.00000000000E+00 -0.34996269501E-01  0.35000000000E-01  0.51099999109E-03 0. -1.
       22    1    1    2    0    0  0.21570190366E-08 -0.82366702183E-09  0.35002967992E-01  0.34999978117E-01  0.00000000000E+00 0. -1.
       22    1    1    2    0    0 -0.20708736925E-12  0.79077205066E-13 -0.35002989813E-01  0.34999999940E-01  0.00000000000E+00 0. -1.
       22    1    1    2    0    0 -0.21568119492E-08  0.82358794463E-09  0.21821077828E-07  0.21942870652E-07  0.00000000000E+00 0.  1.
</event>
<event>
 5   0  0.6221259E+05  0.9118800E+02  0.7546771E-02  0.1180000E+00
      -11   -1    0    0    0    0  0.00000000000E+00  0.00000000000E+00  0.34996269501E-01  0.35000000000E-01  0.51099999109E-03 0. -1.
       11   -1    0    0    0    0 -0.00000000000E+00 -0.00000000000E+00 -0.34996269501E-01  0.35000000000E-01  0.51099999109E-03 0.  1.
       22    1    1    2    0    0  0.45970860337E-07  0.12491865036E-07  0.96521633197E-07  0.10763731866E-06  0.00000000000E+00 0. -1.
       22    1    1    2    0    0  0.25906936218E-01 -0.16670656413E-01 -0.16610741218E-01  0.34999955047E-01  0.00000000000E+00 0.  1.
       22    1    1    2    0    0 -0.25906982189E-01  0.16670643921E-01  0.16610644696E-01  0.34999937316E-01  0.00000000000E+00 0. -1.
</event>
<event>
 5   0  0.6221259E+05  0.9118800E+02  0.7546771E-02  0.1180000E+00
      -11   -1    0    0    0    0  0.00000000000E+00  0.00000000000E+00  0.34996269501E-01  0.35000000000E-01  0.51099999109E-03 0.  1.
       11   -1    0    0    0    0 -0.00000000000E+00 -0.00000000000E+00 -0.34996269501E-01  0.35000000000E-01  0.51099999109E-03 0. -1.
       22    1    1    2    0    0 -0.12574950043E-02  0.10669841187E-01 -0.33310254690E-01  0.34999998173E-01  0.00000000000E+00 0. -1.
       22    1    1    2    0    0  0.12574993992E-02 -0.10669842327E-01  0.33310252850E-01  0.34999996928E-01  0.00000000000E+00 0.  1.
       22    1    1    2    0    0 -0.43949169619E-08  0.11400320989E-08  0.18399905099E-08  0.48990339216E-08  0.00000000000E+00 0. -1.
</event>
<event>
 5   0  0.6221259E+05  0.9118800E+02  0.7546771E-02  0.1180000E+00
      -11   -1    0    0    0    0  0.00000000000E+00  0.00000000000E+00  0.34996269501E-01  0.35000000000E-01  0.51099999109E-03 0. -1.
       11   -1    0    0    0    0 -0.00000000000E+00 -0.00000000000E+00 -0.34996269501E-01  0.35000000000E-01  0.51099999109E-03 0.  1.
       22    1    1    2    0    0  0.32345685710E-02 -0.17205070508E-02 -0.34807720715E-01  0.34999999996E-01  0.00000000000E+00 0.  1.
       22    1    1    2    0    0 -0.32345684530E-02  0.17205067733E-02  0.34807718306E-01  0.34999997576E-01  0.00000000000E+00 0. -1.
       22    1    1    2    0    0 -0.11800160971E-09  0.27745584137E-09  0.24090865293E-08  0.24278805633E-08  0.00000000000E+00 0. -1.
</event>
<event>
 5   0  0.6221259E+05  0.9118800E+02  0.7546771E-02  0.1180000E+00
      -11   -1    0    0    0    0  0.00000000000E+00  0.00000000000E+00  0.34996269501E-01  0.35000000000E-01  0.51099999109E-03 0.  1.
       11   -1    0    0    0    0 -0.00000000000E+00 -0.00000000000E+00 -0.34996269501E-01  0.35000000000E-01  0.51099999109E-03 0. -1.
       22    1    1    2    0    0 -0.16915831403E-01  0.11771772818E-01 -0.28288985942E-01  0.34999810185E-01  0.00000000000E+00 0.  1.
       22    1    1    2    0    0 -0.29149749170E-06  0.82131638814E-07  0.81808571219E-06  0.87234203513E-06  0.00000000000E+00 0.  1.
       22    1    1    2    0    0  0.16916122900E-01 -0.11771854950E-01  0.28288167856E-01  0.34999317473E-01  0.00000000000E+00 0. -1.
</event>
<event>
 5   0  0.6221259E+05  0.9118800E+02  0.7546771E-02  0.1180000E+00
      -11   -1    0    0    0    0  0.00000000000E+00  0.00000000000E+00  0.34996269501E-01  0.35000000000E-01  0.51099999109E-03 0.  1.
       11   -1    0    0    0    0 -0.00000000000E+00 -0.00000000000E+00 -0.34996269501E-01  0.35000000000E-01  0.51099999109E-03 0. -1.
       22    1    1    2    0    0  0.74091525502E-03  0.87386761765E-03 -0.34981242241E-01  0.34999998697E-01  0.00000000000E+00 0. -1.
       22    1    1    2    0    0 -0.73873493294E-03 -0.87164617552E-03  0.34904484458E-01  0.34923180434E-01  0.00000000000E+00 0.  1.
       22    1    1    2    0    0 -0.21803220815E-05 -0.22214421266E-05  0.76757783607E-04  0.76820869259E-04  0.00000000000E+00 0. -1.
</event>
<event>
 5   0  0.6221259E+05  0.9118800E+02  0.7546771E-02  0.1180000E+00
      -11   -1    0    0    0    0  0.00000000000E+00  0.00000000000E+00  0.34996269501E-01  0.35000000000E-01  0.51099999109E-03 0.  1.
       11   -1    0    0    0    0 -0.00000000000E+00 -0.00000000000E+00 -0.34996269501E-01  0.35000000000E-01  0.51099999109E-03 0. -1.
       22    1    1    2    0    0 -0.27716091216E-02 -0.52134149061E-02  0.32003587215E-01  0.32543679981E-01  0.00000000000E+00 0.  1.
       22    1    1    2    0    0  0.29336292860E-02  0.76868803469E-02 -0.33543734908E-01  0.34538043689E-01  0.00000000000E+00 0. -1.
       22    1    1    2    0    0 -0.16202016442E-03 -0.24734654407E-02  0.15401476934E-02  0.29182763299E-02  0.00000000000E+00 0. -1.
</event>
<event>
 5   0  0.6221259E+05  0.9118800E+02  0.7546771E-02  0.1180000E+00
      -11   -1    0    0    0    0  0.00000000000E+00  0.00000000000E+00  0.34996269501E-01  0.35000000000E-01  0.51099999109E-03 0.  1.
       11   -1    0    0    0    0 -0.00000000000E+00 -0.00000000000E+00 -0.34996269501E-01  0.35000000000E-01  0.51099999109E-03 0. -1.
       22    1    1    2    0    0 -0.19770368936E-01 -0.15517227958E-01 -0.24358471911E-01  0.34999814360E-01  0.00000000000E+00 0. -1.
       22    1    1    2    0    0  0.19769911661E-01  0.15517616959E-01  0.24357560202E-01  0.34999094019E-01  0.00000000000E+00 0.  1.
       22    1    1    2    0    0  0.45727514197E-06 -0.38900107907E-06  0.91170936217E-06  0.10916209764E-05  0.00000000000E+00 0.  1.
</event>
<event>
 5   0  0.6221259E+05  0.9118800E+02  0.7546771E-02  0.1180000E+00
      -11   -1    0    0    0    0  0.00000000000E+00  0.00000000000E+00  0.34996269501E-01  0.35000000000E-01  0.51099999109E-03 0.  1.
       11   -1    0    0    0    0 -0.00000000000E+00 -0.00000000000E+00 -0.34996269501E-01  0.35000000000E-01  0.51099999109E-03 0. -1.
       22    1    1    2    0    0 -0.86700015981E-02  0.42678461606E-03 -0.33906467757E-01  0.34999994694E-01  0.00000000000E+00 0. -1.
       22    1    1    2    0    0 -0.19165639591E-08 -0.17772076425E-07  0.10952081056E-07  0.20963492012E-07  0.00000000000E+00 0.  1.
       22    1    1    2    0    0  0.86700035146E-02 -0.42676684398E-03  0.33906456805E-01  0.34999984342E-01  0.00000000000E+00 0.  1.
</event>
<event>
 5   0  0.6221259E+05  0.9118800E+02  0.7546771E-02  0.1180000E+00
      -11   -1    0    0    0    0  0.00000000000E+00  0.00000000000E+00  0.34996269501E-01  0.35000000000E-01  0.51099999109E-03 0.  1.
       11   -1    0    0    0    0 -0.00000000000E+00 -0.00000000000E+00 -0.34996269501E-01  0.35000000000E-01  0.51099999109E-03 0. -1.
       22    1    1    2    0    0  0.35109180486E-02  0.82975323908E-02 -0.33820446780E-01  0.34999974425E-01  0.00000000000E+00 0. -1.
       22    1    1    2    0    0 -0.11029115073E-06 -0.18141599060E-07  0.64945993231E-07  0.12927195203E-06  0.00000000000E+00 0.  1.
       22    1    1    2    0    0 -0.35108077575E-02 -0.82975142492E-02  0.33820381834E-01  0.34999896303E-01  0.00000000000E+00 0.  1.
</event>
<event>
 5   0  0.6221259E+05  0.9118800E+02  0.7546771E-02  0.1180000E+00
      -11   -1    0    0    0    0  0.00000000000E+00  0.00000000000E+00  0.34996269501E-01  0.35000000000E-01  0.51099999109E-03 0.  1.
       11   -1    0    0    0    0 -0.00000000000E+00 -0.00000000000E+00 -0.34996269501E-01  0.35000000000E-01  0.51099999109E-03 0. -1.
       22    1    1    2    0    0  0.17297567325E-01 -0.28487302021E-01  0.10688112399E-01  0.34999542260E-01  0.00000000000E+00 0.  1.
       22    1    1    2    0    0 -0.17791990926E-04  0.18397701637E-04 -0.40014142848E-05  0.25904472257E-04  0.00000000000E+00 0. -1.
       22    1    1    2    0    0 -0.17279775334E-01  0.28468904319E-01 -0.10684110984E-01  0.34974553267E-01  0.00000000000E+00 0. -1.
</event>
<event>
 5   0  0.6221259E+05  0.9118800E+02  0.7546771E-02  0.1180000E+00
      -11   -1    0    0    0    0  0.00000000000E+00  0.00000000000E+00  0.34996269501E-01  0.35000000000E-01  0.51099999109E-03 0.  1.
       11   -1    0    0    0    0 -0.00000000000E+00 -0.00000000000E+00 -0.34996269501E-01  0.35000000000E-01  0.51099999109E-03 0. -1.
       22    1    1    2    0    0 -0.56061494372E-02 -0.72088485462E-03  0.34540570982E-01  0.34999994718E-01  0.00000000000E+00 0.  1.
       22    1    1    2    0    0  0.73753177917E-09 -0.17875183101E-08  0.51820662154E-08  0.55310925770E-08  0.00000000000E+00 0. -1.
       22    1    1    2    0    0  0.56061486996E-02  0.72088664214E-03 -0.34540576164E-01  0.34999999751E-01  0.00000000000E+00 0. -1.
</event>
<event>
 5   0  0.6221259E+05  0.9118800E+02  0.7546771E-02  0.1180000E+00
      -11   -1    0    0    0    0  0.00000000000E+00  0.00000000000E+00  0.34996269501E-01  0.35000000000E-01  0.51099999109E-03 0. -1.
       11   -1    0    0    0    0 -0.00000000000E+00 -0.00000000000E+00 -0.34996269501E-01  0.35000000000E-01  0.51099999109E-03 0.  1.
       22    1    1    2    0    0 -0.23249894285E-05  0.16749482728E-05  0.78914202582E-06  0.29721663305E-05  0.00000000000E+00 0.  1.
       22    1    1    2    0    0  0.26489587448E-02  0.60070326626E-03 -0.34893421068E-01  0.34998980852E-01  0.00000000000E+00 0.  1.
       22    1    1    2    0    0 -0.26466337554E-02 -0.60237821453E-03  0.34892631926E-01  0.34998046981E-01  0.00000000000E+00 0. -1.
</event>
<event>
 5   0  0.6221259E+05  0.9118800E+02  0.7546771E-02  0.1180000E+00
      -11   -1    0    0    0    0  0.00000000000E+00  0.00000000000E+00  0.34996269501E-01  0.35000000000E-01  0.51099999109E-03 0.  1.
       11   -1    0    0    0    0 -0.00000000000E+00 -0.00000000000E+00 -0.34996269501E-01  0.35000000000E-01  0.51099999109E-03 0. -1.
       22    1    1    2    0    0  0.11878176199E-01  0.40528650162E-02 -0.32671938278E-01  0.34999604791E-01  0.00000000000E+00 0. -1.
       22    1    1    2    0    0  0.74151435103E-06  0.87845916716E-06  0.42987464436E-05  0.44498039314E-05  0.00000000000E+00 0.  1.
       22    1    1    2    0    0 -0.11878917714E-01 -0.40537434754E-02  0.32667639532E-01  0.34995945405E-01  0.00000000000E+00 0.  1.
</event>
<event>
 5   0  0.6221259E+05  0.9118800E+02  0.7546771E-02  0.1180000E+00
      -11   -1    0    0    0    0  0.00000000000E+00  0.00000000000E+00  0.34996269501E-01  0.35000000000E-01  0.51099999109E-03 0. -1.
       11   -1    0    0    0    0 -0.00000000000E+00 -0.00000000000E+00 -0.34996269501E-01  0.35000000000E-01  0.51099999109E-03 0.  1.
       22    1    1    2    0    0 -0.10092545883E-01 -0.16229367769E-01  0.29312100534E-01  0.34992157669E-01  0.00000000000E+00 0. -1.
       22    1    1    2    0    0 -0.40167558441E-05  0.27546921358E-05 -0.96356925903E-04  0.96479945200E-04  0.00000000000E+00 0. -1.
       22    1    1    2    0    0  0.10096562639E-01  0.16226613077E-01 -0.29215743608E-01  0.34911362386E-01  0.00000000000E+00 0.  1.
</event>
<event>
 5   0  0.6221259E+05  0.9118800E+02  0.7546771E-02  0.1180000E+00
      -11   -1    0    0    0    0  0.00000000000E+00  0.00000000000E+00  0.34996269501E-01  0.35000000000E-01  0.51099999109E-03 0.  1.
       11   -1    0    0    0    0 -0.00000000000E+00 -0.00000000000E+00 -0.34996269501E-01  0.35000000000E-01  0.51099999109E-03 0. -1.
       22    1    1    2    0    0 -0.13921414162E-01  0.16923537524E-01  0.27290064697E-01  0.34999421792E-01  0.00000000000E+00 0.  1.
       22    1    1    2    0    0 -0.25971713929E-06 -0.49122077238E-06  0.60331307632E-06  0.82020577157E-06  0.00000000000E+00 0.  1.
       22    1    1    2    0    0  0.13921673879E-01 -0.16923046303E-01 -0.27290668010E-01  0.34999758002E-01  0.00000000000E+00 0. -1.
</event>
<event>
 5   0  0.6221259E+05  0.9118800E+02  0.7546771E-02  0.1180000E+00
      -11   -1    0    0    0    0  0.00000000000E+00  0.00000000000E+00  0.34996269501E-01  0.35000000000E-01  0.51099999109E-03 0.  1.
       11   -1    0    0    0    0 -0.00000000000E+00 -0.00000000000E+00 -0.34996269501E-01  0.35000000000E-01  0.51099999109E-03 0. -1.
       22    1    1    2    0    0  0.88394375125E-08 -0.68279408810E-08  0.68299863812E-06  0.68308996194E-06  0.00000000000E+00 0.  1.
       22    1    1    2    0    0 -0.44419822094E-02  0.33551173913E-01  0.89195174286E-02  0.34999575256E-01  0.00000000000E+00 0.  1.
       22    1    1    2    0    0  0.44419733700E-02 -0.33551167085E-01 -0.89202004273E-02  0.34999741654E-01  0.00000000000E+00 0. -1.
</event>
<event>
 5   0  0.6221259E+05  0.9118800E+02  0.7546771E-02  0.1180000E+00
      -11   -1    0    0    0    0  0.00000000000E+00  0.00000000000E+00  0.34996269501E-01  0.35000000000E-01  0.51099999109E-03 0.  1.
       11   -1    0    0    0    0 -0.00000000000E+00 -0.00000000000E+00 -0.34996269501E-01  0.35000000000E-01  0.51099999109E-03 0.  1.
       22    1    1    2    0    0  0.95484352221E-06  0.45755287856E-07  0.34990786212E-01  0.34989991966E-01  0.00000000000E+00 0.  1.
       22    1    1    2    0    0 -0.95478178458E-06 -0.45752329441E-07  0.99851030282E-05  0.10030751917E-04  0.00000000000E+00 0. -1.
       22    1    1    2    0    0 -0.61737629191E-10 -0.29584145773E-11 -0.35000771315E-01  0.34999977282E-01  0.00000000000E+00 0.  1.
</event>
<event>
 5   0  0.6221259E+05  0.9118800E+02  0.7546771E-02  0.1180000E+00
      -11   -1    0    0    0    0  0.00000000000E+00  0.00000000000E+00  0.34996269501E-01  0.35000000000E-01  0.51099999109E-03 0.  1.
       11   -1    0    0    0    0 -0.00000000000E+00 -0.00000000000E+00 -0.34996269501E-01  0.35000000000E-01  0.51099999109E-03 0.  1.
       22    1    1    2    0    0  0.80836244421E-07  0.35225068080E-07  0.13665176343E-05  0.13693596126E-05  0.00000000000E+00 0.  1.
       22    1    1    2    0    0 -0.62860634916E-05  0.15548592645E-03 -0.34999652565E-01  0.34999998501E-01  0.00000000000E+00 0.  1.
       22    1    1    2    0    0  0.62052272471E-05 -0.15552115152E-03  0.34998286048E-01  0.34998632139E-01  0.00000000000E+00 0.  1.
</event>
<event>
 5   0  0.6221259E+05  0.9118800E+02  0.7546771E-02  0.1180000E+00
      -11   -1    0    0    0    0  0.00000000000E+00  0.00000000000E+00  0.34996269501E-01  0.35000000000E-01  0.51099999109E-03 0.  1.
       11   -1    0    0    0    0 -0.00000000000E+00 -0.00000000000E+00 -0.34996269501E-01  0.35000000000E-01  0.51099999109E-03 0. -1.
       22    1    1    2    0    0  0.27388344286E-08  0.18063093653E-08  0.47409026552E-07  0.47522413303E-07  0.00000000000E+00 0. -1.
       22    1    1    2    0    0 -0.25034451781E-02  0.10622188342E-02 -0.34894189335E-01  0.34999999942E-01  0.00000000000E+00 0. -1.
       22    1    1    2    0    0  0.25034424393E-02 -0.10622206405E-02  0.34894141926E-01  0.34999952535E-01  0.00000000000E+00 0.  1.
</event>
<event>
 5   0  0.6221259E+05  0.9118800E+02  0.7546771E-02  0.1180000E+00
      -11   -1    0    0    0    0  0.00000000000E+00  0.00000000000E+00  0.34996269501E-01  0.35000000000E-01  0.51099999109E-03 0. -1.
       11   -1    0    0    0    0 -0.00000000000E+00 -0.00000000000E+00 -0.34996269501E-01  0.35000000000E-01  0.51099999109E-03 0.  1.
       22    1    1    2    0    0 -0.41906980712E-04 -0.11361535928E-03  0.43664352670E-03  0.45312494337E-03  0.00000000000E+00 0.  1.
       22    1    1    2    0    0  0.57430734668E-02  0.35002444401E-02 -0.34344420133E-01  0.34996768397E-01  0.00000000000E+00 0.  1.
       22    1    1    2    0    0 -0.57011664861E-02 -0.33866290808E-02  0.33907776606E-01  0.34550106660E-01  0.00000000000E+00 0. -1.
</event>
<event>
 5   0  0.6221259E+05  0.9118800E+02  0.7546771E-02  0.1180000E+00
      -11   -1    0    0    0    0  0.00000000000E+00  0.00000000000E+00  0.34996269501E-01  0.35000000000E-01  0.51099999109E-03 0.  1.
       11   -1    0    0    0    0 -0.00000000000E+00 -0.00000000000E+00 -0.34996269501E-01  0.35000000000E-01  0.51099999109E-03 0. -1.
       22    1    1    2    0    0  0.20264451974E-02 -0.30680365879E-02  0.34803312384E-01  0.34996998179E-01  0.00000000000E+00 0.  1.
       22    1    1    2    0    0 -0.20267189076E-02  0.30678083776E-02 -0.34806314048E-01  0.34999979077E-01  0.00000000000E+00 0. -1.
       22    1    1    2    0    0  0.27371012260E-06  0.22821023183E-06  0.30016641843E-05  0.30227446165E-05  0.00000000000E+00 0.  1.
</event>
<event>
 5   0  0.6221259E+05  0.9118800E+02  0.7546771E-02  0.1180000E+00
      -11   -1    0    0    0    0  0.00000000000E+00  0.00000000000E+00  0.34996269501E-01  0.35000000000E-01  0.51099999109E-03 0. -1.
       11   -1    0    0    0    0 -0.00000000000E+00 -0.00000000000E+00 -0.34996269501E-01  0.35000000000E-01  0.51099999109E-03 0.  1.
       22    1    1    2    0    0 -0.11713754493E-02  0.13365890035E-02 -0.34954672658E-01  0.34999824731E-01  0.00000000000E+00 0.  1.
       22    1    1    2    0    0  0.25986052998E-04 -0.37826266629E-05  0.42231886797E-03  0.42313450516E-03  0.00000000000E+00 0.  1.
       22    1    1    2    0    0  0.11453893963E-02 -0.13328063769E-02  0.34532353790E-01  0.34577040764E-01  0.00000000000E+00 0. -1.
</event>
<event>
 5   0  0.6221259E+05  0.9118800E+02  0.7546771E-02  0.1180000E+00
      -11   -1    0    0    0    0  0.00000000000E+00  0.00000000000E+00  0.34996269501E-01  0.35000000000E-01  0.51099999109E-03 0.  1.
       11   -1    0    0    0    0 -0.00000000000E+00 -0.00000000000E+00 -0.34996269501E-01  0.35000000000E-01  0.51099999109E-03 0. -1.
       22    1    1    2    0    0  0.40929543917E-03  0.13498623419E-02  0.34971554781E-01  0.34999989927E-01  0.00000000000E+00 0.  1.
       22    1    1    2    0    0 -0.40929733657E-03 -0.13498621991E-02 -0.34971564760E-01  0.34999999914E-01  0.00000000000E+00 0. -1.
       22    1    1    2    0    0  0.18974073941E-08 -0.14283756529E-09  0.99789721620E-08  0.10158761873E-07  0.00000000000E+00 0.  1.
</event>
<event>
 5   0  0.6221259E+05  0.9118800E+02  0.7546771E-02  0.1180000E+00
      -11   -1    0    0    0    0  0.00000000000E+00  0.00000000000E+00  0.34996269501E-01  0.35000000000E-01  0.51099999109E-03 0.  1.
       11   -1    0    0    0    0 -0.00000000000E+00 -0.00000000000E+00 -0.34996269501E-01  0.35000000000E-01  0.51099999109E-03 0. -1.
       22    1    1    2    0    0 -0.40052898723E-02  0.16374298482E-02  0.34671134178E-01  0.34940106878E-01  0.00000000000E+00 0.  1.
       22    1    1    2    0    0 -0.24801236522E-04  0.34406932549E-04  0.50073916662E-04  0.65622674971E-04  0.00000000000E+00 0.  1.
       22    1    1    2    0    0  0.40300911088E-02 -0.16718367807E-02 -0.34721208095E-01  0.34994270447E-01  0.00000000000E+00 0. -1.
</event>
<event>
 5   0  0.6221259E+05  0.9118800E+02  0.7546771E-02  0.1180000E+00
      -11   -1    0    0    0    0  0.00000000000E+00  0.00000000000E+00  0.34996269501E-01  0.35000000000E-01  0.51099999109E-03 0.  1.
       11   -1    0    0    0    0 -0.00000000000E+00 -0.00000000000E+00 -0.34996269501E-01  0.35000000000E-01  0.51099999109E-03 0. -1.
       22    1    1    2    0    0 -0.33190071397E-04 -0.27943234468E-04 -0.45293239878E-04  0.62720672593E-04  0.00000000000E+00 0. -1.
       22    1    1    2    0    0 -0.82531811153E-02  0.32402609194E-02  0.33845819261E-01  0.34987908923E-01  0.00000000000E+00 0.  1.
       22    1    1    2    0    0  0.82863711867E-02 -0.32123176849E-02 -0.33800526021E-01  0.34949370404E-01  0.00000000000E+00 0. -1.
</event>
<event>
 5   0  0.6221259E+05  0.9118800E+02  0.7546771E-02  0.1180000E+00
      -11   -1    0    0    0    0  0.00000000000E+00  0.00000000000E+00  0.34996269501E-01  0.35000000000E-01  0.51099999109E-03 0. -1.
       11   -1    0    0    0    0 -0.00000000000E+00 -0.00000000000E+00 -0.34996269501E-01  0.35000000000E-01  0.51099999109E-03 0.  1.
       22    1    1    2    0    0  0.82735425897E-03  0.30773178540E-02 -0.34854635129E-01  0.34999999860E-01  0.00000000000E+00 0.  1.
       22    1    1    2    0    0  0.40648531071E-09  0.11650118338E-10  0.17436479028E-09  0.44245803549E-09  0.00000000000E+00 0.  1.
       22    1    1    2    0    0 -0.82735466546E-03 -0.30773178657E-02  0.34854634955E-01  0.34999999697E-01  0.00000000000E+00 0. -1.
</event>
<event>
 5   0  0.6221259E+05  0.9118800E+02  0.7546771E-02  0.1180000E+00
      -11   -1    0    0    0    0  0.00000000000E+00  0.00000000000E+00  0.34996269501E-01  0.35000000000E-01  0.51099999109E-03 0.  1.
       11   -1    0    0    0    0 -0.00000000000E+00 -0.00000000000E+00 -0.34996269501E-01  0.35000000000E-01  0.51099999109E-03 0. -1.
       22    1    1    2    0    0  0.99840225488E-05 -0.71216582473E-05  0.18027472293E-03  0.18069137901E-03  0.00000000000E+00 0.  1.
       22    1    1    2    0    0 -0.65482064369E-03 -0.83629922932E-03  0.34803361682E-01  0.34819565920E-01  0.00000000000E+00 0.  1.
       22    1    1    2    0    0  0.64483662114E-03  0.84342088757E-03 -0.34983636405E-01  0.34999742701E-01  0.00000000000E+00 0. -1.
</event>
<event>
 5   0  0.6221259E+05  0.9118800E+02  0.7546771E-02  0.1180000E+00
      -11   -1    0    0    0    0  0.00000000000E+00  0.00000000000E+00  0.34996269501E-01  0.35000000000E-01  0.51099999109E-03 0. -1.
       11   -1    0    0    0    0 -0.00000000000E+00 -0.00000000000E+00 -0.34996269501E-01  0.35000000000E-01  0.51099999109E-03 0.  1.
       22    1    1    2    0    0 -0.12249540176E-02 -0.95411127162E-03 -0.34965502604E-01  0.34999960186E-01  0.00000000000E+00 0.  1.
       22    1    1    2    0    0  0.12192563415E-02  0.94418261492E-03  0.34793056287E-01  0.34827213965E-01  0.00000000000E+00 0. -1.
       22    1    1    2    0    0  0.56976761258E-05  0.99286566985E-05  0.17244631715E-03  0.17282584887E-03  0.00000000000E+00 0. -1.
</event>
<event>
 5   0  0.6221259E+05  0.9118800E+02  0.7546771E-02  0.1180000E+00
      -11   -1    0    0    0    0  0.00000000000E+00  0.00000000000E+00  0.34996269501E-01  0.35000000000E-01  0.51099999109E-03 0.  1.
       11   -1    0    0    0    0 -0.00000000000E+00 -0.00000000000E+00 -0.34996269501E-01  0.35000000000E-01  0.51099999109E-03 0.  1.
       22    1    1    2    0    0 -0.57217059943E-11  0.12309123679E-12 -0.35001475684E-01  0.34999999927E-01  0.00000000000E+00 0.  1.
       22    1    1    2    0    0 -0.76907234574E-07  0.16545076995E-08  0.68144375747E-05  0.68148717464E-05  0.00000000000E+00 0.  1.
       22    1    1    2    0    0  0.76912956280E-07 -0.16546307907E-08  0.34994661246E-01  0.34993185202E-01  0.00000000000E+00 0.  1.
</event>
<event>
 5   0  0.6221259E+05  0.9118800E+02  0.7546771E-02  0.1180000E+00
      -11   -1    0    0    0    0  0.00000000000E+00  0.00000000000E+00  0.34996269501E-01  0.35000000000E-01  0.51099999109E-03 0.  1.
       11   -1    0    0    0    0 -0.00000000000E+00 -0.00000000000E+00 -0.34996269501E-01  0.35000000000E-01  0.51099999109E-03 0. -1.
       22    1    1    2    0    0 -0.81135455687E-02  0.10532341181E-02 -0.34030156664E-01  0.34999864091E-01  0.00000000000E+00 0. -1.
       22    1    1    2    0    0 -0.18689107787E-06  0.38637031377E-06  0.73750113721E-05  0.73874896300E-05  0.00000000000E+00 0.  1.
       22    1    1    2    0    0  0.81137324598E-02 -0.10536204884E-02  0.34022781653E-01  0.34992748419E-01  0.00000000000E+00 0.  1.
</event>
<event>
 5   0  0.6221259E+05  0.9118800E+02  0.7546771E-02  0.1180000E+00
      -11   -1    0    0    0    0  0.00000000000E+00  0.00000000000E+00  0.34996269501E-01  0.35000000000E-01  0.51099999109E-03 0. -1.
       11   -1    0    0    0    0 -0.00000000000E+00 -0.00000000000E+00 -0.34996269501E-01  0.35000000000E-01  0.51099999109E-03 0.  1.
       22    1    1    2    0    0  0.86269573253E-02  0.58000821177E-03 -0.33002674615E-01  0.34116525819E-01  0.00000000000E+00 0.  1.
       22    1    1    2    0    0 -0.52272133295E-02 -0.87835244143E-03  0.31839805745E-01  0.32277987733E-01  0.00000000000E+00 0. -1.
       22    1    1    2    0    0 -0.33997439957E-02  0.29834422967E-03  0.11628688705E-02  0.36054864479E-02  0.00000000000E+00 0.  1.
</event>
<event>
 5   0  0.6221259E+05  0.9118800E+02  0.7546771E-02  0.1180000E+00
      -11   -1    0    0    0    0  0.00000000000E+00  0.00000000000E+00  0.34996269501E-01  0.35000000000E-01  0.51099999109E-03 0. -1.
       11   -1    0    0    0    0 -0.00000000000E+00 -0.00000000000E+00 -0.34996269501E-01  0.35000000000E-01  0.51099999109E-03 0. -1.
       22    1    1    2    0    0  0.11997654105E-04 -0.10864650384E-05  0.23390599175E-03  0.23421600519E-03  0.00000000000E+00 0.  1.
       22    1    1    2    0    0 -0.11998679432E-04  0.10865578884E-05  0.34768156515E-01  0.34765932607E-01  0.00000000000E+00 0. -1.
       22    1    1    2    0    0  0.10253268915E-08 -0.92849969738E-10 -0.35002062506E-01  0.34999851388E-01  0.00000000000E+00 0. -1.
</event>
<event>
 5   0  0.6221259E+05  0.9118800E+02  0.7546771E-02  0.1180000E+00
      -11   -1    0    0    0    0  0.00000000000E+00  0.00000000000E+00  0.34996269501E-01  0.35000000000E-01  0.51099999109E-03 0. -1.
       11   -1    0    0    0    0 -0.00000000000E+00 -0.00000000000E+00 -0.34996269501E-01  0.35000000000E-01  0.51099999109E-03 0.  1.
       22    1    1    2    0    0  0.56915586307E-03 -0.45068664047E-03  0.53540709980E-03  0.90206297279E-03  0.00000000000E+00 0.  1.
       22    1    1    2    0    0  0.80453628384E-02 -0.54114853033E-02 -0.33317495663E-01  0.34699676564E-01  0.00000000000E+00 0.  1.
       22    1    1    2    0    0 -0.86145187015E-02  0.58621719438E-02  0.32782088563E-01  0.34398260463E-01  0.00000000000E+00 0. -1.
</event>
<event>
 5   0  0.6221259E+05  0.9118800E+02  0.7546771E-02  0.1180000E+00
      -11   -1    0    0    0    0  0.00000000000E+00  0.00000000000E+00  0.34996269501E-01  0.35000000000E-01  0.51099999109E-03 0.  1.
       11   -1    0    0    0    0 -0.00000000000E+00 -0.00000000000E+00 -0.34996269501E-01  0.35000000000E-01  0.51099999109E-03 0. -1.
       22    1    1    2    0    0 -0.19850354505E-01  0.21442318564E-02 -0.28746563704E-01  0.34999988986E-01  0.00000000000E+00 0. -1.
       22    1    1    2    0    0  0.19850371038E-01 -0.21442252951E-02  0.28746555991E-01  0.34999991626E-01  0.00000000000E+00 0.  1.
       22    1    1    2    0    0 -0.16533462763E-07 -0.65612873857E-08  0.77132830524E-08  0.19388156657E-07  0.00000000000E+00 0. -1.
</event>
<event>
 5   0  0.6221259E+05  0.9118800E+02  0.7546771E-02  0.1180000E+00
      -11   -1    0    0    0    0  0.00000000000E+00  0.00000000000E+00  0.34996269501E-01  0.35000000000E-01  0.51099999109E-03 0.  1.
       11   -1    0    0    0    0 -0.00000000000E+00 -0.00000000000E+00 -0.34996269501E-01  0.35000000000E-01  0.51099999109E-03 0. -1.
       22    1    1    2    0    0  0.23242766821E-05 -0.59093625622E-05  0.59475513326E-04  0.59813539549E-04  0.00000000000E+00 0. -1.
       22    1    1    2    0    0 -0.34329266682E-02 -0.14760981725E-01  0.31484647536E-01  0.34942160744E-01  0.00000000000E+00 0.  1.
       22    1    1    2    0    0  0.34306023916E-02  0.14766891087E-01 -0.31544123049E-01  0.34998025717E-01  0.00000000000E+00 0. -1.
</event>
<event>
 5   0  0.6221259E+05  0.9118800E+02  0.7546771E-02  0.1180000E+00
      -11   -1    0    0    0    0  0.00000000000E+00  0.00000000000E+00  0.34996269501E-01  0.35000000000E-01  0.51099999109E-03 0. -1.
       11   -1    0    0    0    0 -0.00000000000E+00 -0.00000000000E+00 -0.34996269501E-01  0.35000000000E-01  0.51099999109E-03 0.  1.
       22    1    1    2    0    0  0.11425338870E-06  0.10216475100E-06  0.16191879106E-05  0.16264258246E-05  0.00000000000E+00 0.  1.
       22    1    1    2    0    0 -0.12405036453E-01  0.16962717456E-02  0.32682244921E-01  0.34998448541E-01  0.00000000000E+00 0. -1.
       22    1    1    2    0    0  0.12404922199E-01 -0.16963739103E-02 -0.32683864109E-01  0.34999925033E-01  0.00000000000E+00 0.  1.
</event>
<event>
 5   0  0.6221259E+05  0.9118800E+02  0.7546771E-02  0.1180000E+00
      -11   -1    0    0    0    0  0.00000000000E+00  0.00000000000E+00  0.34996269501E-01  0.35000000000E-01  0.51099999109E-03 0.  1.
       11   -1    0    0    0    0 -0.00000000000E+00 -0.00000000000E+00 -0.34996269501E-01  0.35000000000E-01  0.51099999109E-03 0. -1.
       22    1    1    2    0    0 -0.36597594018E-02 -0.20479192496E-02  0.24437720766E-01  0.24794959333E-01  0.00000000000E+00 0. -1.
       22    1    1    2    0    0  0.60528052272E-02  0.19633443884E-02  0.93624331562E-02  0.11320173449E-01  0.00000000000E+00 0.  1.
       22    1    1    2    0    0 -0.23930458254E-02  0.84574861208E-04 -0.33800153922E-01  0.33884867218E-01  0.00000000000E+00 0. -1.
</event>
<event>
 5   0  0.6221259E+05  0.9118800E+02  0.7546771E-02  0.1180000E+00
      -11   -1    0    0    0    0  0.00000000000E+00  0.00000000000E+00  0.34996269501E-01  0.35000000000E-01  0.51099999109E-03 0.  1.
       11   -1    0    0    0    0 -0.00000000000E+00 -0.00000000000E+00 -0.34996269501E-01  0.35000000000E-01  0.51099999109E-03 0. -1.
       22    1    1    2    0    0 -0.14512869569E-01 -0.30068448235E-02  0.29430430569E-01  0.32951703179E-01  0.00000000000E+00 0.  1.
       22    1    1    2    0    0  0.13089365847E-01  0.33650567370E-02 -0.31634289894E-01  0.34400340147E-01  0.00000000000E+00 0. -1.
       22    1    1    2    0    0  0.14235037220E-02 -0.35821191345E-03  0.22038593250E-02  0.26479566737E-02  0.00000000000E+00 0.  1.
</event>
<event>
 5   0  0.6221259E+05  0.9118800E+02  0.7546771E-02  0.1180000E+00
      -11   -1    0    0    0    0  0.00000000000E+00  0.00000000000E+00  0.34996269501E-01  0.35000000000E-01  0.51099999109E-03 0. -1.
       11   -1    0    0    0    0 -0.00000000000E+00 -0.00000000000E+00 -0.34996269501E-01  0.35000000000E-01  0.51099999109E-03 0. -1.
       22    1    1    2    0    0  0.33314207092E-06  0.27443528479E-07  0.34999192560E-01  0.34998267733E-01  0.00000000000E+00 0. -1.
       22    1    1    2    0    0 -0.22157262605E-10 -0.18252677174E-11 -0.35000908681E-01  0.34999983898E-01  0.00000000000E+00 0. -1.
       22    1    1    2    0    0 -0.33311991366E-06 -0.27441703212E-07  0.17161210151E-05  0.17483687433E-05  0.00000000000E+00 0.  1.
</event>
<event>
 5   0  0.6221259E+05  0.9118800E+02  0.7546771E-02  0.1180000E+00
      -11   -1    0    0    0    0  0.00000000000E+00  0.00000000000E+00  0.34996269501E-01  0.35000000000E-01  0.51099999109E-03 0. -1.
       11   -1    0    0    0    0 -0.00000000000E+00 -0.00000000000E+00 -0.34996269501E-01  0.35000000000E-01  0.51099999109E-03 0.  1.
       22    1    1    2    0    0  0.40535281387E-02 -0.33718831136E-01  0.84622009090E-02  0.34999992968E-01  0.00000000000E+00 0. -1.
       22    1    1    2    0    0  0.98873389372E-09  0.43250435764E-10  0.11232342532E-07  0.11275858462E-07  0.00000000000E+00 0. -1.
       22    1    1    2    0    0 -0.40535291274E-02  0.33718831092E-01 -0.84622121413E-02  0.34999995756E-01  0.00000000000E+00 0.  1.
</event>
<event>
 5   0  0.6221259E+05  0.9118800E+02  0.7546771E-02  0.1180000E+00
      -11   -1    0    0    0    0  0.00000000000E+00  0.00000000000E+00  0.34996269501E-01  0.35000000000E-01  0.51099999109E-03 0. -1.
       11   -1    0    0    0    0 -0.00000000000E+00 -0.00000000000E+00 -0.34996269501E-01  0.35000000000E-01  0.51099999109E-03 0. -1.
       22    1    1    2    0    0  0.60204546768E-04  0.40542096678E-03 -0.16782868270E-02  0.17276103210E-02  0.00000000000E+00 0.  1.
       22    1    1    2    0    0 -0.89234103813E-03 -0.16948371122E-02  0.34931405148E-01  0.34983879301E-01  0.00000000000E+00 0. -1.
       22    1    1    2    0    0  0.83213649136E-03  0.12894161454E-02 -0.33253118321E-01  0.33288510378E-01  0.00000000000E+00 0. -1.
</event>
<event>
 5   0  0.6221259E+05  0.9118800E+02  0.7546771E-02  0.1180000E+00
      -11   -1    0    0    0    0  0.00000000000E+00  0.00000000000E+00  0.34996269501E-01  0.35000000000E-01  0.51099999109E-03 0. -1.
       11   -1    0    0    0    0 -0.00000000000E+00 -0.00000000000E+00 -0.34996269501E-01  0.35000000000E-01  0.51099999109E-03 0.  1.
       22    1    1    2    0    0  0.17048684245E-02 -0.13273998290E-01  0.32322079428E-01  0.34983173462E-01  0.00000000000E+00 0. -1.
       22    1    1    2    0    0 -0.17071345052E-02  0.13273675313E-01 -0.32339499342E-01  0.34999256881E-01  0.00000000000E+00 0.  1.
       22    1    1    2    0    0  0.22660806774E-05  0.32297747657E-06  0.17419914249E-04  0.17569657041E-04  0.00000000000E+00 0. -1.
</event>
<event>
 5   0  0.6221259E+05  0.9118800E+02  0.7546771E-02  0.1180000E+00
      -11   -1    0    0    0    0  0.00000000000E+00  0.00000000000E+00  0.34996269501E-01  0.35000000000E-01  0.51099999109E-03 0.  1.
       11   -1    0    0    0    0 -0.00000000000E+00 -0.00000000000E+00 -0.34996269501E-01  0.35000000000E-01  0.51099999109E-03 0.  1.
       22    1    1    2    0    0  0.16754523051E-02 -0.26368588736E-04  0.34843558817E-01  0.34883827581E-01  0.00000000000E+00 0.  1.
       22    1    1    2    0    0 -0.70077488235E-04  0.23302098407E-03 -0.84478002788E-05  0.24347689562E-03  0.00000000000E+00 0.  1.
       22    1    1    2    0    0 -0.16053748168E-02 -0.20665239533E-03 -0.34835111016E-01  0.34872695523E-01  0.00000000000E+00 0.  1.
</event>
<event>
 5   0  0.6221259E+05  0.9118800E+02  0.7546771E-02  0.1180000E+00
      -11   -1    0    0    0    0  0.00000000000E+00  0.00000000000E+00  0.34996269501E-01  0.35000000000E-01  0.51099999109E-03 0. -1.
       11   -1    0    0    0    0 -0.00000000000E+00 -0.00000000000E+00 -0.34996269501E-01  0.35000000000E-01  0.51099999109E-03 0. -1.
       22    1    1    2    0    0 -0.45765124762E-07  0.18250929080E-06  0.48179302040E-05  0.48216030050E-05  0.00000000000E+00 0. -1.
       22    1    1    2    0    0  0.81797311195E-04 -0.71146554939E-03 -0.34992672029E-01  0.34999999568E-01  0.00000000000E+00 0. -1.
       22    1    1    2    0    0 -0.81751546071E-04  0.71128304010E-03  0.34987854099E-01  0.34995178829E-01  0.00000000000E+00 0. -1.
</event>
<event>
 5   0  0.6221259E+05  0.9118800E+02  0.7546771E-02  0.1180000E+00
      -11   -1    0    0    0    0  0.00000000000E+00  0.00000000000E+00  0.34996269501E-01  0.35000000000E-01  0.51099999109E-03 0. -1.
       11   -1    0    0    0    0 -0.00000000000E+00 -0.00000000000E+00 -0.34996269501E-01  0.35000000000E-01  0.51099999109E-03 0. -1.
       22    1    1    2    0    0  0.00000000000E+00  0.00000000000E+00  0.30736867508E-01  0.30734498338E-01  0.00000000000E+00 0. -1.
       22    1    1    2    0    0  0.84775328603E-02  0.38783529844E-02 -0.26796729585E-02  0.97000429088E-02  0.00000000000E+00 0.  1.
       22    1    1    2    0    0 -0.84775328603E-02 -0.38783529844E-02 -0.28057194550E-01  0.29565458753E-01  0.00000000000E+00 0. -1.
</event>
<event>
 5   0  0.6221259E+05  0.9118800E+02  0.7546771E-02  0.1180000E+00
      -11   -1    0    0    0    0  0.00000000000E+00  0.00000000000E+00  0.34996269501E-01  0.35000000000E-01  0.51099999109E-03 0.  1.
       11   -1    0    0    0    0 -0.00000000000E+00 -0.00000000000E+00 -0.34996269501E-01  0.35000000000E-01  0.51099999109E-03 0. -1.
       22    1    1    2    0    0  0.64062449463E-02 -0.20427713709E-01 -0.27688779661E-01  0.34999999726E-01  0.00000000000E+00 0. -1.
       22    1    1    2    0    0 -0.64062459287E-02  0.20427713157E-01  0.27688778301E-01  0.34999998508E-01  0.00000000000E+00 0.  1.
       22    1    1    2    0    0  0.98240134929E-09  0.55266845294E-09  0.13597981004E-08  0.17662405566E-08  0.00000000000E+00 0. -1.
</event>
<event>
 5   0  0.6221259E+05  0.9118800E+02  0.7546771E-02  0.1180000E+00
      -11   -1    0    0    0    0  0.00000000000E+00  0.00000000000E+00  0.34996269501E-01  0.35000000000E-01  0.51099999109E-03 0. -1.
       11   -1    0    0    0    0 -0.00000000000E+00 -0.00000000000E+00 -0.34996269501E-01  0.35000000000E-01  0.51099999109E-03 0.  1.
       22    1    1    2    0    0 -0.18991621266E-01 -0.61040119490E-02 -0.28758576049E-01  0.34999947665E-01  0.00000000000E+00 0.  1.
       22    1    1    2    0    0  0.18991614645E-01  0.61038880810E-02  0.28757912250E-01  0.34999377044E-01  0.00000000000E+00 0. -1.
       22    1    1    2    0    0  0.66206482112E-08  0.12386806281E-06  0.66379988548E-06  0.67529061738E-06  0.00000000000E+00 0. -1.
</event>
<event>
 5   0  0.6221259E+05  0.9118800E+02  0.7546771E-02  0.1180000E+00
      -11   -1    0    0    0    0  0.00000000000E+00  0.00000000000E+00  0.34996269501E-01  0.35000000000E-01  0.51099999109E-03 0. -1.
       11   -1    0    0    0    0 -0.00000000000E+00 -0.00000000000E+00 -0.34996269501E-01  0.35000000000E-01  0.51099999109E-03 0.  1.
       22    1    1    2    0    0  0.44089921225E-02  0.34625349466E-02  0.34531327604E-01  0.34983438165E-01  0.00000000000E+00 0. -1.
       22    1    1    2    0    0  0.70611088135E-04  0.31616940411E-04 -0.13637707585E-02  0.13659634836E-02  0.00000000000E+00 0. -1.
       22    1    1    2    0    0 -0.44796032106E-02 -0.34941518870E-02 -0.33167556845E-01  0.33650598351E-01  0.00000000000E+00 0.  1.
</event>
<event>
 5   0  0.6221259E+05  0.9118800E+02  0.7546771E-02  0.1180000E+00
      -11   -1    0    0    0    0  0.00000000000E+00  0.00000000000E+00  0.34996269501E-01  0.35000000000E-01  0.51099999109E-03 0. -1.
       11   -1    0    0    0    0 -0.00000000000E+00 -0.00000000000E+00 -0.34996269501E-01  0.35000000000E-01  0.51099999109E-03 0.  1.
       22    1    1    2    0    0 -0.70218591046E-08 -0.15253091905E-08  0.19594285984E-06  0.19607457100E-06  0.00000000000E+00 0.  1.
       22    1    1    2    0    0  0.78479497075E-03  0.85019822225E-04 -0.34991096979E-01  0.34999999990E-01  0.00000000000E+00 0.  1.
       22    1    1    2    0    0 -0.78478794890E-03 -0.85018296916E-04  0.34990901036E-01  0.34999803936E-01  0.00000000000E+00 0. -1.
</event>
<event>
 5   0  0.6221259E+05  0.9118800E+02  0.7546771E-02  0.1180000E+00
      -11   -1    0    0    0    0  0.00000000000E+00  0.00000000000E+00  0.34996269501E-01  0.35000000000E-01  0.51099999109E-03 0.  1.
       11   -1    0    0    0    0 -0.00000000000E+00 -0.00000000000E+00 -0.34996269501E-01  0.35000000000E-01  0.51099999109E-03 0. -1.
       22    1    1    2    0    0  0.99996878935E-05 -0.25987966232E-04  0.30338154723E-02  0.30339432573E-02  0.00000000000E+00 0. -1.
       22    1    1    2    0    0  0.10093454319E-02  0.37520169899E-02  0.31740708146E-01  0.31977632234E-01  0.00000000000E+00 0.  1.
       22    1    1    2    0    0 -0.10193451198E-02 -0.37260290237E-02 -0.34774523618E-01  0.34988424509E-01  0.00000000000E+00 0. -1.
</event>
<event>
 5   0  0.6221259E+05  0.9118800E+02  0.7546771E-02  0.1180000E+00
      -11   -1    0    0    0    0  0.00000000000E+00  0.00000000000E+00  0.34996269501E-01  0.35000000000E-01  0.51099999109E-03 0. -1.
       11   -1    0    0    0    0 -0.00000000000E+00 -0.00000000000E+00 -0.34996269501E-01  0.35000000000E-01  0.51099999109E-03 0.  1.
       22    1    1    2    0    0  0.91897620311E-02 -0.52472665765E-02 -0.33128920105E-01  0.34778022946E-01  0.00000000000E+00 0.  1.
       22    1    1    2    0    0  0.14086389088E-03  0.58492772867E-04 -0.18461582684E-03  0.23947242796E-03  0.00000000000E+00 0.  1.
       22    1    1    2    0    0 -0.93306259220E-02  0.51887738036E-02  0.33313535931E-01  0.34982504626E-01  0.00000000000E+00 0. -1.
</event>
<event>
 5   0  0.6221259E+05  0.9118800E+02  0.7546771E-02  0.1180000E+00
      -11   -1    0    0    0    0  0.00000000000E+00  0.00000000000E+00  0.34996269501E-01  0.35000000000E-01  0.51099999109E-03 0.  1.
       11   -1    0    0    0    0 -0.00000000000E+00 -0.00000000000E+00 -0.34996269501E-01  0.35000000000E-01  0.51099999109E-03 0. -1.
       22    1    1    2    0    0  0.27718504852E-02 -0.47693961564E-02 -0.31585435879E-01  0.32063531535E-01  0.00000000000E+00 0. -1.
       22    1    1    2    0    0 -0.64395280662E-03  0.35087317169E-02 -0.21138163938E-02  0.41465760846E-02  0.00000000000E+00 0.  1.
       22    1    1    2    0    0 -0.21278976786E-02  0.12606644395E-02  0.33699252273E-01  0.33789892381E-01  0.00000000000E+00 0.  1.
</event>
<event>
 5   0  0.6221259E+05  0.9118800E+02  0.7546771E-02  0.1180000E+00
      -11   -1    0    0    0    0  0.00000000000E+00  0.00000000000E+00  0.34996269501E-01  0.35000000000E-01  0.51099999109E-03 0.  1.
       11   -1    0    0    0    0 -0.00000000000E+00 -0.00000000000E+00 -0.34996269501E-01  0.35000000000E-01  0.51099999109E-03 0. -1.
       22    1    1    2    0    0 -0.39325571901E-05 -0.15047115212E-04  0.81807383914E-04  0.83272617018E-04  0.00000000000E+00 0.  1.
       22    1    1    2    0    0  0.88679655138E-03 -0.12717541562E-02  0.34882837096E-01  0.34917274960E-01  0.00000000000E+00 0.  1.
       22    1    1    2    0    0 -0.88286399419E-03  0.12868012714E-02 -0.34964644480E-01  0.34999452423E-01  0.00000000000E+00 0. -1.
</event>
<event>
 5   0  0.6221259E+05  0.9118800E+02  0.7546771E-02  0.1180000E+00
      -11   -1    0    0    0    0  0.00000000000E+00  0.00000000000E+00  0.34996269501E-01  0.35000000000E-01  0.51099999109E-03 0.  1.
       11   -1    0    0    0    0 -0.00000000000E+00 -0.00000000000E+00 -0.34996269501E-01  0.35000000000E-01  0.51099999109E-03 0. -1.
       22    1    1    2    0    0 -0.38634178237E-02  0.22505724546E-02 -0.34684461564E-01  0.34971459044E-01  0.00000000000E+00 0. -1.
       22    1    1    2    0    0  0.31905080400E-05  0.13871767456E-03  0.18288945960E-03  0.22956769592E-03  0.00000000000E+00 0.  1.
       22    1    1    2    0    0  0.38602273157E-02 -0.23892901292E-02  0.34501572105E-01  0.34798973260E-01  0.00000000000E+00 0.  1.
</event>
<event>
 5   0  0.6221259E+05  0.9118800E+02  0.7546771E-02  0.1180000E+00
      -11   -1    0    0    0    0  0.00000000000E+00  0.00000000000E+00  0.34996269501E-01  0.35000000000E-01  0.51099999109E-03 0. -1.
       11   -1    0    0    0    0 -0.00000000000E+00 -0.00000000000E+00 -0.34996269501E-01  0.35000000000E-01  0.51099999109E-03 0.  1.
       22    1    1    2    0    0  0.59693406394E-06  0.33059805863E-06  0.63374660598E-05  0.63740961251E-05  0.00000000000E+00 0.  1.
       22    1    1    2    0    0  0.17096489634E-02 -0.10375710275E-01 -0.33382819154E-01  0.34999869685E-01  0.00000000000E+00 0.  1.
       22    1    1    2    0    0 -0.17102458974E-02  0.10375379677E-01  0.33376481688E-01  0.34993756219E-01  0.00000000000E+00 0. -1.
</event>
<event>
 5   0  0.6221259E+05  0.9118800E+02  0.7546771E-02  0.1180000E+00
      -11   -1    0    0    0    0  0.00000000000E+00  0.00000000000E+00  0.34996269501E-01  0.35000000000E-01  0.51099999109E-03 0.  1.
       11   -1    0    0    0    0 -0.00000000000E+00 -0.00000000000E+00 -0.34996269501E-01  0.35000000000E-01  0.51099999109E-03 0. -1.
       22    1    1    2    0    0 -0.13730979661E-01  0.17091936195E-01  0.12131285616E-01  0.25056779044E-01  0.00000000000E+00 0.  1.
       22    1    1    2    0    0  0.15693609664E-01 -0.18578133972E-01  0.72727457229E-02  0.25383641908E-01  0.00000000000E+00 0. -1.
       22    1    1    2    0    0 -0.19626300025E-02  0.14861977774E-02 -0.19404031339E-01  0.19559579048E-01  0.00000000000E+00 0. -1.
</event>
<event>
 5   0  0.6221259E+05  0.9118800E+02  0.7546771E-02  0.1180000E+00
      -11   -1    0    0    0    0  0.00000000000E+00  0.00000000000E+00  0.34996269501E-01  0.35000000000E-01  0.51099999109E-03 0.  1.
       11   -1    0    0    0    0 -0.00000000000E+00 -0.00000000000E+00 -0.34996269501E-01  0.35000000000E-01  0.51099999109E-03 0. -1.
       22    1    1    2    0    0  0.94183068491E-05 -0.24641399406E-04 -0.32363502239E-04  0.41752836380E-04  0.00000000000E+00 0.  1.
       22    1    1    2    0    0  0.20995805678E-01 -0.75067250461E-02  0.26960216851E-01  0.34986112525E-01  0.00000000000E+00 0.  1.
       22    1    1    2    0    0 -0.21005223985E-01  0.75313664455E-02 -0.26927853349E-01  0.34972134638E-01  0.00000000000E+00 0. -1.
</event>
<event>
 5   0  0.6221259E+05  0.9118800E+02  0.7546771E-02  0.1180000E+00
      -11   -1    0    0    0    0  0.00000000000E+00  0.00000000000E+00  0.34996269501E-01  0.35000000000E-01  0.51099999109E-03 0.  1.
       11   -1    0    0    0    0 -0.00000000000E+00 -0.00000000000E+00 -0.34996269501E-01  0.35000000000E-01  0.51099999109E-03 0.  1.
       22    1    1    2    0    0 -0.98067633466E-04  0.30333490403E-03 -0.34997790575E-01  0.34999242484E-01  0.00000000000E+00 0.  1.
       22    1    1    2    0    0 -0.42274404536E-04  0.15153860572E-04  0.84418414472E-03  0.84537780606E-03  0.00000000000E+00 0.  1.
       22    1    1    2    0    0  0.14034203800E-03 -0.31848876460E-03  0.34153606430E-01  0.34155379710E-01  0.00000000000E+00 0.  1.
</event>
<event>
 5   0  0.6221259E+05  0.9118800E+02  0.7546771E-02  0.1180000E+00
      -11   -1    0    0    0    0  0.00000000000E+00  0.00000000000E+00  0.34996269501E-01  0.35000000000E-01  0.51099999109E-03 0. -1.
       11   -1    0    0    0    0 -0.00000000000E+00 -0.00000000000E+00 -0.34996269501E-01  0.35000000000E-01  0.51099999109E-03 0.  1.
       22    1    1    2    0    0 -0.14093999369E-01 -0.13419983683E-01 -0.21791141783E-01  0.29216273556E-01  0.00000000000E+00 0.  1.
       22    1    1    2    0    0  0.64618650892E-02  0.15416717041E-01 -0.91993912617E-03  0.16741480005E-01  0.00000000000E+00 0. -1.
       22    1    1    2    0    0  0.76321342796E-02 -0.19967333580E-02  0.22711080910E-01  0.24042246439E-01  0.00000000000E+00 0. -1.
</event>
<event>
 5   0  0.6221259E+05  0.9118800E+02  0.7546771E-02  0.1180000E+00
      -11   -1    0    0    0    0  0.00000000000E+00  0.00000000000E+00  0.34996269501E-01  0.35000000000E-01  0.51099999109E-03 0.  1.
       11   -1    0    0    0    0 -0.00000000000E+00 -0.00000000000E+00 -0.34996269501E-01  0.35000000000E-01  0.51099999109E-03 0.  1.
       22    1    1    2    0    0  0.26180834747E-03  0.72556278897E-04  0.34804293133E-01  0.34805353446E-01  0.00000000000E+00 0.  1.
       22    1    1    2    0    0  0.43162466267E-04 -0.13655083606E-03  0.16811887922E-03  0.22084629694E-03  0.00000000000E+00 0.  1.
       22    1    1    2    0    0 -0.30497081374E-03  0.63994557166E-04 -0.34972412012E-01  0.34973800257E-01  0.00000000000E+00 0.  1.
</event>
<event>
 5   0  0.6221259E+05  0.9118800E+02  0.7546771E-02  0.1180000E+00
      -11   -1    0    0    0    0  0.00000000000E+00  0.00000000000E+00  0.34996269501E-01  0.35000000000E-01  0.51099999109E-03 0. -1.
       11   -1    0    0    0    0 -0.00000000000E+00 -0.00000000000E+00 -0.34996269501E-01  0.35000000000E-01  0.51099999109E-03 0.  1.
       22    1    1    2    0    0 -0.14368282527E-02 -0.46054536285E-02  0.34660863663E-01  0.34995001763E-01  0.00000000000E+00 0. -1.
       22    1    1    2    0    0  0.95560385853E-05 -0.19758483999E-05  0.36590483309E-06  0.97650262001E-05  0.00000000000E+00 0.  1.
       22    1    1    2    0    0  0.14272722141E-02  0.46074294769E-02 -0.34661229567E-01  0.34995233211E-01  0.00000000000E+00 0.  1.
</event>
<event>
 5   0  0.6221259E+05  0.9118800E+02  0.7546771E-02  0.1180000E+00
      -11   -1    0    0    0    0  0.00000000000E+00  0.00000000000E+00  0.34996269501E-01  0.35000000000E-01  0.51099999109E-03 0.  1.
       11   -1    0    0    0    0 -0.00000000000E+00 -0.00000000000E+00 -0.34996269501E-01  0.35000000000E-01  0.51099999109E-03 0. -1.
       22    1    1    2    0    0 -0.14193607511E-01 -0.14201181050E-01  0.28661334671E-01  0.34994344436E-01  0.00000000000E+00 0.  1.
       22    1    1    2    0    0  0.14193152097E-01  0.14202023031E-01 -0.28667425412E-01  0.34999490059E-01  0.00000000000E+00 0. -1.
       22    1    1    2    0    0  0.45541395519E-06 -0.84198181606E-06  0.60907405676E-05  0.61655053249E-05  0.00000000000E+00 0. -1.
</event>
<event>
 5   0  0.6221259E+05  0.9118800E+02  0.7546771E-02  0.1180000E+00
      -11   -1    0    0    0    0  0.00000000000E+00  0.00000000000E+00  0.34996269501E-01  0.35000000000E-01  0.51099999109E-03 0.  1.
       11   -1    0    0    0    0 -0.00000000000E+00 -0.00000000000E+00 -0.34996269501E-01  0.35000000000E-01  0.51099999109E-03 0.  1.
       22    1    1    2    0    0  0.67496369012E-06 -0.19313268318E-06  0.34983775861E-01  0.34981722999E-01  0.00000000000E+00 0.  1.
       22    1    1    2    0    0 -0.55785321318E-10  0.15962293892E-10 -0.35002045589E-01  0.34999993791E-01  0.00000000000E+00 0.  1.
       22    1    1    2    0    0 -0.67490790480E-06  0.19311672088E-06  0.18269727937E-04  0.18283209610E-04  0.00000000000E+00 0.  1.
</event>
<event>
 5   0  0.6221259E+05  0.9118800E+02  0.7546771E-02  0.1180000E+00
      -11   -1    0    0    0    0  0.00000000000E+00  0.00000000000E+00  0.34996269501E-01  0.35000000000E-01  0.51099999109E-03 0.  1.
       11   -1    0    0    0    0 -0.00000000000E+00 -0.00000000000E+00 -0.34996269501E-01  0.35000000000E-01  0.51099999109E-03 0. -1.
       22    1    1    2    0    0  0.48303286968E-03 -0.40410798294E-03  0.34994288876E-01  0.34999955399E-01  0.00000000000E+00 0.  1.
       22    1    1    2    0    0  0.25720952512E-08  0.28553494982E-08  0.44520720561E-07  0.44686275902E-07  0.00000000000E+00 0. -1.
       22    1    1    2    0    0 -0.48303544177E-03  0.40410512759E-03 -0.34994333396E-01  0.34999999915E-01  0.00000000000E+00 0. -1.
</event>
<event>
 5   0  0.6221259E+05  0.9118800E+02  0.7546771E-02  0.1180000E+00
      -11   -1    0    0    0    0  0.00000000000E+00  0.00000000000E+00  0.34996269501E-01  0.35000000000E-01  0.51099999109E-03 0. -1.
       11   -1    0    0    0    0 -0.00000000000E+00 -0.00000000000E+00 -0.34996269501E-01  0.35000000000E-01  0.51099999109E-03 0.  1.
       22    1    1    2    0    0 -0.14039618031E-02 -0.87799770367E-04 -0.34971712721E-01  0.34999992974E-01  0.00000000000E+00 0.  1.
       22    1    1    2    0    0  0.14041262475E-02  0.87707960559E-04  0.34967780570E-01  0.34996070368E-01  0.00000000000E+00 0. -1.
       22    1    1    2    0    0 -0.16444441208E-06  0.91809807760E-07  0.39321503541E-05  0.39366581529E-05  0.00000000000E+00 0. -1.
</event>
<event>
 5   0  0.6221259E+05  0.9118800E+02  0.7546771E-02  0.1180000E+00
      -11   -1    0    0    0    0  0.00000000000E+00  0.00000000000E+00  0.34996269501E-01  0.35000000000E-01  0.51099999109E-03 0.  1.
       11   -1    0    0    0    0 -0.00000000000E+00 -0.00000000000E+00 -0.34996269501E-01  0.35000000000E-01  0.51099999109E-03 0. -1.
       22    1    1    2    0    0  0.55334569853E-06 -0.74517110702E-06  0.86846483402E-04  0.86851442998E-04  0.00000000000E+00 0.  1.
       22    1    1    2    0    0 -0.42226370443E-02 -0.12689208659E-02  0.34633984683E-01  0.34913517709E-01  0.00000000000E+00 0.  1.
       22    1    1    2    0    0  0.42220836986E-02  0.12696660370E-02 -0.34720831167E-01  0.34999630848E-01  0.00000000000E+00 0. -1.
</event>
<event>
 5   0  0.6221259E+05  0.9118800E+02  0.7546771E-02  0.1180000E+00
      -11   -1    0    0    0    0  0.00000000000E+00  0.00000000000E+00  0.34996269501E-01  0.35000000000E-01  0.51099999109E-03 0.  1.
       11   -1    0    0    0    0 -0.00000000000E+00 -0.00000000000E+00 -0.34996269501E-01  0.35000000000E-01  0.51099999109E-03 0. -1.
       22    1    1    2    0    0 -0.27739269037E-02 -0.25013474382E-02 -0.12853419518E-01  0.13385133648E-01  0.00000000000E+00 0. -1.
       22    1    1    2    0    0  0.12837467765E-02 -0.66412718120E-04 -0.21798314839E-01  0.21836184333E-01  0.00000000000E+00 0.  1.
       22    1    1    2    0    0  0.14901801273E-02  0.25677601563E-02  0.34651734357E-01  0.34778682019E-01  0.00000000000E+00 0.  1.
</event>
<event>
 5   0  0.6221259E+05  0.9118800E+02  0.7546771E-02  0.1180000E+00
      -11   -1    0    0    0    0  0.00000000000E+00  0.00000000000E+00  0.34996269501E-01  0.35000000000E-01  0.51099999109E-03 0. -1.
       11   -1    0    0    0    0 -0.00000000000E+00 -0.00000000000E+00 -0.34996269501E-01  0.35000000000E-01  0.51099999109E-03 0.  1.
       22    1    1    2    0    0  0.89614335356E-05  0.51254686899E-04  0.56611419026E-03  0.56850033126E-03  0.00000000000E+00 0. -1.
       22    1    1    2    0    0  0.43630349277E-02 -0.11309189164E-03 -0.34722833777E-01  0.34996057622E-01  0.00000000000E+00 0.  1.
       22    1    1    2    0    0 -0.43719963612E-02  0.61837204743E-04  0.34156719587E-01  0.34435442047E-01  0.00000000000E+00 0. -1.
</event>
<event>
 5   0  0.6221259E+05  0.9118800E+02  0.7546771E-02  0.1180000E+00
      -11   -1    0    0    0    0  0.00000000000E+00  0.00000000000E+00  0.34996269501E-01  0.35000000000E-01  0.51099999109E-03 0.  1.
       11   -1    0    0    0    0 -0.00000000000E+00 -0.00000000000E+00 -0.34996269501E-01  0.35000000000E-01  0.51099999109E-03 0. -1.
       22    1    1    2    0    0 -0.14467429380E-01  0.27399360684E-01 -0.16274679452E-01  0.34998523827E-01  0.00000000000E+00 0. -1.
       22    1    1    2    0    0  0.14470951353E-01 -0.27393748357E-01  0.16270511415E-01  0.34993648335E-01  0.00000000000E+00 0.  1.
       22    1    1    2    0    0 -0.35219723727E-05 -0.56123276057E-05  0.41680377145E-05  0.78278380756E-05  0.00000000000E+00 0.  1.
</event>
<event>
 5   0  0.6221259E+05  0.9118800E+02  0.7546771E-02  0.1180000E+00
      -11   -1    0    0    0    0  0.00000000000E+00  0.00000000000E+00  0.34996269501E-01  0.35000000000E-01  0.51099999109E-03 0. -1.
       11   -1    0    0    0    0 -0.00000000000E+00 -0.00000000000E+00 -0.34996269501E-01  0.35000000000E-01  0.51099999109E-03 0.  1.
       22    1    1    2    0    0  0.99755881941E-02  0.18190988025E-01  0.28173324600E-01  0.34988006862E-01  0.00000000000E+00 0. -1.
       22    1    1    2    0    0 -0.99848373098E-02 -0.18191021694E-01 -0.28066185351E-01  0.34904455397E-01  0.00000000000E+00 0.  1.
       22    1    1    2    0    0  0.92491156788E-05  0.33668225877E-07 -0.10713924853E-03  0.10753774151E-03  0.00000000000E+00 0. -1.
</event>
<event>
 5   0  0.6221259E+05  0.9118800E+02  0.7546771E-02  0.1180000E+00
      -11   -1    0    0    0    0  0.00000000000E+00  0.00000000000E+00  0.34996269501E-01  0.35000000000E-01  0.51099999109E-03 0.  1.
       11   -1    0    0    0    0 -0.00000000000E+00 -0.00000000000E+00 -0.34996269501E-01  0.35000000000E-01  0.51099999109E-03 0. -1.
       22    1    1    2    0    0  0.11711669634E-02  0.26189291205E-02 -0.34655992021E-01  0.34774533854E-01  0.00000000000E+00 0. -1.
       22    1    1    2    0    0 -0.14054430562E-02  0.37678543882E-03  0.22438891250E-02  0.26743739186E-02  0.00000000000E+00 0.  1.
       22    1    1    2    0    0  0.23427609282E-03 -0.29957145593E-02  0.32412102896E-01  0.32551092227E-01  0.00000000000E+00 0.  1.
</event>
<event>
 5   0  0.6221259E+05  0.9118800E+02  0.7546771E-02  0.1180000E+00
      -11   -1    0    0    0    0  0.00000000000E+00  0.00000000000E+00  0.34996269501E-01  0.35000000000E-01  0.51099999109E-03 0. -1.
       11   -1    0    0    0    0 -0.00000000000E+00 -0.00000000000E+00 -0.34996269501E-01  0.35000000000E-01  0.51099999109E-03 0.  1.
       22    1    1    2    0    0  0.21547261994E-01  0.33337839359E-02  0.27378840802E-01  0.34999993406E-01  0.00000000000E+00 0. -1.
       22    1    1    2    0    0  0.53884601535E-09 -0.13596218463E-08  0.72035310084E-08  0.73504956011E-08  0.00000000000E+00 0.  1.
       22    1    1    2    0    0 -0.21547262533E-01 -0.33337825763E-02 -0.27378848005E-01  0.34999999243E-01  0.00000000000E+00 0.  1.
</event>
<event>
 5   0  0.6221259E+05  0.9118800E+02  0.7546771E-02  0.1180000E+00
      -11   -1    0    0    0    0  0.00000000000E+00  0.00000000000E+00  0.34996269501E-01  0.35000000000E-01  0.51099999109E-03 0.  1.
       11   -1    0    0    0    0 -0.00000000000E+00 -0.00000000000E+00 -0.34996269501E-01  0.35000000000E-01  0.51099999109E-03 0. -1.
       22    1    1    2    0    0  0.79202150011E-03  0.86264654826E-04  0.86655415498E-03  0.11771387984E-02  0.00000000000E+00 0.  1.
       22    1    1    2    0    0  0.51322258611E-03  0.18912317011E-02  0.33909552829E-01  0.33966129127E-01  0.00000000000E+00 0.  1.
       22    1    1    2    0    0 -0.13052440862E-02 -0.19774963559E-02 -0.34776106984E-01  0.34856732075E-01  0.00000000000E+00 0. -1.
</event>
<event>
 5   0  0.6221259E+05  0.9118800E+02  0.7546771E-02  0.1180000E+00
      -11   -1    0    0    0    0  0.00000000000E+00  0.00000000000E+00  0.34996269501E-01  0.35000000000E-01  0.51099999109E-03 0.  1.
       11   -1    0    0    0    0 -0.00000000000E+00 -0.00000000000E+00 -0.34996269501E-01  0.35000000000E-01  0.51099999109E-03 0.  1.
       22    1    1    2    0    0  0.29250862631E-10  0.48206428469E-10 -0.34999823256E-01  0.34999684596E-01  0.00000000000E+00 0.  1.
       22    1    1    2    0    0  0.52913604263E-06  0.87203441180E-06  0.50929850608E-06  0.11400938274E-05  0.00000000000E+00 0.  1.
       22    1    1    2    0    0 -0.52916529349E-06 -0.87208261823E-06  0.34999313958E-01  0.34999175310E-01  0.00000000000E+00 0.  1.
</event>
<event>
 5   0  0.6221259E+05  0.9118800E+02  0.7546771E-02  0.1180000E+00
      -11   -1    0    0    0    0  0.00000000000E+00  0.00000000000E+00  0.34996269501E-01  0.35000000000E-01  0.51099999109E-03 0.  1.
       11   -1    0    0    0    0 -0.00000000000E+00 -0.00000000000E+00 -0.34996269501E-01  0.35000000000E-01  0.51099999109E-03 0. -1.
       22    1    1    2    0    0 -0.80509487520E-09  0.33738707557E-08  0.86370102487E-08  0.93074769766E-08  0.00000000000E+00 0.  1.
       22    1    1    2    0    0 -0.54901598161E-02  0.24435155151E-01 -0.24449563115E-01  0.34999997122E-01  0.00000000000E+00 0. -1.
       22    1    1    2    0    0  0.54901606212E-02 -0.24435158525E-01  0.24449554478E-01  0.34999993570E-01  0.00000000000E+00 0.  1.
</event>
<event>
 5   0  0.6221259E+05  0.9118800E+02  0.7546771E-02  0.1180000E+00
      -11   -1    0    0    0    0  0.00000000000E+00  0.00000000000E+00  0.34996269501E-01  0.35000000000E-01  0.51099999109E-03 0. -1.
       11   -1    0    0    0    0 -0.00000000000E+00 -0.00000000000E+00 -0.34996269501E-01  0.35000000000E-01  0.51099999109E-03 0.  1.
       22    1    1    2    0    0  0.82220085339E-03 -0.18961819585E-03 -0.39155061947E-03  0.93020491888E-03  0.00000000000E+00 0. -1.
       22    1    1    2    0    0 -0.12246498199E-02 -0.22248311496E-01  0.26512603388E-01  0.34632430900E-01  0.00000000000E+00 0. -1.
       22    1    1    2    0    0  0.40244896652E-03  0.22437929692E-01 -0.26121052768E-01  0.34437364181E-01  0.00000000000E+00 0.  1.
</event>
<event>
 5   0  0.6221259E+05  0.9118800E+02  0.7546771E-02  0.1180000E+00
      -11   -1    0    0    0    0  0.00000000000E+00  0.00000000000E+00  0.34996269501E-01  0.35000000000E-01  0.51099999109E-03 0.  1.
       11   -1    0    0    0    0 -0.00000000000E+00 -0.00000000000E+00 -0.34996269501E-01  0.35000000000E-01  0.51099999109E-03 0. -1.
       22    1    1    2    0    0 -0.22084125639E-06 -0.14132610500E-07  0.19053460126E-05  0.19181538048E-05  0.00000000000E+00 0.  1.
       22    1    1    2    0    0  0.20776150212E-02  0.59269182586E-02  0.34429971855E-01  0.34998111465E-01  0.00000000000E+00 0.  1.
       22    1    1    2    0    0 -0.20773941800E-02 -0.59269041260E-02 -0.34431877201E-01  0.34999970381E-01  0.00000000000E+00 0. -1.
</event>
<event>
 5   0  0.6221259E+05  0.9118800E+02  0.7546771E-02  0.1180000E+00
      -11   -1    0    0    0    0  0.00000000000E+00  0.00000000000E+00  0.34996269501E-01  0.35000000000E-01  0.51099999109E-03 0.  1.
       11   -1    0    0    0    0 -0.00000000000E+00 -0.00000000000E+00 -0.34996269501E-01  0.35000000000E-01  0.51099999109E-03 0. -1.
       22    1    1    2    0    0  0.54503948165E-03  0.29021540027E-03  0.34994512108E-01  0.34999959581E-01  0.00000000000E+00 0.  1.
       22    1    1    2    0    0 -0.54501096060E-03 -0.29022687315E-03 -0.34994546884E-01  0.34999994003E-01  0.00000000000E+00 0. -1.
       22    1    1    2    0    0 -0.28521047335E-07  0.11472879503E-07  0.34775817641E-07  0.46415887342E-07  0.00000000000E+00 0. -1.
</event>
<event>
 5   0  0.6221259E+05  0.9118800E+02  0.7546771E-02  0.1180000E+00
      -11   -1    0    0    0    0  0.00000000000E+00  0.00000000000E+00  0.34996269501E-01  0.35000000000E-01  0.51099999109E-03 0. -1.
       11   -1    0    0    0    0 -0.00000000000E+00 -0.00000000000E+00 -0.34996269501E-01  0.35000000000E-01  0.51099999109E-03 0.  1.
       22    1    1    2    0    0  0.75116442394E-02 -0.15103542024E-02 -0.34151042883E-01  0.34999995700E-01  0.00000000000E+00 0.  1.
       22    1    1    2    0    0 -0.75114578093E-02  0.15104371055E-02  0.34150245819E-01  0.34999181536E-01  0.00000000000E+00 0. -1.
       22    1    1    2    0    0 -0.18643006366E-06 -0.82903106308E-07  0.79706448218E-06  0.82276417181E-06  0.00000000000E+00 0. -1.
</event>
<event>
 5   0  0.6221259E+05  0.9118800E+02  0.7546771E-02  0.1180000E+00
      -11   -1    0    0    0    0  0.00000000000E+00  0.00000000000E+00  0.34996269501E-01  0.35000000000E-01  0.51099999109E-03 0. -1.
       11   -1    0    0    0    0 -0.00000000000E+00 -0.00000000000E+00 -0.34996269501E-01  0.35000000000E-01  0.51099999109E-03 0.  1.
       22    1    1    2    0    0  0.20800925236E-01  0.21215982598E-01  0.18496586929E-01  0.34998859071E-01  0.00000000000E+00 0. -1.
       22    1    1    2    0    0  0.19120235985E-06 -0.14203054582E-06  0.14622417681E-05  0.14815134177E-05  0.00000000000E+00 0.  1.
       22    1    1    2    0    0 -0.20801116438E-01 -0.21215840568E-01 -0.18498049170E-01  0.34999659415E-01  0.00000000000E+00 0.  1.
</event>
<event>
 5   0  0.6221259E+05  0.9118800E+02  0.7546771E-02  0.1180000E+00
      -11   -1    0    0    0    0  0.00000000000E+00  0.00000000000E+00  0.34996269501E-01  0.35000000000E-01  0.51099999109E-03 0. -1.
       11   -1    0    0    0    0 -0.00000000000E+00 -0.00000000000E+00 -0.34996269501E-01  0.35000000000E-01  0.51099999109E-03 0. -1.
       22    1    1    2    0    0 -0.29777362201E-08  0.60761379202E-10 -0.35000727219E-01  0.34999473998E-01  0.00000000000E+00 0. -1.
       22    1    1    2    0    0  0.40878252599E-04 -0.83412996441E-06  0.34210229620E-01  0.34208971873E-01  0.00000000000E+00 0. -1.
       22    1    1    2    0    0 -0.40875274863E-04  0.83406920303E-06  0.79049759985E-03  0.79155412900E-03  0.00000000000E+00 0.  1.
</event>
<event>
 5   0  0.6221259E+05  0.9118800E+02  0.7546771E-02  0.1180000E+00
      -11   -1    0    0    0    0  0.00000000000E+00  0.00000000000E+00  0.34996269501E-01  0.35000000000E-01  0.51099999109E-03 0. -1.
       11   -1    0    0    0    0 -0.00000000000E+00 -0.00000000000E+00 -0.34996269501E-01  0.35000000000E-01  0.51099999109E-03 0. -1.
       22    1    1    2    0    0  0.37370613214E-07 -0.12856517041E-07  0.68627987534E-07  0.79193771443E-07  0.00000000000E+00 0.  1.
       22    1    1    2    0    0 -0.37372903572E-07  0.12857304987E-07  0.35000485263E-01  0.34999926089E-01  0.00000000000E+00 0. -1.
       22    1    1    2    0    0  0.22903581242E-11 -0.78794608171E-12 -0.35000553891E-01  0.34999994718E-01  0.00000000000E+00 0. -1.
</event>
<event>
 5   0  0.6221259E+05  0.9118800E+02  0.7546771E-02  0.1180000E+00
      -11   -1    0    0    0    0  0.00000000000E+00  0.00000000000E+00  0.34996269501E-01  0.35000000000E-01  0.51099999109E-03 0. -1.
       11   -1    0    0    0    0 -0.00000000000E+00 -0.00000000000E+00 -0.34996269501E-01  0.35000000000E-01  0.51099999109E-03 0.  1.
       22    1    1    2    0    0  0.25375866654E-07  0.54117623067E-07  0.36564987777E-05  0.36569872796E-05  0.00000000000E+00 0.  1.
       22    1    1    2    0    0  0.15160310372E-03  0.10217015835E-02  0.34981097472E-01  0.34996343208E-01  0.00000000000E+00 0. -1.
       22    1    1    2    0    0 -0.15162847959E-03 -0.10217557011E-02 -0.34984753971E-01  0.34999999804E-01  0.00000000000E+00 0.  1.
</event>
<event>
 5   0  0.6221259E+05  0.9118800E+02  0.7546771E-02  0.1180000E+00
      -11   -1    0    0    0    0  0.00000000000E+00  0.00000000000E+00  0.34996269501E-01  0.35000000000E-01  0.51099999109E-03 0. -1.
       11   -1    0    0    0    0 -0.00000000000E+00 -0.00000000000E+00 -0.34996269501E-01  0.35000000000E-01  0.51099999109E-03 0.  1.
       22    1    1    2    0    0 -0.10734000269E-02 -0.20911729536E-01  0.28045398578E-01  0.34999957160E-01  0.00000000000E+00 0. -1.
       22    1    1    2    0    0  0.10734000325E-02  0.20911729135E-01 -0.28045446276E-01  0.34999995140E-01  0.00000000000E+00 0.  1.
       22    1    1    2    0    0 -0.56512281790E-11  0.40166468516E-09  0.47697512265E-07  0.47699203795E-07  0.00000000000E+00 0. -1.
</event>
<event>
 5   0  0.6221259E+05  0.9118800E+02  0.7546771E-02  0.1180000E+00
      -11   -1    0    0    0    0  0.00000000000E+00  0.00000000000E+00  0.34996269501E-01  0.35000000000E-01  0.51099999109E-03 0. -1.
       11   -1    0    0    0    0 -0.00000000000E+00 -0.00000000000E+00 -0.34996269501E-01  0.35000000000E-01  0.51099999109E-03 0.  1.
       22    1    1    2    0    0 -0.22175746909E-09 -0.51077739628E-09  0.78304935143E-08  0.78502674222E-08  0.00000000000E+00 0. -1.
       22    1    1    2    0    0 -0.31695805271E-01  0.11531790466E-01  0.93484430655E-02  0.34999995013E-01  0.00000000000E+00 0. -1.
       22    1    1    2    0    0  0.31695805493E-01 -0.11531789955E-01 -0.93484508960E-02  0.34999997137E-01  0.00000000000E+00 0.  1.
</event>
<event>
 5   0  0.6221259E+05  0.9118800E+02  0.7546771E-02  0.1180000E+00
      -11   -1    0    0    0    0  0.00000000000E+00  0.00000000000E+00  0.34996269501E-01  0.35000000000E-01  0.51099999109E-03 0.  1.
       11   -1    0    0    0    0 -0.00000000000E+00 -0.00000000000E+00 -0.34996269501E-01  0.35000000000E-01  0.51099999109E-03 0. -1.
       22    1    1    2    0    0  0.63564037190E-10 -0.48274114583E-10  0.11641362365E-07  0.11641635989E-07  0.00000000000E+00 0.  1.
       22    1    1    2    0    0  0.23074215075E-01  0.14700933323E-01  0.21828020885E-01  0.34999990538E-01  0.00000000000E+00 0.  1.
       22    1    1    2    0    0 -0.23074215139E-01 -0.14700933275E-01 -0.21828032527E-01  0.34999997820E-01  0.00000000000E+00 0. -1.
</event>
<event>
 5   0  0.6221259E+05  0.9118800E+02  0.7546771E-02  0.1180000E+00
      -11   -1    0    0    0    0  0.00000000000E+00  0.00000000000E+00  0.34996269501E-01  0.35000000000E-01  0.51099999109E-03 0.  1.
       11   -1    0    0    0    0 -0.00000000000E+00 -0.00000000000E+00 -0.34996269501E-01  0.35000000000E-01  0.51099999109E-03 0. -1.
       22    1    1    2    0    0 -0.56785438971E-03 -0.40979866125E-03  0.45100736602E-02  0.45641163407E-02  0.00000000000E+00 0. -1.
       22    1    1    2    0    0  0.26726745415E-02  0.52803704655E-02  0.29970608124E-01  0.30549351102E-01  0.00000000000E+00 0.  1.
       22    1    1    2    0    0 -0.21048201517E-02 -0.48705718043E-02 -0.34480681784E-01  0.34886532557E-01  0.00000000000E+00 0. -1.
</event>
<event>
 5   0  0.6221259E+05  0.9118800E+02  0.7546771E-02  0.1180000E+00
      -11   -1    0    0    0    0  0.00000000000E+00  0.00000000000E+00  0.34996269501E-01  0.35000000000E-01  0.51099999109E-03 0.  1.
       11   -1    0    0    0    0 -0.00000000000E+00 -0.00000000000E+00 -0.34996269501E-01  0.35000000000E-01  0.51099999109E-03 0. -1.
       22    1    1    2    0    0 -0.16419087706E-01 -0.10539623116E-01  0.29054584784E-01  0.34997699831E-01  0.00000000000E+00 0.  1.
       22    1    1    2    0    0  0.16417158260E-01  0.10539513390E-01 -0.29057270527E-01  0.34998991390E-01  0.00000000000E+00 0. -1.
       22    1    1    2    0    0  0.19294460173E-05  0.10972550252E-06  0.26857431356E-05  0.33087789002E-05  0.00000000000E+00 0.  1.
</event>
<event>
 5   0  0.6221259E+05  0.9118800E+02  0.7546771E-02  0.1180000E+00
      -11   -1    0    0    0    0  0.00000000000E+00  0.00000000000E+00  0.34996269501E-01  0.35000000000E-01  0.51099999109E-03 0. -1.
       11   -1    0    0    0    0 -0.00000000000E+00 -0.00000000000E+00 -0.34996269501E-01  0.35000000000E-01  0.51099999109E-03 0.  1.
       22    1    1    2    0    0  0.18974212482E-06  0.14899175962E-07  0.88732453184E-06  0.90750696095E-06  0.00000000000E+00 0.  1.
       22    1    1    2    0    0 -0.84927092525E-02  0.14995161291E-02 -0.33920867708E-01  0.34999998931E-01  0.00000000000E+00 0.  1.
       22    1    1    2    0    0  0.84925195104E-02 -0.14995310283E-02  0.33919980384E-01  0.34999093562E-01  0.00000000000E+00 0. -1.
</event>
<event>
 5   0  0.6221259E+05  0.9118800E+02  0.7546771E-02  0.1180000E+00
      -11   -1    0    0    0    0  0.00000000000E+00  0.00000000000E+00  0.34996269501E-01  0.35000000000E-01  0.51099999109E-03 0. -1.
       11   -1    0    0    0    0 -0.00000000000E+00 -0.00000000000E+00 -0.34996269501E-01  0.35000000000E-01  0.51099999109E-03 0.  1.
       22    1    1    2    0    0 -0.21971357692E-09  0.18515266238E-08 -0.37537627684E-09  0.19019285591E-08  0.00000000000E+00 0.  1.
       22    1    1    2    0    0 -0.11563271924E-02  0.98318004442E-02  0.33570798844E-01  0.34999998965E-01  0.00000000000E+00 0. -1.
       22    1    1    2    0    0  0.11563274121E-02 -0.98318022958E-02 -0.33570798469E-01  0.34999999133E-01  0.00000000000E+00 0.  1.
</event>
<event>
 5   0  0.6221259E+05  0.9118800E+02  0.7546771E-02  0.1180000E+00
      -11   -1    0    0    0    0  0.00000000000E+00  0.00000000000E+00  0.34996269501E-01  0.35000000000E-01  0.51099999109E-03 0. -1.
       11   -1    0    0    0    0 -0.00000000000E+00 -0.00000000000E+00 -0.34996269501E-01  0.35000000000E-01  0.51099999109E-03 0.  1.
       22    1    1    2    0    0 -0.30936781734E-08  0.22016555642E-07  0.10775295642E-06  0.11002272122E-06  0.00000000000E+00 0. -1.
       22    1    1    2    0    0  0.78302491440E-04  0.26238538896E-02 -0.34901419912E-01  0.34999997892E-01  0.00000000000E+00 0.  1.
       22    1    1    2    0    0 -0.78299397762E-04 -0.26238759061E-02  0.34901312159E-01  0.34999892086E-01  0.00000000000E+00 0. -1.
</event>
<event>
 5   0  0.6221259E+05  0.9118800E+02  0.7546771E-02  0.1180000E+00
      -11   -1    0    0    0    0  0.00000000000E+00  0.00000000000E+00  0.34996269501E-01  0.35000000000E-01  0.51099999109E-03 0.  1.
       11   -1    0    0    0    0 -0.00000000000E+00 -0.00000000000E+00 -0.34996269501E-01  0.35000000000E-01  0.51099999109E-03 0. -1.
       22    1    1    2    0    0  0.12366270731E-02 -0.11157104104E-02 -0.34960346734E-01  0.34999998571E-01  0.00000000000E+00 0. -1.
       22    1    1    2    0    0  0.11871204599E-07 -0.10982407529E-07  0.63881849427E-07  0.65897112683E-07  0.00000000000E+00 0.  1.
       22    1    1    2    0    0 -0.12366389443E-02  0.11157213929E-02  0.34960282852E-01  0.34999935531E-01  0.00000000000E+00 0.  1.
</event>
<event>
 5   0  0.6221259E+05  0.9118800E+02  0.7546771E-02  0.1180000E+00
      -11   -1    0    0    0    0  0.00000000000E+00  0.00000000000E+00  0.34996269501E-01  0.35000000000E-01  0.51099999109E-03 0.  1.
       11   -1    0    0    0    0 -0.00000000000E+00 -0.00000000000E+00 -0.34996269501E-01  0.35000000000E-01  0.51099999109E-03 0. -1.
       22    1    1    2    0    0  0.35470582247E-02  0.10159431747E-02  0.34804269939E-01  0.34999299544E-01  0.00000000000E+00 0.  1.
       22    1    1    2    0    0 -0.58911640087E-06  0.54894415218E-06  0.49974986784E-06  0.94770657189E-06  0.00000000000E+00 0. -1.
       22    1    1    2    0    0 -0.35464691083E-02 -0.10164921188E-02 -0.34804769689E-01  0.34999752749E-01  0.00000000000E+00 0. -1.
</event>
<event>
 5   0  0.6221259E+05  0.9118800E+02  0.7546771E-02  0.1180000E+00
      -11   -1    0    0    0    0  0.00000000000E+00  0.00000000000E+00  0.34996269501E-01  0.35000000000E-01  0.51099999109E-03 0.  1.
       11   -1    0    0    0    0 -0.00000000000E+00 -0.00000000000E+00 -0.34996269501E-01  0.35000000000E-01  0.51099999109E-03 0. -1.
       22    1    1    2    0    0  0.15257197833E-01 -0.20866890125E-01 -0.23594072471E-01  0.34998420606E-01  0.00000000000E+00 0. -1.
       22    1    1    2    0    0  0.25914842994E-06  0.10095470969E-06  0.95172483276E-05  0.95213111225E-05  0.00000000000E+00 0.  1.
       22    1    1    2    0    0 -0.15257456981E-01  0.20866789170E-01  0.23584555223E-01  0.34992058082E-01  0.00000000000E+00 0.  1.
</event>
<event>
 5   0  0.6221259E+05  0.9118800E+02  0.7546771E-02  0.1180000E+00
      -11   -1    0    0    0    0  0.00000000000E+00  0.00000000000E+00  0.34996269501E-01  0.35000000000E-01  0.51099999109E-03 0.  1.
       11   -1    0    0    0    0 -0.00000000000E+00 -0.00000000000E+00 -0.34996269501E-01  0.35000000000E-01  0.51099999109E-03 0.  1.
       22    1    1    2    0    0 -0.42191067693E-03  0.42782243909E-04 -0.69842885125E-03  0.81709350747E-03  0.00000000000E+00 0. -1.
       22    1    1    2    0    0 -0.79519485158E-04  0.62298201600E-04  0.34938678348E-01  0.34938824381E-01  0.00000000000E+00 0.  1.
       22    1    1    2    0    0  0.50143016209E-03 -0.10508044551E-03 -0.34240249496E-01  0.34244082112E-01  0.00000000000E+00 0.  1.
</event>
<event>
 5   0  0.6221259E+05  0.9118800E+02  0.7546771E-02  0.1180000E+00
      -11   -1    0    0    0    0  0.00000000000E+00  0.00000000000E+00  0.34996269501E-01  0.35000000000E-01  0.51099999109E-03 0.  1.
       11   -1    0    0    0    0 -0.00000000000E+00 -0.00000000000E+00 -0.34996269501E-01  0.35000000000E-01  0.51099999109E-03 0. -1.
       22    1    1    2    0    0  0.36107453283E-02  0.50868470412E-02 -0.34433647001E-01  0.34994135801E-01  0.00000000000E+00 0. -1.
       22    1    1    2    0    0 -0.35152616436E-02 -0.49992088312E-02  0.32617182756E-01  0.33184782119E-01  0.00000000000E+00 0.  1.
       22    1    1    2    0    0 -0.95483684778E-04 -0.87638209979E-04  0.18164642451E-02  0.18210820804E-02  0.00000000000E+00 0.  1.
</event>
<event>
 5   0  0.6221259E+05  0.9118800E+02  0.7546771E-02  0.1180000E+00
      -11   -1    0    0    0    0  0.00000000000E+00  0.00000000000E+00  0.34996269501E-01  0.35000000000E-01  0.51099999109E-03 0.  1.
       11   -1    0    0    0    0 -0.00000000000E+00 -0.00000000000E+00 -0.34996269501E-01  0.35000000000E-01  0.51099999109E-03 0. -1.
       22    1    1    2    0    0 -0.16743497269E-02 -0.21749125468E-03  0.34959180147E-01  0.34999928943E-01  0.00000000000E+00 0.  1.
       22    1    1    2    0    0  0.16743714567E-02  0.21747469730E-03 -0.34959248134E-01  0.34999997787E-01  0.00000000000E+00 0. -1.
       22    1    1    2    0    0 -0.21729855219E-07  0.16557381207E-07  0.67986306376E-07  0.73269852838E-07  0.00000000000E+00 0. -1.
</event>
<event>
 5   0  0.6221259E+05  0.9118800E+02  0.7546771E-02  0.1180000E+00
      -11   -1    0    0    0    0  0.00000000000E+00  0.00000000000E+00  0.34996269501E-01  0.35000000000E-01  0.51099999109E-03 0.  1.
       11   -1    0    0    0    0 -0.00000000000E+00 -0.00000000000E+00 -0.34996269501E-01  0.35000000000E-01  0.51099999109E-03 0. -1.
       22    1    1    2    0    0  0.49121799565E-03  0.23748697613E-02  0.21067700782E-02  0.32124416983E-02  0.00000000000E+00 0. -1.
       22    1    1    2    0    0 -0.22611952031E-01 -0.13935859596E-01 -0.22300690343E-01  0.34681830216E-01  0.00000000000E+00 0. -1.
       22    1    1    2    0    0  0.22120734036E-01  0.11560989835E-01  0.20193920265E-01  0.32105728086E-01  0.00000000000E+00 0.  1.
</event>
<event>
 5   0  0.6221259E+05  0.9118800E+02  0.7546771E-02  0.1180000E+00
      -11   -1    0    0    0    0  0.00000000000E+00  0.00000000000E+00  0.34996269501E-01  0.35000000000E-01  0.51099999109E-03 0. -1.
       11   -1    0    0    0    0 -0.00000000000E+00 -0.00000000000E+00 -0.34996269501E-01  0.35000000000E-01  0.51099999109E-03 0.  1.
       22    1    1    2    0    0 -0.33420439913E-02 -0.32579181269E-03  0.34807926687E-01  0.34969517563E-01  0.00000000000E+00 0. -1.
       22    1    1    2    0    0 -0.11241123063E-03  0.14975787446E-03 -0.32953176952E-03  0.37901832787E-03  0.00000000000E+00 0.  1.
       22    1    1    2    0    0  0.34544552220E-02  0.17603393823E-03 -0.34478394917E-01  0.34651464109E-01  0.00000000000E+00 0.  1.
</event>
<event>
 5   0  0.6221259E+05  0.9118800E+02  0.7546771E-02  0.1180000E+00
      -11   -1    0    0    0    0  0.00000000000E+00  0.00000000000E+00  0.34996269501E-01  0.35000000000E-01  0.51099999109E-03 0.  1.
       11   -1    0    0    0    0 -0.00000000000E+00 -0.00000000000E+00 -0.34996269501E-01  0.35000000000E-01  0.51099999109E-03 0. -1.
       22    1    1    2    0    0 -0.11385665173E-01 -0.13944946039E-01  0.50519304930E-03  0.18009722693E-01  0.00000000000E+00 0.  1.
       22    1    1    2    0    0  0.12271163325E-02  0.13028666544E-02  0.23199628543E-01  0.23268563354E-01  0.00000000000E+00 0.  1.
       22    1    1    2    0    0  0.10158548841E-01  0.12642079384E-01 -0.23704821592E-01  0.28721713953E-01  0.00000000000E+00 0. -1.
</event>
<event>
 5   0  0.6221259E+05  0.9118800E+02  0.7546771E-02  0.1180000E+00
      -11   -1    0    0    0    0  0.00000000000E+00  0.00000000000E+00  0.34996269501E-01  0.35000000000E-01  0.51099999109E-03 0. -1.
       11   -1    0    0    0    0 -0.00000000000E+00 -0.00000000000E+00 -0.34996269501E-01  0.35000000000E-01  0.51099999109E-03 0. -1.
       22    1    1    2    0    0 -0.25115547766E-02 -0.81644646707E-03 -0.34797626451E-01  0.34897697616E-01  0.00000000000E+00 0. -1.
       22    1    1    2    0    0  0.25115547766E-02  0.81644646707E-03  0.11213170703E-01  0.11519969160E-01  0.00000000000E+00 0.  1.
       22    1    1    2    0    0  0.00000000000E+00  0.00000000000E+00  0.23584455748E-01  0.23582333224E-01  0.00000000000E+00 0. -1.
</event>
<event>
 5   0  0.6221259E+05  0.9118800E+02  0.7546771E-02  0.1180000E+00
      -11   -1    0    0    0    0  0.00000000000E+00  0.00000000000E+00  0.34996269501E-01  0.35000000000E-01  0.51099999109E-03 0.  1.
       11   -1    0    0    0    0 -0.00000000000E+00 -0.00000000000E+00 -0.34996269501E-01  0.35000000000E-01  0.51099999109E-03 0.  1.
       22    1    1    2    0    0  0.10658073618E-09  0.17763685540E-09 -0.35003383265E-01  0.34999986269E-01  0.00000000000E+00 0.  1.
       22    1    1    2    0    0  0.10447850993E-05  0.17413309972E-05  0.61712404259E-04  0.61745806732E-04  0.00000000000E+00 0. -1.
       22    1    1    2    0    0 -0.10448916801E-05 -0.17415086341E-05  0.34941670861E-01  0.34938267924E-01  0.00000000000E+00 0.  1.
</event>
<event>
 5   0  0.6221259E+05  0.9118800E+02  0.7546771E-02  0.1180000E+00
      -11   -1    0    0    0    0  0.00000000000E+00  0.00000000000E+00  0.34996269501E-01  0.35000000000E-01  0.51099999109E-03 0. -1.
       11   -1    0    0    0    0 -0.00000000000E+00 -0.00000000000E+00 -0.34996269501E-01  0.35000000000E-01  0.51099999109E-03 0.  1.
       22    1    1    2    0    0  0.13755952509E-02  0.11015152430E-02 -0.34784649200E-01  0.34829260947E-01  0.00000000000E+00 0.  1.
       22    1    1    2    0    0 -0.14644621165E-02 -0.78208796320E-03  0.34799277431E-01  0.34838857911E-01  0.00000000000E+00 0. -1.
       22    1    1    2    0    0  0.88866865624E-04 -0.31942727981E-03 -0.14628230306E-04  0.33188114140E-03  0.00000000000E+00 0. -1.
</event>
<event>
 5   0  0.6221259E+05  0.9118800E+02  0.7546771E-02  0.1180000E+00
      -11   -1    0    0    0    0  0.00000000000E+00  0.00000000000E+00  0.34996269501E-01  0.35000000000E-01  0.51099999109E-03 0.  1.
       11   -1    0    0    0    0 -0.00000000000E+00 -0.00000000000E+00 -0.34996269501E-01  0.35000000000E-01  0.51099999109E-03 0. -1.
       22    1    1    2    0    0  0.66502074172E-02 -0.45810808571E-02  0.33516934733E-01  0.34476027532E-01  0.00000000000E+00 0.  1.
       22    1    1    2    0    0 -0.71117471993E-02  0.34301959949E-02 -0.14873648763E-01  0.16839495845E-01  0.00000000000E+00 0. -1.
       22    1    1    2    0    0  0.46153978205E-03  0.11508848622E-02 -0.18643285970E-01  0.18684476624E-01  0.00000000000E+00 0.  1.
</event>
<event>
 5   0  0.6221259E+05  0.9118800E+02  0.7546771E-02  0.1180000E+00
      -11   -1    0    0    0    0  0.00000000000E+00  0.00000000000E+00  0.34996269501E-01  0.35000000000E-01  0.51099999109E-03 0.  1.
       11   -1    0    0    0    0 -0.00000000000E+00 -0.00000000000E+00 -0.34996269501E-01  0.35000000000E-01  0.51099999109E-03 0. -1.
       22    1    1    2    0    0  0.11726538039E-02 -0.27338634360E-02 -0.32598390310E-01  0.32733838410E-01  0.00000000000E+00 0. -1.
       22    1    1    2    0    0  0.51661462001E-03  0.12824242404E-02  0.34383866230E-01  0.34411651508E-01  0.00000000000E+00 0.  1.
       22    1    1    2    0    0 -0.16892684239E-02  0.14514391956E-02 -0.17854759201E-02  0.28545100819E-02  0.00000000000E+00 0. -1.
</event>
<event>
 5   0  0.6221259E+05  0.9118800E+02  0.7546771E-02  0.1180000E+00
      -11   -1    0    0    0    0  0.00000000000E+00  0.00000000000E+00  0.34996269501E-01  0.35000000000E-01  0.51099999109E-03 0. -1.
       11   -1    0    0    0    0 -0.00000000000E+00 -0.00000000000E+00 -0.34996269501E-01  0.35000000000E-01  0.51099999109E-03 0. -1.
       22    1    1    2    0    0  0.23584231958E-03 -0.46589405585E-03  0.34838059497E-01  0.34841972797E-01  0.00000000000E+00 0. -1.
       22    1    1    2    0    0 -0.24304264767E-03  0.46525854263E-03 -0.34995992463E-01  0.34999928910E-01  0.00000000000E+00 0. -1.
       22    1    1    2    0    0  0.72003280909E-05  0.63551322293E-06  0.15793296581E-03  0.15809829313E-03  0.00000000000E+00 0. -1.
</event>
<event>
 5   0  0.6221259E+05  0.9118800E+02  0.7546771E-02  0.1180000E+00
      -11   -1    0    0    0    0  0.00000000000E+00  0.00000000000E+00  0.34996269501E-01  0.35000000000E-01  0.51099999109E-03 0.  1.
       11   -1    0    0    0    0 -0.00000000000E+00 -0.00000000000E+00 -0.34996269501E-01  0.35000000000E-01  0.51099999109E-03 0. -1.
       22    1    1    2    0    0  0.95188237785E-02  0.83211727302E-02 -0.20408944084E-01  0.24007809570E-01  0.00000000000E+00 0. -1.
       22    1    1    2    0    0  0.26467842299E-02 -0.13346263722E-02  0.29256484764E-01  0.29406267956E-01  0.00000000000E+00 0.  1.
       22    1    1    2    0    0 -0.12165608008E-01 -0.69865463580E-02 -0.88475406806E-02  0.16585922474E-01  0.00000000000E+00 0.  1.
</event>
<event>
 5   0  0.6221259E+05  0.9118800E+02  0.7546771E-02  0.1180000E+00
      -11   -1    0    0    0    0  0.00000000000E+00  0.00000000000E+00  0.34996269501E-01  0.35000000000E-01  0.51099999109E-03 0. -1.
       11   -1    0    0    0    0 -0.00000000000E+00 -0.00000000000E+00 -0.34996269501E-01  0.35000000000E-01  0.51099999109E-03 0. -1.
       22    1    1    2    0    0  0.86062962747E-03 -0.11541709271E-03 -0.34946388032E-01  0.34957174384E-01  0.00000000000E+00 0. -1.
       22    1    1    2    0    0 -0.88083203235E-03 -0.68727869767E-03  0.30751114925E-01  0.30771403708E-01  0.00000000000E+00 0. -1.
       22    1    1    2    0    0  0.20202404880E-04  0.80269579038E-03  0.41952731071E-02  0.42714219075E-02  0.00000000000E+00 0.  1.
</event>
<event>
 5   0  0.6221259E+05  0.9118800E+02  0.7546771E-02  0.1180000E+00
      -11   -1    0    0    0    0  0.00000000000E+00  0.00000000000E+00  0.34996269501E-01  0.35000000000E-01  0.51099999109E-03 0. -1.
       11   -1    0    0    0    0 -0.00000000000E+00 -0.00000000000E+00 -0.34996269501E-01  0.35000000000E-01  0.51099999109E-03 0.  1.
       22    1    1    2    0    0 -0.63507621717E-02 -0.11774482127E-01 -0.29146189798E-01  0.32069783119E-01  0.00000000000E+00 0.  1.
       22    1    1    2    0    0 -0.49433496299E-03 -0.35936718353E-03  0.22475944585E-01  0.22484252196E-01  0.00000000000E+00 0. -1.
       22    1    1    2    0    0  0.68450971347E-02  0.12133849310E-01  0.66702452136E-02  0.15445964686E-01  0.00000000000E+00 0. -1.
</event>
<event>
 5   0  0.6221259E+05  0.9118800E+02  0.7546771E-02  0.1180000E+00
      -11   -1    0    0    0    0  0.00000000000E+00  0.00000000000E+00  0.34996269501E-01  0.35000000000E-01  0.51099999109E-03 0. -1.
       11   -1    0    0    0    0 -0.00000000000E+00 -0.00000000000E+00 -0.34996269501E-01  0.35000000000E-01  0.51099999109E-03 0.  1.
       22    1    1    2    0    0  0.61586483376E-06  0.17253757868E-05  0.17639630229E-05  0.25431823854E-05  0.00000000000E+00 0.  1.
       22    1    1    2    0    0 -0.29660228062E-03 -0.56044283575E-03  0.34992118305E-01  0.34997862972E-01  0.00000000000E+00 0. -1.
       22    1    1    2    0    0  0.29598641579E-03  0.55871745996E-03 -0.34993882268E-01  0.34999593846E-01  0.00000000000E+00 0.  1.
</event>
<event>
 5   0  0.6221259E+05  0.9118800E+02  0.7546771E-02  0.1180000E+00
      -11   -1    0    0    0    0  0.00000000000E+00  0.00000000000E+00  0.34996269501E-01  0.35000000000E-01  0.51099999109E-03 0. -1.
       11   -1    0    0    0    0 -0.00000000000E+00 -0.00000000000E+00 -0.34996269501E-01  0.35000000000E-01  0.51099999109E-03 0.  1.
       22    1    1    2    0    0 -0.26612774112E-02  0.25830564995E-02 -0.34802951241E-01  0.34999999906E-01  0.00000000000E+00 0.  1.
       22    1    1    2    0    0  0.26612766634E-02 -0.25830569080E-02  0.34802949580E-01  0.34999998227E-01  0.00000000000E+00 0. -1.
       22    1    1    2    0    0  0.74783232388E-09  0.40850915138E-09  0.16609977576E-08  0.18668279145E-08  0.00000000000E+00 0. -1.
</event>
<event>
 5   0  0.6221259E+05  0.9118800E+02  0.7546771E-02  0.1180000E+00
      -11   -1    0    0    0    0  0.00000000000E+00  0.00000000000E+00  0.34996269501E-01  0.35000000000E-01  0.51099999109E-03 0. -1.
       11   -1    0    0    0    0 -0.00000000000E+00 -0.00000000000E+00 -0.34996269501E-01  0.35000000000E-01  0.51099999109E-03 0.  1.
       22    1    1    2    0    0  0.67662130112E-04  0.11331916467E-02  0.34981584122E-01  0.34999998988E-01  0.00000000000E+00 0. -1.
       22    1    1    2    0    0 -0.56302735981E-09 -0.76861332151E-09  0.80419523147E-09  0.12467943761E-08  0.00000000000E+00 0.  1.
       22    1    1    2    0    0 -0.67661567085E-04 -0.11331908780E-02 -0.34981584926E-01  0.34999999766E-01  0.00000000000E+00 0.  1.
</event>
<event>
 5   0  0.6221259E+05  0.9118800E+02  0.7546771E-02  0.1180000E+00
      -11   -1    0    0    0    0  0.00000000000E+00  0.00000000000E+00  0.34996269501E-01  0.35000000000E-01  0.51099999109E-03 0. -1.
       11   -1    0    0    0    0 -0.00000000000E+00 -0.00000000000E+00 -0.34996269501E-01  0.35000000000E-01  0.51099999109E-03 0.  1.
       22    1    1    2    0    0  0.50693111230E-04  0.25436473312E-02 -0.30276296475E-01  0.30383002481E-01  0.00000000000E+00 0.  1.
       22    1    1    2    0    0  0.10748856905E-02 -0.19210063435E-02  0.34822659780E-01  0.34892166438E-01  0.00000000000E+00 0. -1.
       22    1    1    2    0    0 -0.11255788018E-02 -0.62264098769E-03 -0.45463633047E-02  0.47248310802E-02  0.00000000000E+00 0. -1.
</event>
<event>
 5   0  0.6221259E+05  0.9118800E+02  0.7546771E-02  0.1180000E+00
      -11   -1    0    0    0    0  0.00000000000E+00  0.00000000000E+00  0.34996269501E-01  0.35000000000E-01  0.51099999109E-03 0.  1.
       11   -1    0    0    0    0 -0.00000000000E+00 -0.00000000000E+00 -0.34996269501E-01  0.35000000000E-01  0.51099999109E-03 0.  1.
       22    1    1    2    0    0  0.12186992548E-11 -0.40528185025E-12 -0.35002372191E-01  0.34999999935E-01  0.00000000000E+00 0.  1.
       22    1    1    2    0    0 -0.13978240289E-07  0.46485029555E-08  0.35001745038E-01  0.34999372740E-01  0.00000000000E+00 0.  1.
       22    1    1    2    0    0  0.13977021590E-07 -0.46480976737E-08  0.62715275814E-06  0.62732570805E-06  0.00000000000E+00 0. -1.
</event>
<event>
 5   0  0.6221259E+05  0.9118800E+02  0.7546771E-02  0.1180000E+00
      -11   -1    0    0    0    0  0.00000000000E+00  0.00000000000E+00  0.34996269501E-01  0.35000000000E-01  0.51099999109E-03 0.  1.
       11   -1    0    0    0    0 -0.00000000000E+00 -0.00000000000E+00 -0.34996269501E-01  0.35000000000E-01  0.51099999109E-03 0. -1.
       22    1    1    2    0    0 -0.10266097427E-01 -0.53700851618E-02 -0.33026667833E-01  0.34999876560E-01  0.00000000000E+00 0. -1.
       22    1    1    2    0    0  0.10266122193E-01  0.53703007942E-02  0.33023122639E-01  0.34996571608E-01  0.00000000000E+00 0.  1.
       22    1    1    2    0    0 -0.24765757383E-07 -0.21563234756E-06  0.35451940935E-05  0.35518321769E-05  0.00000000000E+00 0.  1.
</event>
<event>
 5   0  0.6221259E+05  0.9118800E+02  0.7546771E-02  0.1180000E+00
      -11   -1    0    0    0    0  0.00000000000E+00  0.00000000000E+00  0.34996269501E-01  0.35000000000E-01  0.51099999109E-03 0. -1.
       11   -1    0    0    0    0 -0.00000000000E+00 -0.00000000000E+00 -0.34996269501E-01  0.35000000000E-01  0.51099999109E-03 0.  1.
       22    1    1    2    0    0  0.10579774709E-02  0.17240282468E-02 -0.34941492664E-01  0.34999992847E-01  0.00000000000E+00 0.  1.
       22    1    1    2    0    0 -0.10581753481E-02 -0.17238777697E-02  0.34934869212E-01  0.34993379038E-01  0.00000000000E+00 0. -1.
       22    1    1    2    0    0  0.19787716336E-06 -0.15047707857E-06  0.66234518162E-05  0.66281153192E-05  0.00000000000E+00 0.  1.
</event>
<event>
 5   0  0.6221259E+05  0.9118800E+02  0.7546771E-02  0.1180000E+00
      -11   -1    0    0    0    0  0.00000000000E+00  0.00000000000E+00  0.34996269501E-01  0.35000000000E-01  0.51099999109E-03 0.  1.
       11   -1    0    0    0    0 -0.00000000000E+00 -0.00000000000E+00 -0.34996269501E-01  0.35000000000E-01  0.51099999109E-03 0. -1.
       22    1    1    2    0    0 -0.46961854482E-02 -0.21250839098E-02 -0.34617657629E-01  0.34999319409E-01  0.00000000000E+00 0. -1.
       22    1    1    2    0    0 -0.34296283669E-05 -0.32448375258E-05  0.36666003087E-04  0.36968731432E-04  0.00000000000E+00 0.  1.
       22    1    1    2    0    0  0.46996150765E-02  0.21283287473E-02  0.34580991626E-01  0.34963711859E-01  0.00000000000E+00 0.  1.
</event>
<event>
 5   0  0.6221259E+05  0.9118800E+02  0.7546771E-02  0.1180000E+00
      -11   -1    0    0    0    0  0.00000000000E+00  0.00000000000E+00  0.34996269501E-01  0.35000000000E-01  0.51099999109E-03 0. -1.
       11   -1    0    0    0    0 -0.00000000000E+00 -0.00000000000E+00 -0.34996269501E-01  0.35000000000E-01  0.51099999109E-03 0.  1.
       22    1    1    2    0    0  0.38315856450E-08  0.25389803303E-08  0.23009508676E-06  0.23014099248E-06  0.00000000000E+00 0.  1.
       22    1    1    2    0    0  0.41625155497E-02 -0.86636141775E-03  0.34740564473E-01  0.34999770538E-01  0.00000000000E+00 0. -1.
       22    1    1    2    0    0 -0.41625193813E-02  0.86635887877E-03 -0.34740794568E-01  0.34999999321E-01  0.00000000000E+00 0.  1.
</event>
<event>
 5   0  0.6221259E+05  0.9118800E+02  0.7546771E-02  0.1180000E+00
      -11   -1    0    0    0    0  0.00000000000E+00  0.00000000000E+00  0.34996269501E-01  0.35000000000E-01  0.51099999109E-03 0.  1.
       11   -1    0    0    0    0 -0.00000000000E+00 -0.00000000000E+00 -0.34996269501E-01  0.35000000000E-01  0.51099999109E-03 0. -1.
       22    1    1    2    0    0 -0.20047437273E-03  0.21244441342E-02 -0.34934889561E-01  0.34999999450E-01  0.00000000000E+00 0. -1.
       22    1    1    2    0    0  0.20046255215E-03 -0.21244496450E-02  0.34934732300E-01  0.34999842749E-01  0.00000000000E+00 0.  1.
       22    1    1    2    0    0  0.11820574184E-07  0.55107872988E-08  0.15726119422E-06  0.15780107084E-06  0.00000000000E+00 0.  1.
</event>
<event>
 5   0  0.6221259E+05  0.9118800E+02  0.7546771E-02  0.1180000E+00
      -11   -1    0    0    0    0  0.00000000000E+00  0.00000000000E+00  0.34996269501E-01  0.35000000000E-01  0.51099999109E-03 0.  1.
       11   -1    0    0    0    0 -0.00000000000E+00 -0.00000000000E+00 -0.34996269501E-01  0.35000000000E-01  0.51099999109E-03 0. -1.
       22    1    1    2    0    0 -0.90740537369E-02 -0.28581815114E-01  0.18047988164E-01  0.34999835474E-01  0.00000000000E+00 0.  1.
       22    1    1    2    0    0 -0.26947794971E-06  0.31292096368E-07  0.24027364716E-07  0.27235064702E-06  0.00000000000E+00 0.  1.
       22    1    1    2    0    0  0.90743232149E-02  0.28581783822E-01 -0.18048012192E-01  0.34999892176E-01  0.00000000000E+00 0. -1.
</event>
<event>
 5   0  0.6221259E+05  0.9118800E+02  0.7546771E-02  0.1180000E+00
      -11   -1    0    0    0    0  0.00000000000E+00  0.00000000000E+00  0.34996269501E-01  0.35000000000E-01  0.51099999109E-03 0.  1.
       11   -1    0    0    0    0 -0.00000000000E+00 -0.00000000000E+00 -0.34996269501E-01  0.35000000000E-01  0.51099999109E-03 0. -1.
       22    1    1    2    0    0 -0.91994519075E-03  0.51367287029E-03  0.34981804186E-01  0.34997668252E-01  0.00000000000E+00 0.  1.
       22    1    1    2    0    0  0.92005943107E-03 -0.51358178412E-03 -0.34984133340E-01  0.34999998016E-01  0.00000000000E+00 0. -1.
       22    1    1    2    0    0 -0.11424031444E-06 -0.91086171981E-07  0.23291538612E-05  0.23337320432E-05  0.00000000000E+00 0.  1.
</event>
<event>
 5   0  0.6221259E+05  0.9118800E+02  0.7546771E-02  0.1180000E+00
      -11   -1    0    0    0    0  0.00000000000E+00  0.00000000000E+00  0.34996269501E-01  0.35000000000E-01  0.51099999109E-03 0. -1.
       11   -1    0    0    0    0 -0.00000000000E+00 -0.00000000000E+00 -0.34996269501E-01  0.35000000000E-01  0.51099999109E-03 0.  1.
       22    1    1    2    0    0 -0.18443043896E-05 -0.27318182313E-05  0.17964055292E-04  0.18263941855E-04  0.00000000000E+00 0. -1.
       22    1    1    2    0    0  0.37577779185E-03  0.97778336945E-03 -0.34984215203E-01  0.34999894038E-01  0.00000000000E+00 0.  1.
       22    1    1    2    0    0 -0.37393348746E-03 -0.97505155121E-03  0.34966251148E-01  0.34981842020E-01  0.00000000000E+00 0. -1.
</event>
<event>
 5   0  0.6221259E+05  0.9118800E+02  0.7546771E-02  0.1180000E+00
      -11   -1    0    0    0    0  0.00000000000E+00  0.00000000000E+00  0.34996269501E-01  0.35000000000E-01  0.51099999109E-03 0. -1.
       11   -1    0    0    0    0 -0.00000000000E+00 -0.00000000000E+00 -0.34996269501E-01  0.35000000000E-01  0.51099999109E-03 0. -1.
       22    1    1    2    0    0 -0.10465386409E-06  0.14505614732E-06  0.22704297932E-05  0.22774646349E-05  0.00000000000E+00 0. -1.
       22    1    1    2    0    0 -0.66825574852E-11  0.92624008821E-11 -0.35000735014E-01  0.34999996506E-01  0.00000000000E+00 0. -1.
       22    1    1    2    0    0  0.10466054665E-06 -0.14506540972E-06  0.34998464584E-01  0.34997726029E-01  0.00000000000E+00 0. -1.
</event>
<event>
 5   0  0.6221259E+05  0.9118800E+02  0.7546771E-02  0.1180000E+00
      -11   -1    0    0    0    0  0.00000000000E+00  0.00000000000E+00  0.34996269501E-01  0.35000000000E-01  0.51099999109E-03 0. -1.
       11   -1    0    0    0    0 -0.00000000000E+00 -0.00000000000E+00 -0.34996269501E-01  0.35000000000E-01  0.51099999109E-03 0.  1.
       22    1    1    2    0    0  0.44554639411E-03  0.64806128829E-04  0.57591058070E-03  0.73101601938E-03  0.00000000000E+00 0. -1.
       22    1    1    2    0    0  0.11466333743E-01 -0.23378628995E-01  0.22467083156E-01  0.34391960234E-01  0.00000000000E+00 0. -1.
       22    1    1    2    0    0 -0.11911880137E-01  0.23313822866E-01 -0.23042993737E-01  0.34877023746E-01  0.00000000000E+00 0.  1.
</event>
<event>
 5   0  0.6221259E+05  0.9118800E+02  0.7546771E-02  0.1180000E+00
      -11   -1    0    0    0    0  0.00000000000E+00  0.00000000000E+00  0.34996269501E-01  0.35000000000E-01  0.51099999109E-03 0.  1.
       11   -1    0    0    0    0 -0.00000000000E+00 -0.00000000000E+00 -0.34996269501E-01  0.35000000000E-01  0.51099999109E-03 0. -1.
       22    1    1    2    0    0  0.64832409185E-02  0.66332791986E-02  0.33744195880E-01  0.34995764906E-01  0.00000000000E+00 0.  1.
       22    1    1    2    0    0  0.11001908378E-06  0.73657691900E-07  0.42936731017E-05  0.42957139521E-05  0.00000000000E+00 0. -1.
       22    1    1    2    0    0 -0.64833509376E-02 -0.66333528562E-02 -0.33748489553E-01  0.34999939380E-01  0.00000000000E+00 0. -1.
</event>
<event>
 5   0  0.6221259E+05  0.9118800E+02  0.7546771E-02  0.1180000E+00
      -11   -1    0    0    0    0  0.00000000000E+00  0.00000000000E+00  0.34996269501E-01  0.35000000000E-01  0.51099999109E-03 0. -1.
       11   -1    0    0    0    0 -0.00000000000E+00 -0.00000000000E+00 -0.34996269501E-01  0.35000000000E-01  0.51099999109E-03 0. -1.
       22    1    1    2    0    0  0.34092775926E-02  0.56688695853E-03  0.15793820459E-01  0.16167538440E-01  0.00000000000E+00 0.  1.
       22    1    1    2    0    0  0.12316425241E-03  0.35390037809E-04 -0.34644234103E-01  0.34644471110E-01  0.00000000000E+00 0. -1.
       22    1    1    2    0    0 -0.35324418450E-02 -0.60227699634E-03  0.18850413644E-01  0.19187990450E-01  0.00000000000E+00 0. -1.
</event>
<event>
 5   0  0.6221259E+05  0.9118800E+02  0.7546771E-02  0.1180000E+00
      -11   -1    0    0    0    0  0.00000000000E+00  0.00000000000E+00  0.34996269501E-01  0.35000000000E-01  0.51099999109E-03 0. -1.
       11   -1    0    0    0    0 -0.00000000000E+00 -0.00000000000E+00 -0.34996269501E-01  0.35000000000E-01  0.51099999109E-03 0.  1.
       22    1    1    2    0    0 -0.25570731861E-05  0.50921049247E-05  0.19201521452E-04  0.20029143314E-04  0.00000000000E+00 0. -1.
       22    1    1    2    0    0  0.32737576786E-02  0.22129723441E-02 -0.34775696726E-01  0.34999483121E-01  0.00000000000E+00 0.  1.
       22    1    1    2    0    0 -0.32712006054E-02 -0.22180644490E-02  0.34756495205E-01  0.34980487736E-01  0.00000000000E+00 0. -1.
</event>
<event>
 5   0  0.6221259E+05  0.9118800E+02  0.7546771E-02  0.1180000E+00
      -11   -1    0    0    0    0  0.00000000000E+00  0.00000000000E+00  0.34996269501E-01  0.35000000000E-01  0.51099999109E-03 0. -1.
       11   -1    0    0    0    0 -0.00000000000E+00 -0.00000000000E+00 -0.34996269501E-01  0.35000000000E-01  0.51099999109E-03 0.  1.
       22    1    1    2    0    0  0.27152278816E-02 -0.11528793380E-02  0.10200604699E-01  0.10618565319E-01  0.00000000000E+00 0.  1.
       22    1    1    2    0    0 -0.12805771124E-02 -0.56105484178E-03 -0.34726134304E-01  0.34754266845E-01  0.00000000000E+00 0.  1.
       22    1    1    2    0    0 -0.14346507693E-02  0.17139341798E-02  0.24525529605E-01  0.24627167836E-01  0.00000000000E+00 0. -1.
</event>
<event>
 5   0  0.6221259E+05  0.9118800E+02  0.7546771E-02  0.1180000E+00
      -11   -1    0    0    0    0  0.00000000000E+00  0.00000000000E+00  0.34996269501E-01  0.35000000000E-01  0.51099999109E-03 0. -1.
       11   -1    0    0    0    0 -0.00000000000E+00 -0.00000000000E+00 -0.34996269501E-01  0.35000000000E-01  0.51099999109E-03 0.  1.
       22    1    1    2    0    0  0.11438193121E-05  0.89721974304E-06  0.17762495689E-05  0.22952970215E-05  0.00000000000E+00 0.  1.
       22    1    1    2    0    0 -0.36427023010E-02  0.17339595864E-02 -0.34766480021E-01  0.34999771841E-01  0.00000000000E+00 0.  1.
       22    1    1    2    0    0  0.36415584817E-02 -0.17348568061E-02  0.34764703771E-01  0.34997932862E-01  0.00000000000E+00 0. -1.
</event>
<event>
 5   0  0.6221259E+05  0.9118800E+02  0.7546771E-02  0.1180000E+00
      -11   -1    0    0    0    0  0.00000000000E+00  0.00000000000E+00  0.34996269501E-01  0.35000000000E-01  0.51099999109E-03 0. -1.
       11   -1    0    0    0    0 -0.00000000000E+00 -0.00000000000E+00 -0.34996269501E-01  0.35000000000E-01  0.51099999109E-03 0.  1.
       22    1    1    2    0    0 -0.33758389940E-02  0.73197655838E-02 -0.34059128391E-01  0.34999992626E-01  0.00000000000E+00 0.  1.
       22    1    1    2    0    0  0.33758597218E-02 -0.73197885534E-02  0.34059048866E-01  0.34999922043E-01  0.00000000000E+00 0. -1.
       22    1    1    2    0    0 -0.20727760141E-07  0.22969572780E-07  0.79524518819E-07  0.85331063555E-07  0.00000000000E+00 0.  1.
</event>
<event>
 5   0  0.6221259E+05  0.9118800E+02  0.7546771E-02  0.1180000E+00
      -11   -1    0    0    0    0  0.00000000000E+00  0.00000000000E+00  0.34996269501E-01  0.35000000000E-01  0.51099999109E-03 0.  1.
       11   -1    0    0    0    0 -0.00000000000E+00 -0.00000000000E+00 -0.34996269501E-01  0.35000000000E-01  0.51099999109E-03 0. -1.
       22    1    1    2    0    0  0.29781937404E-02 -0.15287865605E-02  0.34839439527E-01  0.34999905327E-01  0.00000000000E+00 0.  1.
       22    1    1    2    0    0 -0.29782131526E-02  0.15288012281E-02 -0.34839531687E-01  0.34999999356E-01  0.00000000000E+00 0. -1.
       22    1    1    2    0    0  0.19412278345E-07 -0.14667626914E-07  0.92159366594E-07  0.95316969533E-07  0.00000000000E+00 0.  1.
</event>
<event>
 5   0  0.6221259E+05  0.9118800E+02  0.7546771E-02  0.1180000E+00
      -11   -1    0    0    0    0  0.00000000000E+00  0.00000000000E+00  0.34996269501E-01  0.35000000000E-01  0.51099999109E-03 0.  1.
       11   -1    0    0    0    0 -0.00000000000E+00 -0.00000000000E+00 -0.34996269501E-01  0.35000000000E-01  0.51099999109E-03 0. -1.
       22    1    1    2    0    0  0.55491511921E-04  0.15871037821E-03 -0.52297316523E-03  0.54933525610E-03  0.00000000000E+00 0.  1.
       22    1    1    2    0    0 -0.28759014416E-01 -0.15216643101E-01 -0.12032870211E-01  0.34690302722E-01  0.00000000000E+00 0. -1.
       22    1    1    2    0    0  0.28703522904E-01  0.15057932723E-01  0.12555843376E-01  0.34760362022E-01  0.00000000000E+00 0.  1.
</event>
<event>
 5   0  0.6221259E+05  0.9118800E+02  0.7546771E-02  0.1180000E+00
      -11   -1    0    0    0    0  0.00000000000E+00  0.00000000000E+00  0.34996269501E-01  0.35000000000E-01  0.51099999109E-03 0.  1.
       11   -1    0    0    0    0 -0.00000000000E+00 -0.00000000000E+00 -0.34996269501E-01  0.35000000000E-01  0.51099999109E-03 0. -1.
       22    1    1    2    0    0 -0.11728933647E-02  0.13750650865E-03  0.34980067758E-01  0.34999996103E-01  0.00000000000E+00 0.  1.
       22    1    1    2    0    0  0.70479241153E-09 -0.44132032403E-09  0.38664277494E-08  0.39548400110E-08  0.00000000000E+00 0.  1.
       22    1    1    2    0    0  0.11728926599E-02 -0.13750606733E-03 -0.34980071624E-01  0.34999999942E-01  0.00000000000E+00 0. -1.
</event>
<event>
 5   0  0.6221259E+05  0.9118800E+02  0.7546771E-02  0.1180000E+00
      -11   -1    0    0    0    0  0.00000000000E+00  0.00000000000E+00  0.34996269501E-01  0.35000000000E-01  0.51099999109E-03 0.  1.
       11   -1    0    0    0    0 -0.00000000000E+00 -0.00000000000E+00 -0.34996269501E-01  0.35000000000E-01  0.51099999109E-03 0.  1.
       22    1    1    2    0    0  0.22879836376E-03  0.14625358623E-03  0.34998934834E-01  0.34999988261E-01  0.00000000000E+00 0.  1.
       22    1    1    2    0    0 -0.50333075135E-08 -0.38582356293E-08  0.10908666068E-07  0.12618207562E-07  0.00000000000E+00 0.  1.
       22    1    1    2    0    0 -0.22879333046E-03 -0.14624972800E-03 -0.34998945742E-01  0.34999999121E-01  0.00000000000E+00 0.  1.
</event>
<event>
 5   0  0.6221259E+05  0.9118800E+02  0.7546771E-02  0.1180000E+00
      -11   -1    0    0    0    0  0.00000000000E+00  0.00000000000E+00  0.34996269501E-01  0.35000000000E-01  0.51099999109E-03 0.  1.
       11   -1    0    0    0    0 -0.00000000000E+00 -0.00000000000E+00 -0.34996269501E-01  0.35000000000E-01  0.51099999109E-03 0. -1.
       22    1    1    2    0    0 -0.61999829673E-03  0.76666795260E-03 -0.34986107860E-01  0.34999998869E-01  0.00000000000E+00 0. -1.
       22    1    1    2    0    0 -0.12216465447E-07 -0.18322776690E-08  0.35796391882E-07  0.37867940811E-07  0.00000000000E+00 0. -1.
       22    1    1    2    0    0  0.62001051319E-03 -0.76666612032E-03  0.34986072064E-01  0.34999963263E-01  0.00000000000E+00 0.  1.
</event>
<event>
 5   0  0.6221259E+05  0.9118800E+02  0.7546771E-02  0.1180000E+00
      -11   -1    0    0    0    0  0.00000000000E+00  0.00000000000E+00  0.34996269501E-01  0.35000000000E-01  0.51099999109E-03 0.  1.
       11   -1    0    0    0    0 -0.00000000000E+00 -0.00000000000E+00 -0.34996269501E-01  0.35000000000E-01  0.51099999109E-03 0. -1.
       22    1    1    2    0    0 -0.16375762451E-02  0.56482041987E-02 -0.34502407615E-01  0.34999999970E-01  0.00000000000E+00 0. -1.
       22    1    1    2    0    0  0.16375766049E-02 -0.56482017648E-02  0.34502387386E-01  0.34999979652E-01  0.00000000000E+00 0.  1.
       22    1    1    2    0    0 -0.35984743198E-09 -0.24339291839E-08  0.20229001074E-07  0.20378076108E-07  0.00000000000E+00 0. -1.
</event>
<event>
 5   0  0.6221259E+05  0.9118800E+02  0.7546771E-02  0.1180000E+00
      -11   -1    0    0    0    0  0.00000000000E+00  0.00000000000E+00  0.34996269501E-01  0.35000000000E-01  0.51099999109E-03 0. -1.
       11   -1    0    0    0    0 -0.00000000000E+00 -0.00000000000E+00 -0.34996269501E-01  0.35000000000E-01  0.51099999109E-03 0.  1.
       22    1    1    2    0    0 -0.18070557760E-02  0.36134832326E-02  0.17315363223E-01  0.17780453178E-01  0.00000000000E+00 0. -1.
       22    1    1    2    0    0  0.23353957224E-02 -0.46089235644E-02 -0.34556994724E-01  0.34941123822E-01  0.00000000000E+00 0.  1.
       22    1    1    2    0    0 -0.52833994645E-03  0.99544033180E-03  0.17241631501E-01  0.17278423000E-01  0.00000000000E+00 0. -1.
</event>
<event>
 5   0  0.6221259E+05  0.9118800E+02  0.7546771E-02  0.1180000E+00
      -11   -1    0    0    0    0  0.00000000000E+00  0.00000000000E+00  0.34996269501E-01  0.35000000000E-01  0.51099999109E-03 0. -1.
       11   -1    0    0    0    0 -0.00000000000E+00 -0.00000000000E+00 -0.34996269501E-01  0.35000000000E-01  0.51099999109E-03 0.  1.
       22    1    1    2    0    0 -0.48124044799E-02  0.99856749485E-02 -0.33198298966E-01  0.34999999933E-01  0.00000000000E+00 0.  1.
       22    1    1    2    0    0 -0.48015918887E-09 -0.72566239530E-09  0.24699820593E-08  0.26187688199E-08  0.00000000000E+00 0. -1.
       22    1    1    2    0    0  0.48124049601E-02 -0.99856742228E-02  0.33198296496E-01  0.34999997449E-01  0.00000000000E+00 0. -1.
</event>
<event>
 5   0  0.6221259E+05  0.9118800E+02  0.7546771E-02  0.1180000E+00
      -11   -1    0    0    0    0  0.00000000000E+00  0.00000000000E+00  0.34996269501E-01  0.35000000000E-01  0.51099999109E-03 0.  1.
       11   -1    0    0    0    0 -0.00000000000E+00 -0.00000000000E+00 -0.34996269501E-01  0.35000000000E-01  0.51099999109E-03 0. -1.
       22    1    1    2    0    0  0.22716548476E-01  0.95078510380E-02  0.24870847245E-01  0.34999997839E-01  0.00000000000E+00 0.  1.
       22    1    1    2    0    0  0.36028578741E-09  0.25989336144E-09  0.23245143258E-08  0.23665834570E-08  0.00000000000E+00 0. -1.
       22    1    1    2    0    0 -0.22716548837E-01 -0.95078512979E-02 -0.24870849569E-01  0.34999999795E-01  0.00000000000E+00 0. -1.
</event>
<event>
 5   0  0.6221259E+05  0.9118800E+02  0.7546771E-02  0.1180000E+00
      -11   -1    0    0    0    0  0.00000000000E+00  0.00000000000E+00  0.34996269501E-01  0.35000000000E-01  0.51099999109E-03 0.  1.
       11   -1    0    0    0    0 -0.00000000000E+00 -0.00000000000E+00 -0.34996269501E-01  0.35000000000E-01  0.51099999109E-03 0. -1.
       22    1    1    2    0    0 -0.27055366127E-01  0.17678549498E-01  0.12069963871E-01  0.34499390958E-01  0.00000000000E+00 0.  1.
       22    1    1    2    0    0  0.27085293161E-01 -0.17704217210E-01 -0.12779232309E-01  0.34790245631E-01  0.00000000000E+00 0. -1.
       22    1    1    2    0    0 -0.29927034676E-04  0.25667711501E-04  0.70926843782E-03  0.71036341102E-03  0.00000000000E+00 0.  1.
</event>
<event>
 5   0  0.6221259E+05  0.9118800E+02  0.7546771E-02  0.1180000E+00
      -11   -1    0    0    0    0  0.00000000000E+00  0.00000000000E+00  0.34996269501E-01  0.35000000000E-01  0.51099999109E-03 0.  1.
       11   -1    0    0    0    0 -0.00000000000E+00 -0.00000000000E+00 -0.34996269501E-01  0.35000000000E-01  0.51099999109E-03 0.  1.
       22    1    1    2    0    0  0.53492244066E-03 -0.13088853175E-03  0.36065688183E-04  0.55188274037E-03  0.00000000000E+00 0. -1.
       22    1    1    2    0    0 -0.00000000000E+00 -0.00000000000E+00  0.34705480047E-01  0.34702207084E-01  0.00000000000E+00 0.  1.
       22    1    1    2    0    0 -0.53492244066E-03  0.13088853175E-03 -0.34741545735E-01  0.34745910175E-01  0.00000000000E+00 0.  1.
</event>
<event>
 5   0  0.6221259E+05  0.9118800E+02  0.7546771E-02  0.1180000E+00
      -11   -1    0    0    0    0  0.00000000000E+00  0.00000000000E+00  0.34996269501E-01  0.35000000000E-01  0.51099999109E-03 0.  1.
       11   -1    0    0    0    0 -0.00000000000E+00 -0.00000000000E+00 -0.34996269501E-01  0.35000000000E-01  0.51099999109E-03 0. -1.
       22    1    1    2    0    0  0.25270128129E-06  0.47509348337E-05  0.19275217504E-04  0.19853696118E-04  0.00000000000E+00 0. -1.
       22    1    1    2    0    0  0.43125264959E-02  0.61394060854E-03  0.34708173283E-01  0.34980453120E-01  0.00000000000E+00 0.  1.
       22    1    1    2    0    0 -0.43127791972E-02 -0.61869154337E-03 -0.34727448500E-01  0.34999693184E-01  0.00000000000E+00 0. -1.
</event>
<event>
 5   0  0.6221259E+05  0.9118800E+02  0.7546771E-02  0.1180000E+00
      -11   -1    0    0    0    0  0.00000000000E+00  0.00000000000E+00  0.34996269501E-01  0.35000000000E-01  0.51099999109E-03 0.  1.
       11   -1    0    0    0    0 -0.00000000000E+00 -0.00000000000E+00 -0.34996269501E-01  0.35000000000E-01  0.51099999109E-03 0.  1.
       22    1    1    2    0    0  0.34140694718E-03 -0.78014213706E-05 -0.34940578073E-01  0.34942246860E-01  0.00000000000E+00 0.  1.
       22    1    1    2    0    0  0.38896025161E-04  0.52033030330E-04 -0.39203347364E-04  0.75876475031E-04  0.00000000000E+00 0.  1.
       22    1    1    2    0    0 -0.38030297234E-03 -0.44231608959E-04  0.34979781420E-01  0.34981876665E-01  0.00000000000E+00 0.  1.
</event>
<event>
 5   0  0.6221259E+05  0.9118800E+02  0.7546771E-02  0.1180000E+00
      -11   -1    0    0    0    0  0.00000000000E+00  0.00000000000E+00  0.34996269501E-01  0.35000000000E-01  0.51099999109E-03 0. -1.
       11   -1    0    0    0    0 -0.00000000000E+00 -0.00000000000E+00 -0.34996269501E-01  0.35000000000E-01  0.51099999109E-03 0.  1.
       22    1    1    2    0    0 -0.23569155735E-01  0.91183675585E-02 -0.71447109463E-02  0.26262075765E-01  0.00000000000E+00 0.  1.
       22    1    1    2    0    0  0.28010770526E-01 -0.15248691285E-01  0.12720748142E-01  0.34335743543E-01  0.00000000000E+00 0. -1.
       22    1    1    2    0    0 -0.44416147912E-02  0.61303237262E-02 -0.55760371960E-02  0.94021806913E-02  0.00000000000E+00 0.  1.
</event>
<event>
 5   0  0.6221259E+05  0.9118800E+02  0.7546771E-02  0.1180000E+00
      -11   -1    0    0    0    0  0.00000000000E+00  0.00000000000E+00  0.34996269501E-01  0.35000000000E-01  0.51099999109E-03 0. -1.
       11   -1    0    0    0    0 -0.00000000000E+00 -0.00000000000E+00 -0.34996269501E-01  0.35000000000E-01  0.51099999109E-03 0.  1.
       22    1    1    2    0    0  0.98238472961E-04 -0.12938531267E-03 -0.18006141151E-03  0.24251488329E-03  0.00000000000E+00 0.  1.
       22    1    1    2    0    0  0.46425803480E-02  0.43862175696E-02 -0.34200375293E-01  0.34791638752E-01  0.00000000000E+00 0.  1.
       22    1    1    2    0    0 -0.47408188209E-02 -0.42568322569E-02  0.34380436705E-01  0.34965846364E-01  0.00000000000E+00 0. -1.
</event>
<event>
 5   0  0.6221259E+05  0.9118800E+02  0.7546771E-02  0.1180000E+00
      -11   -1    0    0    0    0  0.00000000000E+00  0.00000000000E+00  0.34996269501E-01  0.35000000000E-01  0.51099999109E-03 0.  1.
       11   -1    0    0    0    0 -0.00000000000E+00 -0.00000000000E+00 -0.34996269501E-01  0.35000000000E-01  0.51099999109E-03 0. -1.
       22    1    1    2    0    0 -0.12024334821E-01  0.21159561938E-02 -0.32504002923E-01  0.34721349405E-01  0.00000000000E+00 0. -1.
       22    1    1    2    0    0  0.11789667047E-01 -0.11706662245E-02  0.24485607568E-01  0.27201317734E-01  0.00000000000E+00 0.  1.
       22    1    1    2    0    0  0.23466777403E-03 -0.94528996932E-03  0.80183953546E-02  0.80773328613E-02  0.00000000000E+00 0.  1.
</event>
<event>
 5   0  0.6221259E+05  0.9118800E+02  0.7546771E-02  0.1180000E+00
      -11   -1    0    0    0    0  0.00000000000E+00  0.00000000000E+00  0.34996269501E-01  0.35000000000E-01  0.51099999109E-03 0. -1.
       11   -1    0    0    0    0 -0.00000000000E+00 -0.00000000000E+00 -0.34996269501E-01  0.35000000000E-01  0.51099999109E-03 0.  1.
       22    1    1    2    0    0  0.23752486509E-01 -0.23025952322E-01 -0.81483263093E-02  0.34070079503E-01  0.00000000000E+00 0.  1.
       22    1    1    2    0    0 -0.48891888991E-02  0.60747055005E-02  0.71025007276E-02  0.10547593640E-01  0.00000000000E+00 0. -1.
       22    1    1    2    0    0 -0.18863297610E-01  0.16951246822E-01  0.10458255817E-02  0.25382326857E-01  0.00000000000E+00 0. -1.
</event>
<event>
 5   0  0.6221259E+05  0.9118800E+02  0.7546771E-02  0.1180000E+00
      -11   -1    0    0    0    0  0.00000000000E+00  0.00000000000E+00  0.34996269501E-01  0.35000000000E-01  0.51099999109E-03 0. -1.
       11   -1    0    0    0    0 -0.00000000000E+00 -0.00000000000E+00 -0.34996269501E-01  0.35000000000E-01  0.51099999109E-03 0.  1.
       22    1    1    2    0    0 -0.96579843677E-03  0.41136346850E-03 -0.77258630635E-02  0.77968549172E-02  0.00000000000E+00 0.  1.
       22    1    1    2    0    0 -0.46902823564E-03  0.12437033905E-02 -0.27188082777E-01  0.27220555298E-01  0.00000000000E+00 0.  1.
       22    1    1    2    0    0  0.14348266724E-02 -0.16550668590E-02  0.34913945841E-01  0.34982589785E-01  0.00000000000E+00 0. -1.
</event>
<event>
 5   0  0.6221259E+05  0.9118800E+02  0.7546771E-02  0.1180000E+00
      -11   -1    0    0    0    0  0.00000000000E+00  0.00000000000E+00  0.34996269501E-01  0.35000000000E-01  0.51099999109E-03 0. -1.
       11   -1    0    0    0    0 -0.00000000000E+00 -0.00000000000E+00 -0.34996269501E-01  0.35000000000E-01  0.51099999109E-03 0.  1.
       22    1    1    2    0    0 -0.18132015966E-02  0.34873432365E-02 -0.34778591469E-01  0.34999995535E-01  0.00000000000E+00 0.  1.
       22    1    1    2    0    0 -0.27014426945E-07  0.21629401998E-07  0.71789684745E-06  0.71873047373E-06  0.00000000000E+00 0. -1.
       22    1    1    2    0    0  0.18132286111E-02 -0.34873648659E-02  0.34777873572E-01  0.34999285734E-01  0.00000000000E+00 0. -1.
</event>
<event>
 5   0  0.6221259E+05  0.9118800E+02  0.7546771E-02  0.1180000E+00
      -11   -1    0    0    0    0  0.00000000000E+00  0.00000000000E+00  0.34996269501E-01  0.35000000000E-01  0.51099999109E-03 0.  1.
       11   -1    0    0    0    0 -0.00000000000E+00 -0.00000000000E+00 -0.34996269501E-01  0.35000000000E-01  0.51099999109E-03 0. -1.
       22    1    1    2    0    0 -0.15509268940E-05  0.51080690693E-05  0.16714604886E-04  0.17546388812E-04  0.00000000000E+00 0.  1.
       22    1    1    2    0    0 -0.11410844351E-02 -0.59651020328E-03  0.34959189336E-01  0.34982893207E-01  0.00000000000E+00 0.  1.
       22    1    1    2    0    0  0.11426353620E-02  0.59140213422E-03 -0.34975903940E-01  0.34999560404E-01  0.00000000000E+00 0. -1.
</event>
<event>
 5   0  0.6221259E+05  0.9118800E+02  0.7546771E-02  0.1180000E+00
      -11   -1    0    0    0    0  0.00000000000E+00  0.00000000000E+00  0.34996269501E-01  0.35000000000E-01  0.51099999109E-03 0. -1.
       11   -1    0    0    0    0 -0.00000000000E+00 -0.00000000000E+00 -0.34996269501E-01  0.35000000000E-01  0.51099999109E-03 0.  1.
       22    1    1    2    0    0 -0.84289090273E-05  0.31367437985E-06  0.43204530698E-05  0.94768778475E-05  0.00000000000E+00 0.  1.
       22    1    1    2    0    0 -0.17100354154E-01 -0.33448364650E-02  0.30344424022E-01  0.34991343392E-01  0.00000000000E+00 0. -1.
       22    1    1    2    0    0  0.17108783063E-01  0.33445227906E-02 -0.30348744475E-01  0.34999179730E-01  0.00000000000E+00 0.  1.
</event>
<event>
 5   0  0.6221259E+05  0.9118800E+02  0.7546771E-02  0.1180000E+00
      -11   -1    0    0    0    0  0.00000000000E+00  0.00000000000E+00  0.34996269501E-01  0.35000000000E-01  0.51099999109E-03 0. -1.
       11   -1    0    0    0    0 -0.00000000000E+00 -0.00000000000E+00 -0.34996269501E-01  0.35000000000E-01  0.51099999109E-03 0.  1.
       22    1    1    2    0    0 -0.94021727613E-10 -0.96516253993E-10  0.83056313214E-10  0.15828399702E-09  0.00000000000E+00 0.  1.
       22    1    1    2    0    0 -0.45549534198E-02 -0.14068218304E-03 -0.34702054763E-01  0.34999999956E-01  0.00000000000E+00 0.  1.
       22    1    1    2    0    0  0.45549535138E-02  0.14068227956E-03  0.34702054680E-01  0.34999999886E-01  0.00000000000E+00 0. -1.
</event>
<event>
 5   0  0.6221259E+05  0.9118800E+02  0.7546771E-02  0.1180000E+00
      -11   -1    0    0    0    0  0.00000000000E+00  0.00000000000E+00  0.34996269501E-01  0.35000000000E-01  0.51099999109E-03 0. -1.
       11   -1    0    0    0    0 -0.00000000000E+00 -0.00000000000E+00 -0.34996269501E-01  0.35000000000E-01  0.51099999109E-03 0.  1.
       22    1    1    2    0    0  0.94244530428E-04  0.91168065844E-03 -0.31450520164E-01  0.31463872334E-01  0.00000000000E+00 0.  1.
       22    1    1    2    0    0 -0.14016092039E-02  0.76154503369E-03 -0.33292161789E-02  0.36916310168E-02  0.00000000000E+00 0.  1.
       22    1    1    2    0    0  0.13073646734E-02 -0.16732256921E-02  0.34779736343E-01  0.34844496649E-01  0.00000000000E+00 0. -1.
</event>
<event>
 5   0  0.6221259E+05  0.9118800E+02  0.7546771E-02  0.1180000E+00
      -11   -1    0    0    0    0  0.00000000000E+00  0.00000000000E+00  0.34996269501E-01  0.35000000000E-01  0.51099999109E-03 0.  1.
       11   -1    0    0    0    0 -0.00000000000E+00 -0.00000000000E+00 -0.34996269501E-01  0.35000000000E-01  0.51099999109E-03 0. -1.
       22    1    1    2    0    0 -0.43040004776E-04  0.49073954698E-04 -0.58920774997E-03  0.59281233764E-03  0.00000000000E+00 0. -1.
       22    1    1    2    0    0 -0.32856464241E-01  0.75816314948E-02 -0.77951946752E-02  0.34609152526E-01  0.00000000000E+00 0.  1.
       22    1    1    2    0    0  0.32899504246E-01 -0.76307054495E-02  0.83844024251E-02  0.34798035136E-01  0.00000000000E+00 0. -1.
</event>
<event>
 5   0  0.6221259E+05  0.9118800E+02  0.7546771E-02  0.1180000E+00
      -11   -1    0    0    0    0  0.00000000000E+00  0.00000000000E+00  0.34996269501E-01  0.35000000000E-01  0.51099999109E-03 0. -1.
       11   -1    0    0    0    0 -0.00000000000E+00 -0.00000000000E+00 -0.34996269501E-01  0.35000000000E-01  0.51099999109E-03 0.  1.
       22    1    1    2    0    0  0.42882052853E-05  0.33703423370E-04 -0.15644561851E-03  0.16009228901E-03  0.00000000000E+00 0. -1.
       22    1    1    2    0    0  0.33878330286E-01  0.88079281002E-03 -0.83303986705E-02  0.34898604570E-01  0.00000000000E+00 0.  1.
       22    1    1    2    0    0 -0.33882618491E-01 -0.91449623339E-03  0.84868442891E-02  0.34941303141E-01  0.00000000000E+00 0. -1.
</event>
<event>
 5   0  0.6221259E+05  0.9118800E+02  0.7546771E-02  0.1180000E+00
      -11   -1    0    0    0    0  0.00000000000E+00  0.00000000000E+00  0.34996269501E-01  0.35000000000E-01  0.51099999109E-03 0. -1.
       11   -1    0    0    0    0 -0.00000000000E+00 -0.00000000000E+00 -0.34996269501E-01  0.35000000000E-01  0.51099999109E-03 0.  1.
       22    1    1    2    0    0  0.18608877149E-06  0.63524745663E-07  0.18118114382E-06  0.26737806765E-06  0.00000000000E+00 0. -1.
       22    1    1    2    0    0  0.23148901803E-01  0.10523414834E-01 -0.24049451311E-01  0.34999857468E-01  0.00000000000E+00 0.  1.
       22    1    1    2    0    0 -0.23149087892E-01 -0.10523478359E-01  0.24049270130E-01  0.34999875154E-01  0.00000000000E+00 0. -1.
</event>
<event>
 5   0  0.6221259E+05  0.9118800E+02  0.7546771E-02  0.1180000E+00
      -11   -1    0    0    0    0  0.00000000000E+00  0.00000000000E+00  0.34996269501E-01  0.35000000000E-01  0.51099999109E-03 0. -1.
       11   -1    0    0    0    0 -0.00000000000E+00 -0.00000000000E+00 -0.34996269501E-01  0.35000000000E-01  0.51099999109E-03 0.  1.
       22    1    1    2    0    0 -0.18074462199E-04 -0.99044241938E-04  0.44966396187E-03  0.46079727283E-03  0.00000000000E+00 0. -1.
       22    1    1    2    0    0  0.21273535065E-02 -0.44302549215E-02  0.34189824499E-01  0.34541234646E-01  0.00000000000E+00 0. -1.
       22    1    1    2    0    0 -0.21092790443E-02  0.45292991634E-02 -0.34639488461E-01  0.34997968081E-01  0.00000000000E+00 0.  1.
</event>
<event>
 5   0  0.6221259E+05  0.9118800E+02  0.7546771E-02  0.1180000E+00
      -11   -1    0    0    0    0  0.00000000000E+00  0.00000000000E+00  0.34996269501E-01  0.35000000000E-01  0.51099999109E-03 0.  1.
       11   -1    0    0    0    0 -0.00000000000E+00 -0.00000000000E+00 -0.34996269501E-01  0.35000000000E-01  0.51099999109E-03 0. -1.
       22    1    1    2    0    0  0.18381996826E-02 -0.88364056770E-02 -0.33815927461E-01  0.34999685619E-01  0.00000000000E+00 0. -1.
       22    1    1    2    0    0 -0.16930906253E-06  0.78672309523E-07  0.19403856254E-04  0.19404754376E-04  0.00000000000E+00 0.  1.
       22    1    1    2    0    0 -0.18380303736E-02  0.88363270047E-02  0.33796523605E-01  0.34980909627E-01  0.00000000000E+00 0.  1.
</event>
<event>
 5   0  0.6221259E+05  0.9118800E+02  0.7546771E-02  0.1180000E+00
      -11   -1    0    0    0    0  0.00000000000E+00  0.00000000000E+00  0.34996269501E-01  0.35000000000E-01  0.51099999109E-03 0. -1.
       11   -1    0    0    0    0 -0.00000000000E+00 -0.00000000000E+00 -0.34996269501E-01  0.35000000000E-01  0.51099999109E-03 0.  1.
       22    1    1    2    0    0  0.40512653815E-02  0.12717975137E-02 -0.33205691524E-01  0.33476083548E-01  0.00000000000E+00 0.  1.
       22    1    1    2    0    0 -0.48119065421E-02  0.58755655645E-03  0.19844367844E-02  0.52380966608E-02  0.00000000000E+00 0. -1.
       22    1    1    2    0    0  0.76064116063E-03 -0.18593540702E-02  0.31221254739E-01  0.31285819792E-01  0.00000000000E+00 0. -1.
</event>
<event>
 5   0  0.6221259E+05  0.9118800E+02  0.7546771E-02  0.1180000E+00
      -11   -1    0    0    0    0  0.00000000000E+00  0.00000000000E+00  0.34996269501E-01  0.35000000000E-01  0.51099999109E-03 0. -1.
       11   -1    0    0    0    0 -0.00000000000E+00 -0.00000000000E+00 -0.34996269501E-01  0.35000000000E-01  0.51099999109E-03 0.  1.
       22    1    1    2    0    0 -0.23936584097E-03  0.78779162987E-03 -0.34990314204E-01  0.34999999997E-01  0.00000000000E+00 0.  1.
       22    1    1    2    0    0  0.64613955297E-09 -0.53046875828E-09  0.63316754558E-07  0.63322273341E-07  0.00000000000E+00 0. -1.
       22    1    1    2    0    0  0.23936519483E-03 -0.78779109940E-03  0.34990250887E-01  0.34999936681E-01  0.00000000000E+00 0. -1.
</event>
<event>
 5   0  0.6221259E+05  0.9118800E+02  0.7546771E-02  0.1180000E+00
      -11   -1    0    0    0    0  0.00000000000E+00  0.00000000000E+00  0.34996269501E-01  0.35000000000E-01  0.51099999109E-03 0. -1.
       11   -1    0    0    0    0 -0.00000000000E+00 -0.00000000000E+00 -0.34996269501E-01  0.35000000000E-01  0.51099999109E-03 0.  1.
       22    1    1    2    0    0 -0.50060781546E-06  0.73784413099E-06  0.10272926859E-04  0.10311549272E-04  0.00000000000E+00 0. -1.
       22    1    1    2    0    0  0.16027312015E-02  0.13321025323E-02 -0.34937867488E-01  0.34999968987E-01  0.00000000000E+00 0.  1.
       22    1    1    2    0    0 -0.16022305937E-02 -0.13328403764E-02  0.34927594561E-01  0.34989719464E-01  0.00000000000E+00 0. -1.
</event>
<event>
 5   0  0.6221259E+05  0.9118800E+02  0.7546771E-02  0.1180000E+00
      -11   -1    0    0    0    0  0.00000000000E+00  0.00000000000E+00  0.34996269501E-01  0.35000000000E-01  0.51099999109E-03 0.  1.
       11   -1    0    0    0    0 -0.00000000000E+00 -0.00000000000E+00 -0.34996269501E-01  0.35000000000E-01  0.51099999109E-03 0. -1.
       22    1    1    2    0    0  0.81324248427E-02  0.52349266853E-02  0.33636430745E-01  0.34999289485E-01  0.00000000000E+00 0.  1.
       22    1    1    2    0    0 -0.34420311523E-07 -0.41620274193E-07  0.73085935720E-06  0.73285223959E-06  0.00000000000E+00 0. -1.
       22    1    1    2    0    0 -0.81323904224E-02 -0.52348850651E-02 -0.33637161604E-01  0.34999977663E-01  0.00000000000E+00 0. -1.
</event>
<event>
 5   0  0.6221259E+05  0.9118800E+02  0.7546771E-02  0.1180000E+00
      -11   -1    0    0    0    0  0.00000000000E+00  0.00000000000E+00  0.34996269501E-01  0.35000000000E-01  0.51099999109E-03 0.  1.
       11   -1    0    0    0    0 -0.00000000000E+00 -0.00000000000E+00 -0.34996269501E-01  0.35000000000E-01  0.51099999109E-03 0. -1.
       22    1    1    2    0    0  0.12736456593E-01  0.11568726685E-01 -0.30476726876E-01  0.34998337742E-01  0.00000000000E+00 0. -1.
       22    1    1    2    0    0  0.28484228467E-05  0.80043398417E-06  0.13098066457E-04  0.13428088181E-04  0.00000000000E+00 0.  1.
       22    1    1    2    0    0 -0.12739305016E-01 -0.11569527119E-01  0.30463628810E-01  0.34988234169E-01  0.00000000000E+00 0.  1.
</event>
<event>
 5   0  0.6221259E+05  0.9118800E+02  0.7546771E-02  0.1180000E+00
      -11   -1    0    0    0    0  0.00000000000E+00  0.00000000000E+00  0.34996269501E-01  0.35000000000E-01  0.51099999109E-03 0.  1.
       11   -1    0    0    0    0 -0.00000000000E+00 -0.00000000000E+00 -0.34996269501E-01  0.35000000000E-01  0.51099999109E-03 0. -1.
       22    1    1    2    0    0  0.37168162577E-02  0.45063166217E-02 -0.31952643717E-01  0.32482195940E-01  0.00000000000E+00 0. -1.
       22    1    1    2    0    0 -0.39147954280E-02 -0.43462107768E-02  0.34482531319E-01  0.34975135990E-01  0.00000000000E+00 0.  1.
       22    1    1    2    0    0  0.19797917029E-03 -0.16010584488E-03 -0.25298876021E-02  0.25426680697E-02  0.00000000000E+00 0.  1.
</event>
<event>
 5   0  0.6221259E+05  0.9118800E+02  0.7546771E-02  0.1180000E+00
      -11   -1    0    0    0    0  0.00000000000E+00  0.00000000000E+00  0.34996269501E-01  0.35000000000E-01  0.51099999109E-03 0.  1.
       11   -1    0    0    0    0 -0.00000000000E+00 -0.00000000000E+00 -0.34996269501E-01  0.35000000000E-01  0.51099999109E-03 0. -1.
       22    1    1    2    0    0 -0.35200201178E-03  0.22552356810E-03 -0.34994772187E-01  0.34997269132E-01  0.00000000000E+00 0. -1.
       22    1    1    2    0    0  0.45793670585E-05 -0.65069973377E-05  0.29308582084E-05  0.84794779820E-05  0.00000000000E+00 0.  1.
       22    1    1    2    0    0  0.34742264472E-03 -0.21901657076E-03  0.34991841329E-01  0.34994251390E-01  0.00000000000E+00 0.  1.
</event>
<event>
 5   0  0.6221259E+05  0.9118800E+02  0.7546771E-02  0.1180000E+00
      -11   -1    0    0    0    0  0.00000000000E+00  0.00000000000E+00  0.34996269501E-01  0.35000000000E-01  0.51099999109E-03 0.  1.
       11   -1    0    0    0    0 -0.00000000000E+00 -0.00000000000E+00 -0.34996269501E-01  0.35000000000E-01  0.51099999109E-03 0. -1.
       22    1    1    2    0    0  0.18213122824E-01 -0.20060348758E-01  0.19736752337E-01  0.33521259346E-01  0.00000000000E+00 0.  1.
       22    1    1    2    0    0 -0.18200314203E-01  0.19995997708E-01 -0.13463691084E-01  0.30205336267E-01  0.00000000000E+00 0. -1.
       22    1    1    2    0    0 -0.12808621513E-04  0.64351049715E-04 -0.62730612530E-02  0.62734043870E-02  0.00000000000E+00 0.  1.
</event>
<event>
 5   0  0.6221259E+05  0.9118800E+02  0.7546771E-02  0.1180000E+00
      -11   -1    0    0    0    0  0.00000000000E+00  0.00000000000E+00  0.34996269501E-01  0.35000000000E-01  0.51099999109E-03 0. -1.
       11   -1    0    0    0    0 -0.00000000000E+00 -0.00000000000E+00 -0.34996269501E-01  0.35000000000E-01  0.51099999109E-03 0.  1.
       22    1    1    2    0    0  0.24541827071E-08 -0.47989656267E-08  0.40790144255E-07  0.41144731767E-07  0.00000000000E+00 0. -1.
       22    1    1    2    0    0  0.31639286058E-01 -0.12413598577E-01 -0.83580447349E-02  0.34999982338E-01  0.00000000000E+00 0.  1.
       22    1    1    2    0    0 -0.31639288512E-01  0.12413603375E-01  0.83580039448E-02  0.34999976518E-01  0.00000000000E+00 0. -1.
</event>
<event>
 5   0  0.6221259E+05  0.9118800E+02  0.7546771E-02  0.1180000E+00
      -11   -1    0    0    0    0  0.00000000000E+00  0.00000000000E+00  0.34996269501E-01  0.35000000000E-01  0.51099999109E-03 0. -1.
       11   -1    0    0    0    0 -0.00000000000E+00 -0.00000000000E+00 -0.34996269501E-01  0.35000000000E-01  0.51099999109E-03 0.  1.
       22    1    1    2    0    0 -0.12518730665E-07  0.21815739537E-07  0.22709142043E-06  0.22848010492E-06  0.00000000000E+00 0. -1.
       22    1    1    2    0    0 -0.57235457653E-02 -0.30714383862E-03 -0.34527474070E-01  0.34999996845E-01  0.00000000000E+00 0.  1.
       22    1    1    2    0    0  0.57235582840E-02  0.30712202288E-03  0.34527246979E-01  0.34999774675E-01  0.00000000000E+00 0. -1.
</event>
<event>
 5   0  0.6221259E+05  0.9118800E+02  0.7546771E-02  0.1180000E+00
      -11   -1    0    0    0    0  0.00000000000E+00  0.00000000000E+00  0.34996269501E-01  0.35000000000E-01  0.51099999109E-03 0.  1.
       11   -1    0    0    0    0 -0.00000000000E+00 -0.00000000000E+00 -0.34996269501E-01  0.35000000000E-01  0.51099999109E-03 0. -1.
       22    1    1    2    0    0 -0.79874271377E-04  0.11173887034E-02 -0.34875245794E-01  0.34893232963E-01  0.00000000000E+00 0. -1.
       22    1    1    2    0    0 -0.43892260274E-04 -0.76099075015E-03  0.34667877657E-01  0.34676256642E-01  0.00000000000E+00 0.  1.
       22    1    1    2    0    0  0.12376653165E-03 -0.35639795330E-03  0.20736813710E-03  0.43051039448E-03  0.00000000000E+00 0.  1.
</event>
<event>
 5   0  0.6221259E+05  0.9118800E+02  0.7546771E-02  0.1180000E+00
      -11   -1    0    0    0    0  0.00000000000E+00  0.00000000000E+00  0.34996269501E-01  0.35000000000E-01  0.51099999109E-03 0. -1.
       11   -1    0    0    0    0 -0.00000000000E+00 -0.00000000000E+00 -0.34996269501E-01  0.35000000000E-01  0.51099999109E-03 0. -1.
       22    1    1    2    0    0  0.70993300169E-03 -0.39017938324E-03  0.34990608822E-01  0.34999985008E-01  0.00000000000E+00 0. -1.
       22    1    1    2    0    0 -0.70993177069E-03  0.39017962995E-03 -0.34990623801E-01  0.34999999961E-01  0.00000000000E+00 0. -1.
       22    1    1    2    0    0 -0.12309985598E-08 -0.24671194088E-09  0.14979129859E-07  0.15031651791E-07  0.00000000000E+00 0. -1.
</event>
<event>
 5   0  0.6221259E+05  0.9118800E+02  0.7546771E-02  0.1180000E+00
      -11   -1    0    0    0    0  0.00000000000E+00  0.00000000000E+00  0.34996269501E-01  0.35000000000E-01  0.51099999109E-03 0. -1.
       11   -1    0    0    0    0 -0.00000000000E+00 -0.00000000000E+00 -0.34996269501E-01  0.35000000000E-01  0.51099999109E-03 0.  1.
       22    1    1    2    0    0  0.35152163918E-04 -0.29312370261E-04 -0.32830386113E-04  0.56326937878E-04  0.00000000000E+00 0. -1.
       22    1    1    2    0    0  0.12775774107E-03 -0.17830859653E-02  0.34941704036E-01  0.34987403426E-01  0.00000000000E+00 0. -1.
       22    1    1    2    0    0 -0.16290990499E-03  0.18123983356E-02 -0.34908873650E-01  0.34956269636E-01  0.00000000000E+00 0.  1.
</event>
<event>
 5   0  0.6221259E+05  0.9118800E+02  0.7546771E-02  0.1180000E+00
      -11   -1    0    0    0    0  0.00000000000E+00  0.00000000000E+00  0.34996269501E-01  0.35000000000E-01  0.51099999109E-03 0.  1.
       11   -1    0    0    0    0 -0.00000000000E+00 -0.00000000000E+00 -0.34996269501E-01  0.35000000000E-01  0.51099999109E-03 0. -1.
       22    1    1    2    0    0  0.86389545290E-02 -0.75878893719E-02 -0.33057268470E-01  0.34999865702E-01  0.00000000000E+00 0. -1.
       22    1    1    2    0    0 -0.28902023904E-06 -0.98479420269E-07  0.55890327601E-05  0.55973670675E-05  0.00000000000E+00 0.  1.
       22    1    1    2    0    0 -0.86386655088E-02  0.75879878513E-02  0.33051679437E-01  0.34994536931E-01  0.00000000000E+00 0.  1.
</event>
<event>
 5   0  0.6221259E+05  0.9118800E+02  0.7546771E-02  0.1180000E+00
      -11   -1    0    0    0    0  0.00000000000E+00  0.00000000000E+00  0.34996269501E-01  0.35000000000E-01  0.51099999109E-03 0.  1.
       11   -1    0    0    0    0 -0.00000000000E+00 -0.00000000000E+00 -0.34996269501E-01  0.35000000000E-01  0.51099999109E-03 0. -1.
       22    1    1    2    0    0 -0.13361892333E-01  0.15131233898E-01  0.28581089099E-01  0.34991042569E-01  0.00000000000E+00 0.  1.
       22    1    1    2    0    0  0.13380652207E-01 -0.15120940568E-01 -0.28517348750E-01  0.34941721149E-01  0.00000000000E+00 0. -1.
       22    1    1    2    0    0 -0.18759874733E-04 -0.10293330401E-04 -0.63740348943E-04  0.67236282126E-04  0.00000000000E+00 0.  1.
</event>
<event>
 5   0  0.6221259E+05  0.9118800E+02  0.7546771E-02  0.1180000E+00
      -11   -1    0    0    0    0  0.00000000000E+00  0.00000000000E+00  0.34996269501E-01  0.35000000000E-01  0.51099999109E-03 0. -1.
       11   -1    0    0    0    0 -0.00000000000E+00 -0.00000000000E+00 -0.34996269501E-01  0.35000000000E-01  0.51099999109E-03 0. -1.
       22    1    1    2    0    0  0.37226054128E-09  0.88390375928E-10 -0.35000049092E-01  0.34999972997E-01  0.00000000000E+00 0. -1.
       22    1    1    2    0    0 -0.67582961391E-05 -0.16047049583E-05  0.34555719374E-01  0.34555642999E-01  0.00000000000E+00 0. -1.
       22    1    1    2    0    0  0.67579238785E-05  0.16046165679E-05  0.44432971766E-03  0.44438400323E-03  0.00000000000E+00 0.  1.
</event>
<event>
 5   0  0.6221259E+05  0.9118800E+02  0.7546771E-02  0.1180000E+00
      -11   -1    0    0    0    0  0.00000000000E+00  0.00000000000E+00  0.34996269501E-01  0.35000000000E-01  0.51099999109E-03 0. -1.
       11   -1    0    0    0    0 -0.00000000000E+00 -0.00000000000E+00 -0.34996269501E-01  0.35000000000E-01  0.51099999109E-03 0.  1.
       22    1    1    2    0    0 -0.35713885751E-06  0.11031204740E-06  0.60604370795E-05  0.60719531047E-05  0.00000000000E+00 0.  1.
       22    1    1    2    0    0  0.30763042948E-03  0.75354844119E-03 -0.34990528640E-01  0.34999993803E-01  0.00000000000E+00 0.  1.
       22    1    1    2    0    0 -0.30727329062E-03 -0.75365875324E-03  0.34984468203E-01  0.34993934243E-01  0.00000000000E+00 0. -1.
</event>
<event>
 5   0  0.6221259E+05  0.9118800E+02  0.7546771E-02  0.1180000E+00
      -11   -1    0    0    0    0  0.00000000000E+00  0.00000000000E+00  0.34996269501E-01  0.35000000000E-01  0.51099999109E-03 0. -1.
       11   -1    0    0    0    0 -0.00000000000E+00 -0.00000000000E+00 -0.34996269501E-01  0.35000000000E-01  0.51099999109E-03 0. -1.
       22    1    1    2    0    0  0.30317186040E-06 -0.82341096158E-08  0.35000466079E-01  0.34999491082E-01  0.00000000000E+00 0. -1.
       22    1    1    2    0    0 -0.20380656769E-10  0.55353607572E-12 -0.35000929812E-01  0.34999954827E-01  0.00000000000E+00 0. -1.
       22    1    1    2    0    0 -0.30315147975E-06  0.82335560798E-08  0.46373357723E-06  0.55409154637E-06  0.00000000000E+00 0.  1.
</event>
<event>
 5   0  0.6221259E+05  0.9118800E+02  0.7546771E-02  0.1180000E+00
      -11   -1    0    0    0    0  0.00000000000E+00  0.00000000000E+00  0.34996269501E-01  0.35000000000E-01  0.51099999109E-03 0.  1.
       11   -1    0    0    0    0 -0.00000000000E+00 -0.00000000000E+00 -0.34996269501E-01  0.35000000000E-01  0.51099999109E-03 0.  1.
       22    1    1    2    0    0  0.48159213916E-08 -0.50095987960E-07  0.45446328692E-06  0.45724138075E-06  0.00000000000E+00 0.  1.
       22    1    1    2    0    0  0.44445440449E-12 -0.46232861140E-11 -0.35002727555E-01  0.34999998629E-01  0.00000000000E+00 0.  1.
       22    1    1    2    0    0 -0.48163658460E-08  0.50100611246E-07  0.35002273092E-01  0.34999544130E-01  0.00000000000E+00 0.  1.
</event>
<event>
 5   0  0.6221259E+05  0.9118800E+02  0.7546771E-02  0.1180000E+00
      -11   -1    0    0    0    0  0.00000000000E+00  0.00000000000E+00  0.34996269501E-01  0.35000000000E-01  0.51099999109E-03 0.  1.
       11   -1    0    0    0    0 -0.00000000000E+00 -0.00000000000E+00 -0.34996269501E-01  0.35000000000E-01  0.51099999109E-03 0. -1.
       22    1    1    2    0    0 -0.93706710197E-04 -0.12682174759E-03  0.49521350216E-02  0.49546448889E-02  0.00000000000E+00 0. -1.
       22    1    1    2    0    0 -0.94168038455E-02  0.15887249357E-01 -0.29231487756E-01  0.34576881919E-01  0.00000000000E+00 0. -1.
       22    1    1    2    0    0  0.95105105557E-02 -0.15760427609E-01  0.24279352735E-01  0.30468473192E-01  0.00000000000E+00 0.  1.
</event>
<event>
 5   0  0.6221259E+05  0.9118800E+02  0.7546771E-02  0.1180000E+00
      -11   -1    0    0    0    0  0.00000000000E+00  0.00000000000E+00  0.34996269501E-01  0.35000000000E-01  0.51099999109E-03 0.  1.
       11   -1    0    0    0    0 -0.00000000000E+00 -0.00000000000E+00 -0.34996269501E-01  0.35000000000E-01  0.51099999109E-03 0. -1.
       22    1    1    2    0    0  0.22234535633E-02 -0.99093154754E-03 -0.34915223305E-01  0.34999978708E-01  0.00000000000E+00 0. -1.
       22    1    1    2    0    0 -0.49296124978E-07 -0.12035287430E-07  0.57017322101E-08  0.51063351159E-07  0.00000000000E+00 0.  1.
       22    1    1    2    0    0 -0.22234042672E-02  0.99094358283E-03  0.34915217604E-01  0.34999970229E-01  0.00000000000E+00 0.  1.
</event>
<event>
 5   0  0.6221259E+05  0.9118800E+02  0.7546771E-02  0.1180000E+00
      -11   -1    0    0    0    0  0.00000000000E+00  0.00000000000E+00  0.34996269501E-01  0.35000000000E-01  0.51099999109E-03 0.  1.
       11   -1    0    0    0    0 -0.00000000000E+00 -0.00000000000E+00 -0.34996269501E-01  0.35000000000E-01  0.51099999109E-03 0. -1.
       22    1    1    2    0    0 -0.13788017143E-02 -0.11973252365E-01  0.32859398507E-01  0.34999999094E-01  0.00000000000E+00 0.  1.
       22    1    1    2    0    0  0.13788012096E-02  0.11973253526E-01 -0.32859398674E-01  0.34999999628E-01  0.00000000000E+00 0. -1.
       22    1    1    2    0    0  0.50466927010E-09 -0.11618342021E-08  0.16657102243E-09  0.12776132791E-08  0.00000000000E+00 0.  1.
</event>
<event>
 5   0  0.6221259E+05  0.9118800E+02  0.7546771E-02  0.1180000E+00
      -11   -1    0    0    0    0  0.00000000000E+00  0.00000000000E+00  0.34996269501E-01  0.35000000000E-01  0.51099999109E-03 0. -1.
       11   -1    0    0    0    0 -0.00000000000E+00 -0.00000000000E+00 -0.34996269501E-01  0.35000000000E-01  0.51099999109E-03 0. -1.
       22    1    1    2    0    0 -0.56609212132E-04  0.35674167980E-03  0.30251530412E-01  0.30253686742E-01  0.00000000000E+00 0. -1.
       22    1    1    2    0    0 -0.75713264581E-03 -0.38580778895E-02 -0.34189265606E-01  0.34414588441E-01  0.00000000000E+00 0. -1.
       22    1    1    2    0    0  0.81374185794E-03  0.35013362097E-02  0.39377351940E-02  0.53317248169E-02  0.00000000000E+00 0.  1.
</event>
<event>
 5   0  0.6221259E+05  0.9118800E+02  0.7546771E-02  0.1180000E+00
      -11   -1    0    0    0    0  0.00000000000E+00  0.00000000000E+00  0.34996269501E-01  0.35000000000E-01  0.51099999109E-03 0. -1.
       11   -1    0    0    0    0 -0.00000000000E+00 -0.00000000000E+00 -0.34996269501E-01  0.35000000000E-01  0.51099999109E-03 0.  1.
       22    1    1    2    0    0  0.12793111916E-02 -0.89354088109E-02 -0.33815997401E-01  0.34999997829E-01  0.00000000000E+00 0.  1.
       22    1    1    2    0    0 -0.19342182186E-07  0.45122085728E-07  0.79991950752E-07  0.93855393117E-07  0.00000000000E+00 0. -1.
       22    1    1    2    0    0 -0.12792918494E-02  0.89353636888E-02  0.33815917409E-01  0.34999908316E-01  0.00000000000E+00 0. -1.
</event>
<event>
 5   0  0.6221259E+05  0.9118800E+02  0.7546771E-02  0.1180000E+00
      -11   -1    0    0    0    0  0.00000000000E+00  0.00000000000E+00  0.34996269501E-01  0.35000000000E-01  0.51099999109E-03 0.  1.
       11   -1    0    0    0    0 -0.00000000000E+00 -0.00000000000E+00 -0.34996269501E-01  0.35000000000E-01  0.51099999109E-03 0. -1.
       22    1    1    2    0    0 -0.11296170252E-02  0.94955384627E-02 -0.33340989105E-01  0.34685196264E-01  0.00000000000E+00 0. -1.
       22    1    1    2    0    0  0.11107551510E-02 -0.94845483730E-02  0.33663407001E-01  0.34991647657E-01  0.00000000000E+00 0.  1.
       22    1    1    2    0    0  0.18861874234E-04 -0.10990089711E-04 -0.32241789541E-03  0.32315607939E-03  0.00000000000E+00 0.  1.
</event>
<event>
 5   0  0.6221259E+05  0.9118800E+02  0.7546771E-02  0.1180000E+00
      -11   -1    0    0    0    0  0.00000000000E+00  0.00000000000E+00  0.34996269501E-01  0.35000000000E-01  0.51099999109E-03 0.  1.
       11   -1    0    0    0    0 -0.00000000000E+00 -0.00000000000E+00 -0.34996269501E-01  0.35000000000E-01  0.51099999109E-03 0. -1.
       22    1    1    2    0    0 -0.12137176954E-02  0.18168508051E-02 -0.51988435685E-03  0.22459602037E-02  0.00000000000E+00 0. -1.
       22    1    1    2    0    0  0.83763427450E-02 -0.41121679283E-02  0.33062226705E-01  0.34353804411E-01  0.00000000000E+00 0.  1.
       22    1    1    2    0    0 -0.71626250496E-02  0.22953171232E-02 -0.32542342348E-01  0.33400235385E-01  0.00000000000E+00 0. -1.
</event>
<event>
 5   0  0.6221259E+05  0.9118800E+02  0.7546771E-02  0.1180000E+00
      -11   -1    0    0    0    0  0.00000000000E+00  0.00000000000E+00  0.34996269501E-01  0.35000000000E-01  0.51099999109E-03 0.  1.
       11   -1    0    0    0    0 -0.00000000000E+00 -0.00000000000E+00 -0.34996269501E-01  0.35000000000E-01  0.51099999109E-03 0. -1.
       22    1    1    2    0    0 -0.89781051633E-03  0.29096598189E-02  0.34864119038E-01  0.34996842433E-01  0.00000000000E+00 0.  1.
       22    1    1    2    0    0  0.89781470441E-03 -0.29099529995E-02 -0.34867263506E-01  0.34999999458E-01  0.00000000000E+00 0. -1.
       22    1    1    2    0    0 -0.41880716626E-08  0.29318056487E-06  0.31444676737E-05  0.31581085058E-05  0.00000000000E+00 0.  1.
</event>
<event>
 5   0  0.6221259E+05  0.9118800E+02  0.7546771E-02  0.1180000E+00
      -11   -1    0    0    0    0  0.00000000000E+00  0.00000000000E+00  0.34996269501E-01  0.35000000000E-01  0.51099999109E-03 0. -1.
       11   -1    0    0    0    0 -0.00000000000E+00 -0.00000000000E+00 -0.34996269501E-01  0.35000000000E-01  0.51099999109E-03 0.  1.
       22    1    1    2    0    0 -0.84310513946E-02 -0.63546866566E-02 -0.24134753321E-01  0.26342949493E-01  0.00000000000E+00 0.  1.
       22    1    1    2    0    0 -0.59793599499E-04  0.33120678598E-03 -0.89585788959E-02  0.89648987191E-02  0.00000000000E+00 0.  1.
       22    1    1    2    0    0  0.84908449941E-02  0.60234798706E-02  0.33093332217E-01  0.34692151788E-01  0.00000000000E+00 0. -1.
</event>
<event>
 5   0  0.6221259E+05  0.9118800E+02  0.7546771E-02  0.1180000E+00
      -11   -1    0    0    0    0  0.00000000000E+00  0.00000000000E+00  0.34996269501E-01  0.35000000000E-01  0.51099999109E-03 0. -1.
       11   -1    0    0    0    0 -0.00000000000E+00 -0.00000000000E+00 -0.34996269501E-01  0.35000000000E-01  0.51099999109E-03 0.  1.
       22    1    1    2    0    0 -0.23566703677E-02  0.18374047729E-02  0.29991341970E-02  0.42337639817E-02  0.00000000000E+00 0. -1.
       22    1    1    2    0    0  0.23569385631E-03 -0.13025186964E-02 -0.34331801454E-01  0.34357309231E-01  0.00000000000E+00 0.  1.
       22    1    1    2    0    0  0.21209765114E-02 -0.53488607645E-03  0.31332667257E-01  0.31408926787E-01  0.00000000000E+00 0. -1.
</event>
<event>
 5   0  0.6221259E+05  0.9118800E+02  0.7546771E-02  0.1180000E+00
      -11   -1    0    0    0    0  0.00000000000E+00  0.00000000000E+00  0.34996269501E-01  0.35000000000E-01  0.51099999109E-03 0.  1.
       11   -1    0    0    0    0 -0.00000000000E+00 -0.00000000000E+00 -0.34996269501E-01  0.35000000000E-01  0.51099999109E-03 0. -1.
       22    1    1    2    0    0  0.42063646199E-03 -0.11655616347E-02 -0.34194844407E-01  0.34217288803E-01  0.00000000000E+00 0. -1.
       22    1    1    2    0    0 -0.31035993814E-04  0.40991426855E-03 -0.73519824245E-03  0.84232380720E-03  0.00000000000E+00 0.  1.
       22    1    1    2    0    0 -0.38960046817E-03  0.75564736613E-03  0.34930042650E-01  0.34940387390E-01  0.00000000000E+00 0.  1.
</event>
<event>
 5   0  0.6221259E+05  0.9118800E+02  0.7546771E-02  0.1180000E+00
      -11   -1    0    0    0    0  0.00000000000E+00  0.00000000000E+00  0.34996269501E-01  0.35000000000E-01  0.51099999109E-03 0. -1.
       11   -1    0    0    0    0 -0.00000000000E+00 -0.00000000000E+00 -0.34996269501E-01  0.35000000000E-01  0.51099999109E-03 0.  1.
       22    1    1    2    0    0  0.18255748050E-02  0.24897295664E-02 -0.34861928371E-01  0.34998364625E-01  0.00000000000E+00 0.  1.
       22    1    1    2    0    0 -0.18503116287E-02 -0.24820518290E-02  0.34673990405E-01  0.34811921019E-01  0.00000000000E+00 0. -1.
       22    1    1    2    0    0  0.24736823674E-04 -0.76777373146E-05  0.18793796554E-03  0.18971435630E-03  0.00000000000E+00 0.  1.
</event>
<event>
 5   0  0.6221259E+05  0.9118800E+02  0.7546771E-02  0.1180000E+00
      -11   -1    0    0    0    0  0.00000000000E+00  0.00000000000E+00  0.34996269501E-01  0.35000000000E-01  0.51099999109E-03 0. -1.
       11   -1    0    0    0    0 -0.00000000000E+00 -0.00000000000E+00 -0.34996269501E-01  0.35000000000E-01  0.51099999109E-03 0.  1.
       22    1    1    2    0    0  0.76039876999E-02  0.29500368850E-02  0.34035008627E-01  0.34998645099E-01  0.00000000000E+00 0. -1.
       22    1    1    2    0    0 -0.76039778658E-02 -0.29500113251E-02 -0.34036384477E-01  0.34999978778E-01  0.00000000000E+00 0.  1.
       22    1    1    2    0    0 -0.98341321477E-08 -0.25559959272E-07  0.13758503095E-05  0.13761228491E-05  0.00000000000E+00 0. -1.
</event>
<event>
 5   0  0.6221259E+05  0.9118800E+02  0.7546771E-02  0.1180000E+00
      -11   -1    0    0    0    0  0.00000000000E+00  0.00000000000E+00  0.34996269501E-01  0.35000000000E-01  0.51099999109E-03 0. -1.
       11   -1    0    0    0    0 -0.00000000000E+00 -0.00000000000E+00 -0.34996269501E-01  0.35000000000E-01  0.51099999109E-03 0.  1.
       22    1    1    2    0    0 -0.19738886337E-01  0.54077240227E-04  0.28717929833E-01  0.34847468374E-01  0.00000000000E+00 0. -1.
       22    1    1    2    0    0  0.14365134415E-01 -0.20173212280E-04 -0.24150465730E-01  0.28099866346E-01  0.00000000000E+00 0.  1.
       22    1    1    2    0    0  0.53737519225E-02 -0.33904027946E-04 -0.45674641036E-02  0.70526652795E-02  0.00000000000E+00 0. -1.
</event>
<event>
 5   0  0.6221259E+05  0.9118800E+02  0.7546771E-02  0.1180000E+00
      -11   -1    0    0    0    0  0.00000000000E+00  0.00000000000E+00  0.34996269501E-01  0.35000000000E-01  0.51099999109E-03 0. -1.
       11   -1    0    0    0    0 -0.00000000000E+00 -0.00000000000E+00 -0.34996269501E-01  0.35000000000E-01  0.51099999109E-03 0.  1.
       22    1    1    2    0    0  0.33941912380E-07  0.20152689963E-08  0.29866699979E-07  0.45256319921E-07  0.00000000000E+00 0.  1.
       22    1    1    2    0    0 -0.34600693649E-01 -0.49735964922E-02  0.17478229844E-02  0.34999993547E-01  0.00000000000E+00 0. -1.
       22    1    1    2    0    0  0.34600659707E-01  0.49735944769E-02 -0.17478528511E-02  0.34999961197E-01  0.00000000000E+00 0.  1.
</event>
<event>
 5   0  0.6221259E+05  0.9118800E+02  0.7546771E-02  0.1180000E+00
      -11   -1    0    0    0    0  0.00000000000E+00  0.00000000000E+00  0.34996269501E-01  0.35000000000E-01  0.51099999109E-03 0. -1.
       11   -1    0    0    0    0 -0.00000000000E+00 -0.00000000000E+00 -0.34996269501E-01  0.35000000000E-01  0.51099999109E-03 0.  1.
       22    1    1    2    0    0 -0.13467513710E-01  0.31442647175E-01 -0.74133944709E-02  0.34999605776E-01  0.00000000000E+00 0.  1.
       22    1    1    2    0    0  0.13467289044E-01 -0.31441860082E-01  0.74116147411E-02  0.34998435289E-01  0.00000000000E+00 0. -1.
       22    1    1    2    0    0  0.22466555939E-06 -0.78709238200E-06  0.17797298068E-05  0.19589352252E-05  0.00000000000E+00 0.  1.
</event>
<event>
 5   0  0.6221259E+05  0.9118800E+02  0.7546771E-02  0.1180000E+00
      -11   -1    0    0    0    0  0.00000000000E+00  0.00000000000E+00  0.34996269501E-01  0.35000000000E-01  0.51099999109E-03 0. -1.
       11   -1    0    0    0    0 -0.00000000000E+00 -0.00000000000E+00 -0.34996269501E-01  0.35000000000E-01  0.51099999109E-03 0.  1.
       22    1    1    2    0    0 -0.37997802780E-02  0.54758572129E-03  0.34787445223E-01  0.34998636051E-01  0.00000000000E+00 0. -1.
       22    1    1    2    0    0  0.54595725262E-08  0.16187948801E-08  0.13683547259E-05  0.13683665749E-05  0.00000000000E+00 0.  1.
       22    1    1    2    0    0  0.37997748185E-02 -0.54758734008E-03 -0.34788813578E-01  0.34999995582E-01  0.00000000000E+00 0.  1.
</event>
<event>
 5   0  0.6221259E+05  0.9118800E+02  0.7546771E-02  0.1180000E+00
      -11   -1    0    0    0    0  0.00000000000E+00  0.00000000000E+00  0.34996269501E-01  0.35000000000E-01  0.51099999109E-03 0.  1.
       11   -1    0    0    0    0 -0.00000000000E+00 -0.00000000000E+00 -0.34996269501E-01  0.35000000000E-01  0.51099999109E-03 0. -1.
       22    1    1    2    0    0 -0.36301636681E-03 -0.10166978193E-01  0.32287349784E-01  0.33852210896E-01  0.00000000000E+00 0.  1.
       22    1    1    2    0    0  0.12465224945E-04 -0.15750635773E-03  0.11449701934E-02  0.11558202189E-02  0.00000000000E+00 0. -1.
       22    1    1    2    0    0  0.35055114187E-03  0.10324484551E-01 -0.33432319978E-01  0.34991968885E-01  0.00000000000E+00 0. -1.
</event>
<event>
 5   0  0.6221259E+05  0.9118800E+02  0.7546771E-02  0.1180000E+00
      -11   -1    0    0    0    0  0.00000000000E+00  0.00000000000E+00  0.34996269501E-01  0.35000000000E-01  0.51099999109E-03 0.  1.
       11   -1    0    0    0    0 -0.00000000000E+00 -0.00000000000E+00 -0.34996269501E-01  0.35000000000E-01  0.51099999109E-03 0. -1.
       22    1    1    2    0    0 -0.42310320395E-02 -0.46280737170E-02 -0.78082421382E-02  0.10014456737E-01  0.00000000000E+00 0. -1.
       22    1    1    2    0    0 -0.83235780395E-02 -0.65913613691E-02 -0.22744460102E-01  0.25100566954E-01  0.00000000000E+00 0. -1.
       22    1    1    2    0    0  0.12554610079E-01  0.11219435086E-01  0.30552702240E-01  0.34884976309E-01  0.00000000000E+00 0.  1.
</event>
<event>
 5   0  0.6221259E+05  0.9118800E+02  0.7546771E-02  0.1180000E+00
      -11   -1    0    0    0    0  0.00000000000E+00  0.00000000000E+00  0.34996269501E-01  0.35000000000E-01  0.51099999109E-03 0. -1.
       11   -1    0    0    0    0 -0.00000000000E+00 -0.00000000000E+00 -0.34996269501E-01  0.35000000000E-01  0.51099999109E-03 0.  1.
       22    1    1    2    0    0  0.31158434545E-01  0.99377178257E-02 -0.40248626989E-02  0.32951567468E-01  0.00000000000E+00 0.  1.
       22    1    1    2    0    0 -0.31658724420E-01 -0.99619745540E-02  0.19876229629E-03  0.33189686280E-01  0.00000000000E+00 0. -1.
       22    1    1    2    0    0  0.50028987479E-03  0.24256728264E-04  0.38261004027E-02  0.38587462522E-02  0.00000000000E+00 0. -1.
</event>
<event>
 5   0  0.6221259E+05  0.9118800E+02  0.7546771E-02  0.1180000E+00
      -11   -1    0    0    0    0  0.00000000000E+00  0.00000000000E+00  0.34996269501E-01  0.35000000000E-01  0.51099999109E-03 0. -1.
       11   -1    0    0    0    0 -0.00000000000E+00 -0.00000000000E+00 -0.34996269501E-01  0.35000000000E-01  0.51099999109E-03 0.  1.
       22    1    1    2    0    0  0.19556488926E-01  0.22209243522E-01  0.18318752507E-01  0.34803497674E-01  0.00000000000E+00 0. -1.
       22    1    1    2    0    0 -0.17268414066E-03 -0.19697886206E-03  0.34371784669E-03  0.43216020486E-03  0.00000000000E+00 0. -1.
       22    1    1    2    0    0 -0.19383804786E-01 -0.22012264660E-01 -0.18662470354E-01  0.34764342121E-01  0.00000000000E+00 0.  1.
</event>
<event>
 5   0  0.6221259E+05  0.9118800E+02  0.7546771E-02  0.1180000E+00
      -11   -1    0    0    0    0  0.00000000000E+00  0.00000000000E+00  0.34996269501E-01  0.35000000000E-01  0.51099999109E-03 0.  1.
       11   -1    0    0    0    0 -0.00000000000E+00 -0.00000000000E+00 -0.34996269501E-01  0.35000000000E-01  0.51099999109E-03 0. -1.
       22    1    1    2    0    0 -0.51845388889E-09  0.15819553249E-08  0.27649513611E-07  0.27699584473E-07  0.00000000000E+00 0.  1.
       22    1    1    2    0    0  0.20626611405E-02  0.79842505801E-02  0.34014632883E-01  0.34999972549E-01  0.00000000000E+00 0.  1.
       22    1    1    2    0    0 -0.20626606221E-02 -0.79842521621E-02 -0.34014660532E-01  0.34999999751E-01  0.00000000000E+00 0. -1.
</event>
<event>
 5   0  0.6221259E+05  0.9118800E+02  0.7546771E-02  0.1180000E+00
      -11   -1    0    0    0    0  0.00000000000E+00  0.00000000000E+00  0.34996269501E-01  0.35000000000E-01  0.51099999109E-03 0.  1.
       11   -1    0    0    0    0 -0.00000000000E+00 -0.00000000000E+00 -0.34996269501E-01  0.35000000000E-01  0.51099999109E-03 0. -1.
       22    1    1    2    0    0 -0.47482489346E-03  0.19481385427E-02  0.34799084814E-01  0.34856807173E-01  0.00000000000E+00 0.  1.
       22    1    1    2    0    0 -0.30848775348E-04  0.65877826637E-05  0.14116882622E-03  0.14465021022E-03  0.00000000000E+00 0. -1.
       22    1    1    2    0    0  0.50567366881E-03 -0.19547263254E-02 -0.34940253640E-01  0.34998542616E-01  0.00000000000E+00 0. -1.
</event>
<event>
 5   0  0.6221259E+05  0.9118800E+02  0.7546771E-02  0.1180000E+00
      -11   -1    0    0    0    0  0.00000000000E+00  0.00000000000E+00  0.34996269501E-01  0.35000000000E-01  0.51099999109E-03 0. -1.
       11   -1    0    0    0    0 -0.00000000000E+00 -0.00000000000E+00 -0.34996269501E-01  0.35000000000E-01  0.51099999109E-03 0. -1.
       22    1    1    2    0    0  0.60867364680E-05 -0.89513187642E-05  0.34902938099E-01  0.34901226362E-01  0.00000000000E+00 0. -1.
       22    1    1    2    0    0 -0.47429691555E-09  0.69751383229E-09 -0.35001413634E-01  0.34999705039E-01  0.00000000000E+00 0. -1.
       22    1    1    2    0    0 -0.60862621711E-05  0.89506212504E-05  0.98475535068E-04  0.99068598531E-04  0.00000000000E+00 0.  1.
</event>
<event>
 5   0  0.6221259E+05  0.9118800E+02  0.7546771E-02  0.1180000E+00
      -11   -1    0    0    0    0  0.00000000000E+00  0.00000000000E+00  0.34996269501E-01  0.35000000000E-01  0.51099999109E-03 0. -1.
       11   -1    0    0    0    0 -0.00000000000E+00 -0.00000000000E+00 -0.34996269501E-01  0.35000000000E-01  0.51099999109E-03 0.  1.
       22    1    1    2    0    0 -0.16401510709E-01  0.79119283621E-03 -0.30908851193E-01  0.34999894596E-01  0.00000000000E+00 0.  1.
       22    1    1    2    0    0  0.16401717331E-01 -0.79116901603E-03  0.30908664036E-01  0.34999825604E-01  0.00000000000E+00 0. -1.
       22    1    1    2    0    0 -0.20662257637E-06 -0.23820186085E-07  0.18715715724E-06  0.27980009263E-06  0.00000000000E+00 0.  1.
</event>
<event>
 5   0  0.6221259E+05  0.9118800E+02  0.7546771E-02  0.1180000E+00
      -11   -1    0    0    0    0  0.00000000000E+00  0.00000000000E+00  0.34996269501E-01  0.35000000000E-01  0.51099999109E-03 0.  1.
       11   -1    0    0    0    0 -0.00000000000E+00 -0.00000000000E+00 -0.34996269501E-01  0.35000000000E-01  0.51099999109E-03 0. -1.
       22    1    1    2    0    0 -0.20279513945E-02  0.12765069062E-01 -0.30428097985E-01  0.33059472500E-01  0.00000000000E+00 0. -1.
       22    1    1    2    0    0  0.32868940471E-03  0.15520818745E-03 -0.19786527116E-02  0.20117636192E-02  0.00000000000E+00 0.  1.
       22    1    1    2    0    0  0.16992619898E-02 -0.12920277249E-01  0.32406750697E-01  0.34928763881E-01  0.00000000000E+00 0.  1.
</event>
<event>
 5   0  0.6221259E+05  0.9118800E+02  0.7546771E-02  0.1180000E+00
      -11   -1    0    0    0    0  0.00000000000E+00  0.00000000000E+00  0.34996269501E-01  0.35000000000E-01  0.51099999109E-03 0.  1.
       11   -1    0    0    0    0 -0.00000000000E+00 -0.00000000000E+00 -0.34996269501E-01  0.35000000000E-01  0.51099999109E-03 0. -1.
       22    1    1    2    0    0  0.68943814027E-05  0.11540673750E-04  0.14674213290E-03  0.14735661917E-03  0.00000000000E+00 0.  1.
       22    1    1    2    0    0  0.58268651255E-03 -0.76577946098E-03 -0.34986502420E-01  0.34999732761E-01  0.00000000000E+00 0. -1.
       22    1    1    2    0    0 -0.58958089395E-03  0.75423878723E-03  0.34839760287E-01  0.34852910620E-01  0.00000000000E+00 0.  1.
</event>
<event>
 5   0  0.6221259E+05  0.9118800E+02  0.7546771E-02  0.1180000E+00
      -11   -1    0    0    0    0  0.00000000000E+00  0.00000000000E+00  0.34996269501E-01  0.35000000000E-01  0.51099999109E-03 0.  1.
       11   -1    0    0    0    0 -0.00000000000E+00 -0.00000000000E+00 -0.34996269501E-01  0.35000000000E-01  0.51099999109E-03 0. -1.
       22    1    1    2    0    0 -0.42722492826E-02  0.14492016494E-02 -0.34708035036E-01  0.34999999934E-01  0.00000000000E+00 0. -1.
       22    1    1    2    0    0  0.17760351491E-08 -0.64352476172E-10  0.36932178833E-07  0.36974914137E-07  0.00000000000E+00 0. -1.
       22    1    1    2    0    0  0.42722475066E-02 -0.14492015851E-02  0.34707998104E-01  0.34999963091E-01  0.00000000000E+00 0.  1.
</event>
<event>
 5   0  0.6221259E+05  0.9118800E+02  0.7546771E-02  0.1180000E+00
      -11   -1    0    0    0    0  0.00000000000E+00  0.00000000000E+00  0.34996269501E-01  0.35000000000E-01  0.51099999109E-03 0. -1.
       11   -1    0    0    0    0 -0.00000000000E+00 -0.00000000000E+00 -0.34996269501E-01  0.35000000000E-01  0.51099999109E-03 0.  1.
       22    1    1    2    0    0 -0.32015716284E-01 -0.46977184688E-03  0.14043850494E-01  0.34963645569E-01  0.00000000000E+00 0. -1.
       22    1    1    2    0    0  0.32023648883E-01  0.40304312842E-03 -0.13982944666E-01  0.34945661720E-01  0.00000000000E+00 0.  1.
       22    1    1    2    0    0 -0.79325981935E-05  0.66728718464E-04 -0.60905827310E-04  0.90692710745E-04  0.00000000000E+00 0. -1.
</event>
<event>
 5   0  0.6221259E+05  0.9118800E+02  0.7546771E-02  0.1180000E+00
      -11   -1    0    0    0    0  0.00000000000E+00  0.00000000000E+00  0.34996269501E-01  0.35000000000E-01  0.51099999109E-03 0.  1.
       11   -1    0    0    0    0 -0.00000000000E+00 -0.00000000000E+00 -0.34996269501E-01  0.35000000000E-01  0.51099999109E-03 0. -1.
       22    1    1    2    0    0 -0.14136658306E-04 -0.25567006146E-03 -0.40747439826E-02  0.40827815945E-02  0.00000000000E+00 0.  1.
       22    1    1    2    0    0 -0.13193632879E-04  0.18395759929E-02 -0.30875918631E-01  0.30930673533E-01  0.00000000000E+00 0. -1.
       22    1    1    2    0    0  0.27330291185E-04 -0.15839059315E-02  0.34950662614E-01  0.34986544872E-01  0.00000000000E+00 0.  1.
</event>
<event>
 5   0  0.6221259E+05  0.9118800E+02  0.7546771E-02  0.1180000E+00
      -11   -1    0    0    0    0  0.00000000000E+00  0.00000000000E+00  0.34996269501E-01  0.35000000000E-01  0.51099999109E-03 0. -1.
       11   -1    0    0    0    0 -0.00000000000E+00 -0.00000000000E+00 -0.34996269501E-01  0.35000000000E-01  0.51099999109E-03 0.  1.
       22    1    1    2    0    0  0.17058019694E-02  0.97938492714E-02  0.33558466971E-01  0.34999999277E-01  0.00000000000E+00 0. -1.
       22    1    1    2    0    0  0.21117519224E-09 -0.81587988178E-10  0.72714684706E-09  0.76157343626E-09  0.00000000000E+00 0. -1.
       22    1    1    2    0    0 -0.17058021806E-02 -0.97938491899E-02 -0.33558467699E-01  0.34999999962E-01  0.00000000000E+00 0.  1.
</event>
<event>
 5   0  0.6221259E+05  0.9118800E+02  0.7546771E-02  0.1180000E+00
      -11   -1    0    0    0    0  0.00000000000E+00  0.00000000000E+00  0.34996269501E-01  0.35000000000E-01  0.51099999109E-03 0.  1.
       11   -1    0    0    0    0 -0.00000000000E+00 -0.00000000000E+00 -0.34996269501E-01  0.35000000000E-01  0.51099999109E-03 0.  1.
       22    1    1    2    0    0  0.62399051351E-06 -0.18315176474E-05  0.35700786879E-05  0.40606998032E-05  0.00000000000E+00 0. -1.
       22    1    1    2    0    0 -0.62403116976E-06  0.18316369803E-05  0.34997014037E-01  0.34996184595E-01  0.00000000000E+00 0.  1.
       22    1    1    2    0    0  0.40656251671E-10 -0.11933297190E-09 -0.35000584116E-01  0.34999754705E-01  0.00000000000E+00 0.  1.
</event>
<event>
 5   0  0.6221259E+05  0.9118800E+02  0.7546771E-02  0.1180000E+00
      -11   -1    0    0    0    0  0.00000000000E+00  0.00000000000E+00  0.34996269501E-01  0.35000000000E-01  0.51099999109E-03 0. -1.
       11   -1    0    0    0    0 -0.00000000000E+00 -0.00000000000E+00 -0.34996269501E-01  0.35000000000E-01  0.51099999109E-03 0.  1.
       22    1    1    2    0    0 -0.36482774431E-07  0.40054798030E-08  0.15489329019E-06  0.15918218507E-06  0.00000000000E+00 0.  1.
       22    1    1    2    0    0 -0.12120355600E-02 -0.16159570123E-02 -0.34941657886E-01  0.34999997187E-01  0.00000000000E+00 0.  1.
       22    1    1    2    0    0  0.12120720428E-02  0.16159530069E-02  0.34941502993E-01  0.34999843631E-01  0.00000000000E+00 0. -1.
</event>
<event>
 5   0  0.6221259E+05  0.9118800E+02  0.7546771E-02  0.1180000E+00
      -11   -1    0    0    0    0  0.00000000000E+00  0.00000000000E+00  0.34996269501E-01  0.35000000000E-01  0.51099999109E-03 0. -1.
       11   -1    0    0    0    0 -0.00000000000E+00 -0.00000000000E+00 -0.34996269501E-01  0.35000000000E-01  0.51099999109E-03 0.  1.
       22    1    1    2    0    0  0.10863226787E-02 -0.78804431060E-02  0.34022413378E-01  0.34940035669E-01  0.00000000000E+00 0. -1.
       22    1    1    2    0    0  0.76955639071E-05 -0.12196842457E-04  0.58357519373E-04  0.60113099547E-04  0.00000000000E+00 0.  1.
       22    1    1    2    0    0 -0.10940182426E-02  0.78926399484E-02 -0.34080770897E-01  0.34999851231E-01  0.00000000000E+00 0.  1.
</event>
<event>
 5   0  0.6221259E+05  0.9118800E+02  0.7546771E-02  0.1180000E+00
      -11   -1    0    0    0    0  0.00000000000E+00  0.00000000000E+00  0.34996269501E-01  0.35000000000E-01  0.51099999109E-03 0. -1.
       11   -1    0    0    0    0 -0.00000000000E+00 -0.00000000000E+00 -0.34996269501E-01  0.35000000000E-01  0.51099999109E-03 0.  1.
       22    1    1    2    0    0  0.15769242916E-02 -0.30706044039E-02  0.34829363734E-01  0.34999998282E-01  0.00000000000E+00 0. -1.
       22    1    1    2    0    0  0.12136956706E-08 -0.39473229780E-09  0.14342208109E-08  0.19198593965E-08  0.00000000000E+00 0. -1.
       22    1    1    2    0    0 -0.15769255053E-02  0.30706047987E-02 -0.34829365168E-01  0.34999999798E-01  0.00000000000E+00 0.  1.
</event>
<event>
 5   0  0.6221259E+05  0.9118800E+02  0.7546771E-02  0.1180000E+00
      -11   -1    0    0    0    0  0.00000000000E+00  0.00000000000E+00  0.34996269501E-01  0.35000000000E-01  0.51099999109E-03 0.  1.
       11   -1    0    0    0    0 -0.00000000000E+00 -0.00000000000E+00 -0.34996269501E-01  0.35000000000E-01  0.51099999109E-03 0. -1.
       22    1    1    2    0    0  0.11921007810E-02 -0.29521314340E-02  0.34854835872E-01  0.34999939542E-01  0.00000000000E+00 0.  1.
       22    1    1    2    0    0  0.35696660116E-07  0.23736217585E-08  0.54736588011E-07  0.65390975607E-07  0.00000000000E+00 0. -1.
       22    1    1    2    0    0 -0.11921364777E-02  0.29521290603E-02 -0.34854890609E-01  0.34999995067E-01  0.00000000000E+00 0. -1.
</event>
<event>
 5   0  0.6221259E+05  0.9118800E+02  0.7546771E-02  0.1180000E+00
      -11   -1    0    0    0    0  0.00000000000E+00  0.00000000000E+00  0.34996269501E-01  0.35000000000E-01  0.51099999109E-03 0. -1.
       11   -1    0    0    0    0 -0.00000000000E+00 -0.00000000000E+00 -0.34996269501E-01  0.35000000000E-01  0.51099999109E-03 0.  1.
       22    1    1    2    0    0 -0.12247159021E-03 -0.26163518228E-02 -0.36475408430E-02  0.44905289613E-02  0.00000000000E+00 0. -1.
       22    1    1    2    0    0  0.50900467478E-02 -0.50522842741E-02  0.33516000482E-01  0.34274720139E-01  0.00000000000E+00 0. -1.
       22    1    1    2    0    0 -0.49675751576E-02  0.76686360969E-02 -0.29868459639E-01  0.31234750900E-01  0.00000000000E+00 0.  1.
</event>
<event>
 5   0  0.6221259E+05  0.9118800E+02  0.7546771E-02  0.1180000E+00
      -11   -1    0    0    0    0  0.00000000000E+00  0.00000000000E+00  0.34996269501E-01  0.35000000000E-01  0.51099999109E-03 0. -1.
       11   -1    0    0    0    0 -0.00000000000E+00 -0.00000000000E+00 -0.34996269501E-01  0.35000000000E-01  0.51099999109E-03 0.  1.
       22    1    1    2    0    0  0.23225513603E-02  0.63668803176E-03 -0.34917048578E-01  0.34999998541E-01  0.00000000000E+00 0.  1.
       22    1    1    2    0    0 -0.23222937849E-02 -0.63675868070E-03  0.34913860769E-01  0.34996802480E-01  0.00000000000E+00 0. -1.
       22    1    1    2    0    0 -0.25757538894E-06  0.70648947434E-07  0.31878094782E-05  0.31989788409E-05  0.00000000000E+00 0.  1.
</event>
<event>
 5   0  0.6221259E+05  0.9118800E+02  0.7546771E-02  0.1180000E+00
      -11   -1    0    0    0    0  0.00000000000E+00  0.00000000000E+00  0.34996269501E-01  0.35000000000E-01  0.51099999109E-03 0.  1.
       11   -1    0    0    0    0 -0.00000000000E+00 -0.00000000000E+00 -0.34996269501E-01  0.35000000000E-01  0.51099999109E-03 0. -1.
       22    1    1    2    0    0 -0.84932748905E-02 -0.63297890704E-02  0.82426538035E-02  0.13421746897E-01  0.00000000000E+00 0.  1.
       22    1    1    2    0    0  0.50955997784E-02  0.14314441432E-01  0.21087508909E-01  0.25991371695E-01  0.00000000000E+00 0.  1.
       22    1    1    2    0    0  0.33976751121E-02 -0.79846523613E-02 -0.29330162713E-01  0.30586881408E-01  0.00000000000E+00 0. -1.
</event>
<event>
 5   0  0.6221259E+05  0.9118800E+02  0.7546771E-02  0.1180000E+00
      -11   -1    0    0    0    0  0.00000000000E+00  0.00000000000E+00  0.34996269501E-01  0.35000000000E-01  0.51099999109E-03 0.  1.
       11   -1    0    0    0    0 -0.00000000000E+00 -0.00000000000E+00 -0.34996269501E-01  0.35000000000E-01  0.51099999109E-03 0. -1.
       22    1    1    2    0    0  0.11935941515E-05 -0.50583531324E-04 -0.91755079527E-04  0.10478126229E-03  0.00000000000E+00 0. -1.
       22    1    1    2    0    0  0.30320206858E-02  0.15509541815E-02 -0.34736448879E-01  0.34903001147E-01  0.00000000000E+00 0. -1.
       22    1    1    2    0    0 -0.30332142800E-02 -0.15003706502E-02  0.34828203959E-01  0.34992217591E-01  0.00000000000E+00 0.  1.
</event>
<event>
 5   0  0.6221259E+05  0.9118800E+02  0.7546771E-02  0.1180000E+00
      -11   -1    0    0    0    0  0.00000000000E+00  0.00000000000E+00  0.34996269501E-01  0.35000000000E-01  0.51099999109E-03 0. -1.
       11   -1    0    0    0    0 -0.00000000000E+00 -0.00000000000E+00 -0.34996269501E-01  0.35000000000E-01  0.51099999109E-03 0.  1.
       22    1    1    2    0    0 -0.24348417293E-02 -0.41041108718E-02 -0.34673156740E-01  0.34999999695E-01  0.00000000000E+00 0.  1.
       22    1    1    2    0    0 -0.33234296846E-09 -0.14498211694E-08  0.41848126196E-07  0.41874551930E-07  0.00000000000E+00 0. -1.
       22    1    1    2    0    0  0.24348420617E-02  0.41041123216E-02  0.34673114892E-01  0.34999958431E-01  0.00000000000E+00 0. -1.
</event>
<event>
 5   0  0.6221259E+05  0.9118800E+02  0.7546771E-02  0.1180000E+00
      -11   -1    0    0    0    0  0.00000000000E+00  0.00000000000E+00  0.34996269501E-01  0.35000000000E-01  0.51099999109E-03 0.  1.
       11   -1    0    0    0    0 -0.00000000000E+00 -0.00000000000E+00 -0.34996269501E-01  0.35000000000E-01  0.51099999109E-03 0. -1.
       22    1    1    2    0    0 -0.12123005439E-02 -0.24379667548E-02  0.31815337375E-01  0.31931630819E-01  0.00000000000E+00 0.  1.
       22    1    1    2    0    0  0.28681347013E-03 -0.62111048891E-03  0.30150318654E-02  0.30916754933E-02  0.00000000000E+00 0. -1.
       22    1    1    2    0    0  0.92548707380E-03  0.30590772437E-02 -0.34830369240E-01  0.34976693688E-01  0.00000000000E+00 0. -1.
</event>
<event>
 5   0  0.6221259E+05  0.9118800E+02  0.7546771E-02  0.1180000E+00
      -11   -1    0    0    0    0  0.00000000000E+00  0.00000000000E+00  0.34996269501E-01  0.35000000000E-01  0.51099999109E-03 0.  1.
       11   -1    0    0    0    0 -0.00000000000E+00 -0.00000000000E+00 -0.34996269501E-01  0.35000000000E-01  0.51099999109E-03 0. -1.
       22    1    1    2    0    0  0.12221209679E-03  0.62731337409E-02 -0.34430543989E-01  0.34997564231E-01  0.00000000000E+00 0. -1.
       22    1    1    2    0    0 -0.16084044838E-03 -0.62107400051E-02  0.34221419323E-01  0.34780809386E-01  0.00000000000E+00 0.  1.
       22    1    1    2    0    0  0.38628351588E-04 -0.62393735728E-04  0.20912466614E-03  0.22162638334E-03  0.00000000000E+00 0. -1.
</event>
<event>
 5   0  0.6221259E+05  0.9118800E+02  0.7546771E-02  0.1180000E+00
      -11   -1    0    0    0    0  0.00000000000E+00  0.00000000000E+00  0.34996269501E-01  0.35000000000E-01  0.51099999109E-03 0. -1.
       11   -1    0    0    0    0 -0.00000000000E+00 -0.00000000000E+00 -0.34996269501E-01  0.35000000000E-01  0.51099999109E-03 0.  1.
       22    1    1    2    0    0  0.49442103395E-06 -0.60009641348E-05  0.18428838152E-03  0.18438672291E-03  0.00000000000E+00 0.  1.
       22    1    1    2    0    0 -0.14437953972E-02 -0.32779938938E-02  0.34631135611E-01  0.34815877740E-01  0.00000000000E+00 0. -1.
       22    1    1    2    0    0  0.14433009762E-02  0.32839948579E-02 -0.34815423992E-01  0.34999735537E-01  0.00000000000E+00 0.  1.
</event>
<event>
 5   0  0.6221259E+05  0.9118800E+02  0.7546771E-02  0.1180000E+00
      -11   -1    0    0    0    0  0.00000000000E+00  0.00000000000E+00  0.34996269501E-01  0.35000000000E-01  0.51099999109E-03 0. -1.
       11   -1    0    0    0    0 -0.00000000000E+00 -0.00000000000E+00 -0.34996269501E-01  0.35000000000E-01  0.51099999109E-03 0.  1.
       22    1    1    2    0    0  0.52337827247E-03 -0.70394597967E-03 -0.34862417694E-01  0.34873451682E-01  0.00000000000E+00 0.  1.
       22    1    1    2    0    0 -0.42686192473E-04  0.18852768158E-03 -0.55820495920E-04  0.20119822443E-03  0.00000000000E+00 0. -1.
       22    1    1    2    0    0 -0.48069207999E-03  0.51541829809E-03  0.34918238190E-01  0.34925350094E-01  0.00000000000E+00 0. -1.
</event>
<event>
 5   0  0.6221259E+05  0.9118800E+02  0.7546771E-02  0.1180000E+00
      -11   -1    0    0    0    0  0.00000000000E+00  0.00000000000E+00  0.34996269501E-01  0.35000000000E-01  0.51099999109E-03 0.  1.
       11   -1    0    0    0    0 -0.00000000000E+00 -0.00000000000E+00 -0.34996269501E-01  0.35000000000E-01  0.51099999109E-03 0. -1.
       22    1    1    2    0    0 -0.36385609053E-07  0.11594346513E-07  0.82017242714E-07  0.90471926693E-07  0.00000000000E+00 0. -1.
       22    1    1    2    0    0  0.39656965909E-02  0.40499250018E-02 -0.34537966378E-01  0.34999996622E-01  0.00000000000E+00 0. -1.
       22    1    1    2    0    0 -0.39656602053E-02 -0.40499365962E-02  0.34537884361E-01  0.34999912906E-01  0.00000000000E+00 0.  1.
</event>
<event>
 5   0  0.6221259E+05  0.9118800E+02  0.7546771E-02  0.1180000E+00
      -11   -1    0    0    0    0  0.00000000000E+00  0.00000000000E+00  0.34996269501E-01  0.35000000000E-01  0.51099999109E-03 0. -1.
       11   -1    0    0    0    0 -0.00000000000E+00 -0.00000000000E+00 -0.34996269501E-01  0.35000000000E-01  0.51099999109E-03 0. -1.
       22    1    1    2    0    0  0.33582758557E-07  0.29379699779E-07  0.15064030560E-06  0.15710973904E-06  0.00000000000E+00 0.  1.
       22    1    1    2    0    0 -0.15943215483E-03  0.10931223174E-03  0.34999312325E-01  0.34999846157E-01  0.00000000000E+00 0. -1.
       22    1    1    2    0    0  0.15939857207E-03 -0.10934161144E-03 -0.34999462965E-01  0.34999996734E-01  0.00000000000E+00 0. -1.
</event>
<event>
 5   0  0.6221259E+05  0.9118800E+02  0.7546771E-02  0.1180000E+00
      -11   -1    0    0    0    0  0.00000000000E+00  0.00000000000E+00  0.34996269501E-01  0.35000000000E-01  0.51099999109E-03 0. -1.
       11   -1    0    0    0    0 -0.00000000000E+00 -0.00000000000E+00 -0.34996269501E-01  0.35000000000E-01  0.51099999109E-03 0.  1.
       22    1    1    2    0    0  0.68796293557E-03 -0.60230641271E-03  0.34988049657E-01  0.34999995497E-01  0.00000000000E+00 0. -1.
       22    1    1    2    0    0 -0.68796335395E-03  0.60230551204E-03 -0.34988054109E-01  0.34999999941E-01  0.00000000000E+00 0.  1.
       22    1    1    2    0    0  0.41838132809E-09  0.90067591315E-09  0.44524100590E-08  0.45618214969E-08  0.00000000000E+00 0. -1.
</event>
<event>
 5   0  0.6221259E+05  0.9118800E+02  0.7546771E-02  0.1180000E+00
      -11   -1    0    0    0    0  0.00000000000E+00  0.00000000000E+00  0.34996269501E-01  0.35000000000E-01  0.51099999109E-03 0.  1.
       11   -1    0    0    0    0 -0.00000000000E+00 -0.00000000000E+00 -0.34996269501E-01  0.35000000000E-01  0.51099999109E-03 0. -1.
       22    1    1    2    0    0 -0.15102111357E-01 -0.16027771137E-01  0.27146083276E-01  0.34955300775E-01  0.00000000000E+00 0.  1.
       22    1    1    2    0    0  0.67803651044E-05  0.35429072764E-06 -0.40957175123E-03  0.40962802428E-03  0.00000000000E+00 0. -1.
       22    1    1    2    0    0  0.15095330992E-01  0.16027416846E-01 -0.26736511525E-01  0.34635071200E-01  0.00000000000E+00 0. -1.
</event>
<event>
 5   0  0.6221259E+05  0.9118800E+02  0.7546771E-02  0.1180000E+00
      -11   -1    0    0    0    0  0.00000000000E+00  0.00000000000E+00  0.34996269501E-01  0.35000000000E-01  0.51099999109E-03 0.  1.
       11   -1    0    0    0    0 -0.00000000000E+00 -0.00000000000E+00 -0.34996269501E-01  0.35000000000E-01  0.51099999109E-03 0.  1.
       22    1    1    2    0    0  0.89258648935E-08  0.58699910031E-08  0.35002269174E-01  0.34999995269E-01  0.00000000000E+00 0.  1.
       22    1    1    2    0    0 -0.76565215355E-12 -0.50352221398E-12 -0.35002267875E-01  0.34999993970E-01  0.00000000000E+00 0.  1.
       22    1    1    2    0    0 -0.89250992413E-08 -0.58694874809E-08 -0.12984648997E-08  0.10760775569E-07  0.00000000000E+00 0. -1.
</event>
<event>
 5   0  0.6221259E+05  0.9118800E+02  0.7546771E-02  0.1180000E+00
      -11   -1    0    0    0    0  0.00000000000E+00  0.00000000000E+00  0.34996269501E-01  0.35000000000E-01  0.51099999109E-03 0.  1.
       11   -1    0    0    0    0 -0.00000000000E+00 -0.00000000000E+00 -0.34996269501E-01  0.35000000000E-01  0.51099999109E-03 0. -1.
       22    1    1    2    0    0 -0.17151089081E-01  0.19693983268E-01 -0.23172767524E-01  0.34914037125E-01  0.00000000000E+00 0. -1.
       22    1    1    2    0    0  0.17159067187E-01 -0.19678462575E-01  0.23278088203E-01  0.34979206201E-01  0.00000000000E+00 0.  1.
       22    1    1    2    0    0 -0.79781060117E-05 -0.15520693681E-04 -0.10532067901E-03  0.10675667443E-03  0.00000000000E+00 0. -1.
</event>
<event>
 5   0  0.6221259E+05  0.9118800E+02  0.7546771E-02  0.1180000E+00
      -11   -1    0    0    0    0  0.00000000000E+00  0.00000000000E+00  0.34996269501E-01  0.35000000000E-01  0.51099999109E-03 0.  1.
       11   -1    0    0    0    0 -0.00000000000E+00 -0.00000000000E+00 -0.34996269501E-01  0.35000000000E-01  0.51099999109E-03 0. -1.
       22    1    1    2    0    0  0.24437068600E-01  0.15793987221E-02 -0.24447622092E-01  0.34602760700E-01  0.00000000000E+00 0. -1.
       22    1    1    2    0    0 -0.22567400347E-01 -0.39081982038E-03  0.18953710606E-01  0.29473436249E-01  0.00000000000E+00 0.  1.
       22    1    1    2    0    0 -0.18696682529E-02 -0.11885789017E-02  0.54939114859E-02  0.59238030518E-02  0.00000000000E+00 0.  1.
</event>
<event>
 5   0  0.6221259E+05  0.9118800E+02  0.7546771E-02  0.1180000E+00
      -11   -1    0    0    0    0  0.00000000000E+00  0.00000000000E+00  0.34996269501E-01  0.35000000000E-01  0.51099999109E-03 0.  1.
       11   -1    0    0    0    0 -0.00000000000E+00 -0.00000000000E+00 -0.34996269501E-01  0.35000000000E-01  0.51099999109E-03 0. -1.
       22    1    1    2    0    0  0.55852231093E-05 -0.35544464639E-04  0.12506001840E-04  0.38092043338E-04  0.00000000000E+00 0.  1.
       22    1    1    2    0    0 -0.54895495924E-03 -0.46136249461E-03 -0.34979656491E-01  0.34987005804E-01  0.00000000000E+00 0. -1.
       22    1    1    2    0    0  0.54336973613E-03  0.49690695925E-03  0.34967150490E-01  0.34974902152E-01  0.00000000000E+00 0.  1.
</event>
<event>
 5   0  0.6221259E+05  0.9118800E+02  0.7546771E-02  0.1180000E+00
      -11   -1    0    0    0    0  0.00000000000E+00  0.00000000000E+00  0.34996269501E-01  0.35000000000E-01  0.51099999109E-03 0.  1.
       11   -1    0    0    0    0 -0.00000000000E+00 -0.00000000000E+00 -0.34996269501E-01  0.35000000000E-01  0.51099999109E-03 0. -1.
       22    1    1    2    0    0 -0.10019530018E-02 -0.21244084233E-01  0.27796393266E-01  0.34999350041E-01  0.00000000000E+00 0.  1.
       22    1    1    2    0    0 -0.30682409369E-06 -0.87780684327E-06 -0.26143446402E-06  0.96593677720E-06  0.00000000000E+00 0. -1.
       22    1    1    2    0    0  0.10022598259E-02  0.21244962040E-01 -0.27796131831E-01  0.34999684022E-01  0.00000000000E+00 0. -1.
</event>
<event>
 5   0  0.6221259E+05  0.9118800E+02  0.7546771E-02  0.1180000E+00
      -11   -1    0    0    0    0  0.00000000000E+00  0.00000000000E+00  0.34996269501E-01  0.35000000000E-01  0.51099999109E-03 0.  1.
       11   -1    0    0    0    0 -0.00000000000E+00 -0.00000000000E+00 -0.34996269501E-01  0.35000000000E-01  0.51099999109E-03 0.  1.
       22    1    1    2    0    0 -0.53477583999E-03  0.17224470385E-02  0.34953490860E-01  0.34999990461E-01  0.00000000000E+00 0.  1.
       22    1    1    2    0    0  0.44715709037E-09  0.53823353202E-08  0.86412656768E-08  0.10190238244E-07  0.00000000000E+00 0. -1.
       22    1    1    2    0    0  0.53477539284E-03 -0.17224524208E-02 -0.34953499501E-01  0.34999999349E-01  0.00000000000E+00 0.  1.
</event>
<event>
 5   0  0.6221259E+05  0.9118800E+02  0.7546771E-02  0.1180000E+00
      -11   -1    0    0    0    0  0.00000000000E+00  0.00000000000E+00  0.34996269501E-01  0.35000000000E-01  0.51099999109E-03 0.  1.
       11   -1    0    0    0    0 -0.00000000000E+00 -0.00000000000E+00 -0.34996269501E-01  0.35000000000E-01  0.51099999109E-03 0.  1.
       22    1    1    2    0    0  0.40097975658E-05 -0.21025408943E-02 -0.32155867949E-01  0.32224533167E-01  0.00000000000E+00 0.  1.
       22    1    1    2    0    0  0.36220055162E-03  0.78984204226E-03 -0.27289956194E-02  0.28639931533E-02  0.00000000000E+00 0. -1.
       22    1    1    2    0    0 -0.36621034918E-03  0.13126988521E-02  0.34884863568E-01  0.34911473680E-01  0.00000000000E+00 0.  1.
</event>
<event>
 5   0  0.6221259E+05  0.9118800E+02  0.7546771E-02  0.1180000E+00
      -11   -1    0    0    0    0  0.00000000000E+00  0.00000000000E+00  0.34996269501E-01  0.35000000000E-01  0.51099999109E-03 0. -1.
       11   -1    0    0    0    0 -0.00000000000E+00 -0.00000000000E+00 -0.34996269501E-01  0.35000000000E-01  0.51099999109E-03 0.  1.
       22    1    1    2    0    0  0.28602348679E-02 -0.45163876374E-02  0.34574358835E-01  0.34985211013E-01  0.00000000000E+00 0. -1.
       22    1    1    2    0    0  0.33084869510E-06  0.10076752409E-05  0.14909143856E-04  0.14946820423E-04  0.00000000000E+00 0. -1.
       22    1    1    2    0    0 -0.28605657166E-02  0.45153799622E-02 -0.34589267978E-01  0.34999842167E-01  0.00000000000E+00 0.  1.
</event>
<event>
 5   0  0.6221259E+05  0.9118800E+02  0.7546771E-02  0.1180000E+00
      -11   -1    0    0    0    0  0.00000000000E+00  0.00000000000E+00  0.34996269501E-01  0.35000000000E-01  0.51099999109E-03 0.  1.
       11   -1    0    0    0    0 -0.00000000000E+00 -0.00000000000E+00 -0.34996269501E-01  0.35000000000E-01  0.51099999109E-03 0. -1.
       22    1    1    2    0    0 -0.16818595529E-05 -0.12261007578E-06  0.58428167675E-04  0.58452497488E-04  0.00000000000E+00 0. -1.
       22    1    1    2    0    0 -0.18004370592E-01 -0.22064215972E-02 -0.29927350414E-01  0.34995313393E-01  0.00000000000E+00 0. -1.
       22    1    1    2    0    0  0.18006052452E-01  0.22065442073E-02  0.29868922247E-01  0.34946234109E-01  0.00000000000E+00 0.  1.
</event>
<event>
 5   0  0.6221259E+05  0.9118800E+02  0.7546771E-02  0.1180000E+00
      -11   -1    0    0    0    0  0.00000000000E+00  0.00000000000E+00  0.34996269501E-01  0.35000000000E-01  0.51099999109E-03 0. -1.
       11   -1    0    0    0    0 -0.00000000000E+00 -0.00000000000E+00 -0.34996269501E-01  0.35000000000E-01  0.51099999109E-03 0.  1.
       22    1    1    2    0    0  0.51587819770E-03  0.31068944153E-03  0.34994813495E-01  0.34999994712E-01  0.00000000000E+00 0. -1.
       22    1    1    2    0    0 -0.73757587008E-08 -0.30381471106E-08  0.23862905466E-08  0.83262558723E-08  0.00000000000E+00 0.  1.
       22    1    1    2    0    0 -0.51587082194E-03 -0.31068640338E-03 -0.34994815882E-01  0.34999996962E-01  0.00000000000E+00 0.  1.
</event>
<event>
 5   0  0.6221259E+05  0.9118800E+02  0.7546771E-02  0.1180000E+00
      -11   -1    0    0    0    0  0.00000000000E+00  0.00000000000E+00  0.34996269501E-01  0.35000000000E-01  0.51099999109E-03 0.  1.
       11   -1    0    0    0    0 -0.00000000000E+00 -0.00000000000E+00 -0.34996269501E-01  0.35000000000E-01  0.51099999109E-03 0. -1.
       22    1    1    2    0    0  0.10086380930E-07 -0.40947462057E-07  0.23420383579E-06  0.23797030577E-06  0.00000000000E+00 0.  1.
       22    1    1    2    0    0 -0.63094780592E-03 -0.25253804718E-02  0.34902833094E-01  0.34999762851E-01  0.00000000000E+00 0.  1.
       22    1    1    2    0    0  0.63093771954E-03  0.25254214192E-02 -0.34903067297E-01  0.34999999179E-01  0.00000000000E+00 0. -1.
</event>
<event>
 5   0  0.6221259E+05  0.9118800E+02  0.7546771E-02  0.1180000E+00
      -11   -1    0    0    0    0  0.00000000000E+00  0.00000000000E+00  0.34996269501E-01  0.35000000000E-01  0.51099999109E-03 0.  1.
       11   -1    0    0    0    0 -0.00000000000E+00 -0.00000000000E+00 -0.34996269501E-01  0.35000000000E-01  0.51099999109E-03 0. -1.
       22    1    1    2    0    0 -0.10084027447E-02 -0.72600850707E-04 -0.34985275620E-01  0.34999880817E-01  0.00000000000E+00 0. -1.
       22    1    1    2    0    0  0.10082331435E-02  0.72621712633E-04  0.34985337214E-01  0.34999937542E-01  0.00000000000E+00 0.  1.
       22    1    1    2    0    0  0.16960122377E-06 -0.20861926282E-07 -0.61593967455E-07  0.18164143772E-06  0.00000000000E+00 0. -1.
</event>
<event>
 5   0  0.6221259E+05  0.9118800E+02  0.7546771E-02  0.1180000E+00
      -11   -1    0    0    0    0  0.00000000000E+00  0.00000000000E+00  0.34996269501E-01  0.35000000000E-01  0.51099999109E-03 0.  1.
       11   -1    0    0    0    0 -0.00000000000E+00 -0.00000000000E+00 -0.34996269501E-01  0.35000000000E-01  0.51099999109E-03 0. -1.
       22    1    1    2    0    0  0.33686755665E-08  0.19492141892E-08  0.80325258006E-08  0.89257426450E-08  0.00000000000E+00 0.  1.
       22    1    1    2    0    0 -0.12655670571E-01  0.22417244085E-02  0.32554694568E-01  0.34999992348E-01  0.00000000000E+00 0.  1.
       22    1    1    2    0    0  0.12655667203E-01 -0.22417263577E-02 -0.32554702601E-01  0.34999998726E-01  0.00000000000E+00 0. -1.
</event>
<event>
 5   0  0.6221259E+05  0.9118800E+02  0.7546771E-02  0.1180000E+00
      -11   -1    0    0    0    0  0.00000000000E+00  0.00000000000E+00  0.34996269501E-01  0.35000000000E-01  0.51099999109E-03 0. -1.
       11   -1    0    0    0    0 -0.00000000000E+00 -0.00000000000E+00 -0.34996269501E-01  0.35000000000E-01  0.51099999109E-03 0.  1.
       22    1    1    2    0    0  0.24786188933E-03 -0.83645727690E-03 -0.34989112477E-01  0.34999986975E-01  0.00000000000E+00 0.  1.
       22    1    1    2    0    0 -0.42303497432E-05  0.52546931025E-05  0.18218998603E-03  0.18231483393E-03  0.00000000000E+00 0. -1.
       22    1    1    2    0    0 -0.24363153958E-03  0.83120258380E-03  0.34806922491E-01  0.34817698192E-01  0.00000000000E+00 0. -1.
</event>
<event>
 5   0  0.6221259E+05  0.9118800E+02  0.7546771E-02  0.1180000E+00
      -11   -1    0    0    0    0  0.00000000000E+00  0.00000000000E+00  0.34996269501E-01  0.35000000000E-01  0.51099999109E-03 0. -1.
       11   -1    0    0    0    0 -0.00000000000E+00 -0.00000000000E+00 -0.34996269501E-01  0.35000000000E-01  0.51099999109E-03 0.  1.
       22    1    1    2    0    0  0.12580131124E-08 -0.20984204870E-08  0.77469426162E-08  0.81241052080E-08  0.00000000000E+00 0. -1.
       22    1    1    2    0    0  0.24745593487E-01 -0.84217782172E-02  0.23275066943E-01  0.34999992665E-01  0.00000000000E+00 0. -1.
       22    1    1    2    0    0 -0.24745594745E-01  0.84217803156E-02 -0.23275074690E-01  0.34999999211E-01  0.00000000000E+00 0.  1.
</event>
<event>
 5   0  0.6221259E+05  0.9118800E+02  0.7546771E-02  0.1180000E+00
      -11   -1    0    0    0    0  0.00000000000E+00  0.00000000000E+00  0.34996269501E-01  0.35000000000E-01  0.51099999109E-03 0.  1.
       11   -1    0    0    0    0 -0.00000000000E+00 -0.00000000000E+00 -0.34996269501E-01  0.35000000000E-01  0.51099999109E-03 0.  1.
       22    1    1    2    0    0  0.68205447255E-07  0.63747623692E-08  0.35000004882E-01  0.34999874046E-01  0.00000000000E+00 0.  1.
       22    1    1    2    0    0 -0.37625456190E-11 -0.35166302971E-12 -0.35000121522E-01  0.34999990687E-01  0.00000000000E+00 0.  1.
       22    1    1    2    0    0 -0.68201684710E-07 -0.63744107061E-08  0.11664029325E-06  0.13526662899E-06  0.00000000000E+00 0. -1.
</event>
<event>
 5   0  0.6221259E+05  0.9118800E+02  0.7546771E-02  0.1180000E+00
      -11   -1    0    0    0    0  0.00000000000E+00  0.00000000000E+00  0.34996269501E-01  0.35000000000E-01  0.51099999109E-03 0.  1.
       11   -1    0    0    0    0 -0.00000000000E+00 -0.00000000000E+00 -0.34996269501E-01  0.35000000000E-01  0.51099999109E-03 0.  1.
       22    1    1    2    0    0  0.56302836765E-06 -0.44362791231E-07  0.34999271733E-01  0.34998994239E-01  0.00000000000E+00 0.  1.
       22    1    1    2    0    0 -0.32239762600E-10  0.25402731723E-11 -0.35000198216E-01  0.34999920725E-01  0.00000000000E+00 0.  1.
       22    1    1    2    0    0 -0.56299612788E-06  0.44360250958E-07  0.92648259264E-06  0.10850356982E-05  0.00000000000E+00 0. -1.
</event>
<event>
 5   0  0.6221259E+05  0.9118800E+02  0.7546771E-02  0.1180000E+00
      -11   -1    0    0    0    0  0.00000000000E+00  0.00000000000E+00  0.34996269501E-01  0.35000000000E-01  0.51099999109E-03 0. -1.
       11   -1    0    0    0    0 -0.00000000000E+00 -0.00000000000E+00 -0.34996269501E-01  0.35000000000E-01  0.51099999109E-03 0. -1.
       22    1    1    2    0    0 -0.56964630793E-03  0.53326101634E-04 -0.34995323323E-01  0.34999999929E-01  0.00000000000E+00 0. -1.
       22    1    1    2    0    0  0.85126729994E-09  0.21532511280E-08  0.17815197441E-07  0.17965032878E-07  0.00000000000E+00 0. -1.
       22    1    1    2    0    0  0.56964545666E-03 -0.53328254885E-04  0.34995305507E-01  0.34999982106E-01  0.00000000000E+00 0. -1.
</event>
<event>
 5   0  0.6221259E+05  0.9118800E+02  0.7546771E-02  0.1180000E+00
      -11   -1    0    0    0    0  0.00000000000E+00  0.00000000000E+00  0.34996269501E-01  0.35000000000E-01  0.51099999109E-03 0.  1.
       11   -1    0    0    0    0 -0.00000000000E+00 -0.00000000000E+00 -0.34996269501E-01  0.35000000000E-01  0.51099999109E-03 0. -1.
       22    1    1    2    0    0 -0.16827056511E-02 -0.52151482991E-03 -0.34827797254E-01  0.34872323375E-01  0.00000000000E+00 0. -1.
       22    1    1    2    0    0  0.19469122561E-02  0.51031147819E-03  0.34804018585E-01  0.34862165664E-01  0.00000000000E+00 0.  1.
       22    1    1    2    0    0 -0.26420660508E-03  0.11203351717E-04  0.23778669398E-04  0.26551096094E-03  0.00000000000E+00 0. -1.
</event>
<event>
 5   0  0.6221259E+05  0.9118800E+02  0.7546771E-02  0.1180000E+00
      -11   -1    0    0    0    0  0.00000000000E+00  0.00000000000E+00  0.34996269501E-01  0.35000000000E-01  0.51099999109E-03 0. -1.
       11   -1    0    0    0    0 -0.00000000000E+00 -0.00000000000E+00 -0.34996269501E-01  0.35000000000E-01  0.51099999109E-03 0. -1.
       22    1    1    2    0    0 -0.67801771401E-03 -0.61678876107E-03 -0.33496312710E-01  0.33508851093E-01  0.00000000000E+00 0. -1.
       22    1    1    2    0    0 -0.53135228184E-03  0.79451445300E-03 -0.13330692692E-02  0.16403237912E-02  0.00000000000E+00 0.  1.
       22    1    1    2    0    0  0.12093699958E-02 -0.17772569193E-03  0.34829381979E-01  0.34850825116E-01  0.00000000000E+00 0. -1.
</event>
<event>
 5   0  0.6221259E+05  0.9118800E+02  0.7546771E-02  0.1180000E+00
      -11   -1    0    0    0    0  0.00000000000E+00  0.00000000000E+00  0.34996269501E-01  0.35000000000E-01  0.51099999109E-03 0.  1.
       11   -1    0    0    0    0 -0.00000000000E+00 -0.00000000000E+00 -0.34996269501E-01  0.35000000000E-01  0.51099999109E-03 0.  1.
       22    1    1    2    0    0  0.51860704848E-03  0.20075834444E-02 -0.32862270851E-01  0.32927620474E-01  0.00000000000E+00 0.  1.
       22    1    1    2    0    0 -0.51860704848E-03 -0.20075834444E-02 -0.15964534835E-02  0.26168699398E-02  0.00000000000E+00 0. -1.
       22    1    1    2    0    0  0.00000000000E+00 -0.00000000000E+00  0.34458724335E-01  0.34455509586E-01  0.00000000000E+00 0.  1.
</event>
<event>
 5   0  0.6221259E+05  0.9118800E+02  0.7546771E-02  0.1180000E+00
      -11   -1    0    0    0    0  0.00000000000E+00  0.00000000000E+00  0.34996269501E-01  0.35000000000E-01  0.51099999109E-03 0. -1.
       11   -1    0    0    0    0 -0.00000000000E+00 -0.00000000000E+00 -0.34996269501E-01  0.35000000000E-01  0.51099999109E-03 0.  1.
       22    1    1    2    0    0 -0.66725005203E-03  0.10080234355E-02  0.32782621403E-01  0.32804902071E-01  0.00000000000E+00 0. -1.
       22    1    1    2    0    0 -0.60432272046E-04 -0.10677422772E-02 -0.34920041552E-01  0.34936414064E-01  0.00000000000E+00 0.  1.
       22    1    1    2    0    0  0.72768232408E-03  0.59718841650E-04  0.21374201497E-02  0.22586838648E-02  0.00000000000E+00 0. -1.
</event>
<event>
 5   0  0.6221259E+05  0.9118800E+02  0.7546771E-02  0.1180000E+00
      -11   -1    0    0    0    0  0.00000000000E+00  0.00000000000E+00  0.34996269501E-01  0.35000000000E-01  0.51099999109E-03 0. -1.
       11   -1    0    0    0    0 -0.00000000000E+00 -0.00000000000E+00 -0.34996269501E-01  0.35000000000E-01  0.51099999109E-03 0.  1.
       22    1    1    2    0    0 -0.24159875023E-02 -0.27775287416E-02  0.34762563373E-01  0.34956937420E-01  0.00000000000E+00 0. -1.
       22    1    1    2    0    0 -0.12181584108E-05  0.14406985423E-04  0.42513098860E-04  0.44904439798E-04  0.00000000000E+00 0.  1.
       22    1    1    2    0    0  0.24172056607E-02  0.27631217562E-02 -0.34805076472E-01  0.34998158141E-01  0.00000000000E+00 0.  1.
</event>
<event>
 5   0  0.6221259E+05  0.9118800E+02  0.7546771E-02  0.1180000E+00
      -11   -1    0    0    0    0  0.00000000000E+00  0.00000000000E+00  0.34996269501E-01  0.35000000000E-01  0.51099999109E-03 0.  1.
       11   -1    0    0    0    0 -0.00000000000E+00 -0.00000000000E+00 -0.34996269501E-01  0.35000000000E-01  0.51099999109E-03 0. -1.
       22    1    1    2    0    0 -0.22662908133E-01  0.28169994161E-02  0.26522595761E-01  0.34999871095E-01  0.00000000000E+00 0.  1.
       22    1    1    2    0    0  0.22662935180E-01 -0.28169585135E-02 -0.26522729380E-01  0.34999986572E-01  0.00000000000E+00 0. -1.
       22    1    1    2    0    0 -0.27047560858E-07 -0.40902611707E-07  0.13361954996E-06  0.14233333526E-06  0.00000000000E+00 0. -1.
</event>
<event>
 5   0  0.6221259E+05  0.9118800E+02  0.7546771E-02  0.1180000E+00
      -11   -1    0    0    0    0  0.00000000000E+00  0.00000000000E+00  0.34996269501E-01  0.35000000000E-01  0.51099999109E-03 0. -1.
       11   -1    0    0    0    0 -0.00000000000E+00 -0.00000000000E+00 -0.34996269501E-01  0.35000000000E-01  0.51099999109E-03 0.  1.
       22    1    1    2    0    0 -0.27537721817E-01  0.18513065190E-01 -0.10562298397E-01  0.34822720356E-01  0.00000000000E+00 0.  1.
       22    1    1    2    0    0  0.27363748547E-01 -0.18408454048E-01  0.98239999465E-02  0.34411580753E-01  0.00000000000E+00 0. -1.
       22    1    1    2    0    0  0.17397326955E-03 -0.10461114277E-03  0.73829845003E-03  0.76569889057E-03  0.00000000000E+00 0.  1.
</event>
<event>
 5   0  0.6221259E+05  0.9118800E+02  0.7546771E-02  0.1180000E+00
      -11   -1    0    0    0    0  0.00000000000E+00  0.00000000000E+00  0.34996269501E-01  0.35000000000E-01  0.51099999109E-03 0. -1.
       11   -1    0    0    0    0 -0.00000000000E+00 -0.00000000000E+00 -0.34996269501E-01  0.35000000000E-01  0.51099999109E-03 0. -1.
       22    1    1    2    0    0  0.57430557132E-03 -0.61620555204E-04 -0.34995232991E-01  0.34999999372E-01  0.00000000000E+00 0. -1.
       22    1    1    2    0    0 -0.23916078210E-08  0.19958666966E-08  0.30901512054E-08  0.43877450145E-08  0.00000000000E+00 0. -1.
       22    1    1    2    0    0 -0.57430317971E-03  0.61618559337E-04  0.34995229901E-01  0.34999996240E-01  0.00000000000E+00 0. -1.
</event>
<event>
 5   0  0.6221259E+05  0.9118800E+02  0.7546771E-02  0.1180000E+00
      -11   -1    0    0    0    0  0.00000000000E+00  0.00000000000E+00  0.34996269501E-01  0.35000000000E-01  0.51099999109E-03 0. -1.
       11   -1    0    0    0    0 -0.00000000000E+00 -0.00000000000E+00 -0.34996269501E-01  0.35000000000E-01  0.51099999109E-03 0.  1.
       22    1    1    2    0    0  0.15799847461E-03 -0.15840150172E-02  0.34911147818E-01  0.34947422066E-01  0.00000000000E+00 0. -1.
       22    1    1    2    0    0 -0.15838884090E-03  0.15834702239E-02 -0.34963762326E-01  0.34999959157E-01  0.00000000000E+00 0.  1.
       22    1    1    2    0    0  0.39036629320E-06  0.54479324028E-06  0.52614508479E-04  0.52618776953E-04  0.00000000000E+00 0. -1.
</event>
<event>
 5   0  0.6221259E+05  0.9118800E+02  0.7546771E-02  0.1180000E+00
      -11   -1    0    0    0    0  0.00000000000E+00  0.00000000000E+00  0.34996269501E-01  0.35000000000E-01  0.51099999109E-03 0. -1.
       11   -1    0    0    0    0 -0.00000000000E+00 -0.00000000000E+00 -0.34996269501E-01  0.35000000000E-01  0.51099999109E-03 0.  1.
       22    1    1    2    0    0  0.21713671365E-02 -0.39165133734E-03 -0.34930381154E-01  0.34999996480E-01  0.00000000000E+00 0.  1.
       22    1    1    2    0    0 -0.21713735994E-02  0.39165765970E-03  0.34930378208E-01  0.34999994011E-01  0.00000000000E+00 0. -1.
       22    1    1    2    0    0  0.64628730764E-08 -0.63223599252E-08  0.29464005889E-08  0.95090609345E-08  0.00000000000E+00 0. -1.
</event>
<event>
 5   0  0.6221259E+05  0.9118800E+02  0.7546771E-02  0.1180000E+00
      -11   -1    0    0    0    0  0.00000000000E+00  0.00000000000E+00  0.34996269501E-01  0.35000000000E-01  0.51099999109E-03 0. -1.
       11   -1    0    0    0    0 -0.00000000000E+00 -0.00000000000E+00 -0.34996269501E-01  0.35000000000E-01  0.51099999109E-03 0.  1.
       22    1    1    2    0    0  0.25983335320E-08 -0.13271665514E-08  0.77840789741E-08  0.83129172782E-08  0.00000000000E+00 0.  1.
       22    1    1    2    0    0  0.14338067828E-02  0.13175969970E-01  0.32393479037E-01  0.34999992438E-01  0.00000000000E+00 0. -1.
       22    1    1    2    0    0 -0.14338093811E-02 -0.13175968643E-01 -0.32393486821E-01  0.34999999249E-01  0.00000000000E+00 0.  1.
</event>
<event>
 5   0  0.6221259E+05  0.9118800E+02  0.7546771E-02  0.1180000E+00
      -11   -1    0    0    0    0  0.00000000000E+00  0.00000000000E+00  0.34996269501E-01  0.35000000000E-01  0.51099999109E-03 0. -1.
       11   -1    0    0    0    0 -0.00000000000E+00 -0.00000000000E+00 -0.34996269501E-01  0.35000000000E-01  0.51099999109E-03 0.  1.
       22    1    1    2    0    0 -0.36251836820E-03 -0.16999468239E-02  0.34956617537E-01  0.34999804977E-01  0.00000000000E+00 0. -1.
       22    1    1    2    0    0  0.36251528798E-03  0.16999492461E-02 -0.34956812618E-01  0.34999999903E-01  0.00000000000E+00 0.  1.
       22    1    1    2    0    0  0.30802263233E-08 -0.24221721474E-08  0.19508128515E-06  0.19512063584E-06  0.00000000000E+00 0. -1.
</event>
<event>
 5   0  0.6221259E+05  0.9118800E+02  0.7546771E-02  0.1180000E+00
      -11   -1    0    0    0    0  0.00000000000E+00  0.00000000000E+00  0.34996269501E-01  0.35000000000E-01  0.51099999109E-03 0. -1.
       11   -1    0    0    0    0 -0.00000000000E+00 -0.00000000000E+00 -0.34996269501E-01  0.35000000000E-01  0.51099999109E-03 0. -1.
       22    1    1    2    0    0 -0.24376080238E-03 -0.78323541794E-03  0.34990372424E-01  0.34999986277E-01  0.00000000000E+00 0. -1.
       22    1    1    2    0    0  0.15202050416E-08  0.15099508624E-08  0.13663650457E-07  0.13830629732E-07  0.00000000000E+00 0.  1.
       22    1    1    2    0    0  0.24375928217E-03  0.78323390799E-03 -0.34990386087E-01  0.34999999892E-01  0.00000000000E+00 0. -1.
</event>
<event>
 5   0  0.6221259E+05  0.9118800E+02  0.7546771E-02  0.1180000E+00
      -11   -1    0    0    0    0  0.00000000000E+00  0.00000000000E+00  0.34996269501E-01  0.35000000000E-01  0.51099999109E-03 0. -1.
       11   -1    0    0    0    0 -0.00000000000E+00 -0.00000000000E+00 -0.34996269501E-01  0.35000000000E-01  0.51099999109E-03 0.  1.
       22    1    1    2    0    0  0.30257136546E-07 -0.15143739921E-07  0.61549617374E-07  0.70236618438E-07  0.00000000000E+00 0. -1.
       22    1    1    2    0    0  0.11759520322E-02  0.22713702157E-04 -0.34980226992E-01  0.34999995136E-01  0.00000000000E+00 0.  1.
       22    1    1    2    0    0 -0.11759822894E-02 -0.22698558417E-04  0.34980165442E-01  0.34999934628E-01  0.00000000000E+00 0. -1.
</event>
<event>
 5   0  0.6221259E+05  0.9118800E+02  0.7546771E-02  0.1180000E+00
      -11   -1    0    0    0    0  0.00000000000E+00  0.00000000000E+00  0.34996269501E-01  0.35000000000E-01  0.51099999109E-03 0. -1.
       11   -1    0    0    0    0 -0.00000000000E+00 -0.00000000000E+00 -0.34996269501E-01  0.35000000000E-01  0.51099999109E-03 0.  1.
       22    1    1    2    0    0  0.37257011226E-09 -0.47283601430E-09  0.58245657411E-08  0.58555912133E-08  0.00000000000E+00 0.  1.
       22    1    1    2    0    0 -0.26612638836E-02 -0.42784745767E-02 -0.34635420101E-01  0.34999999939E-01  0.00000000000E+00 0.  1.
       22    1    1    2    0    0  0.26612635110E-02  0.42784750496E-02  0.34635414277E-01  0.34999994205E-01  0.00000000000E+00 0. -1.
</event>
<event>
 5   0  0.6221259E+05  0.9118800E+02  0.7546771E-02  0.1180000E+00
      -11   -1    0    0    0    0  0.00000000000E+00  0.00000000000E+00  0.34996269501E-01  0.35000000000E-01  0.51099999109E-03 0. -1.
       11   -1    0    0    0    0 -0.00000000000E+00 -0.00000000000E+00 -0.34996269501E-01  0.35000000000E-01  0.51099999109E-03 0.  1.
       22    1    1    2    0    0 -0.12512908842E-06 -0.25507706871E-07  0.12769825045E-05  0.12833519582E-05  0.00000000000E+00 0. -1.
       22    1    1    2    0    0  0.27566348644E-02  0.14064839462E-01 -0.31930828623E-01  0.34999950877E-01  0.00000000000E+00 0.  1.
       22    1    1    2    0    0 -0.27565097353E-02 -0.14064813955E-01  0.31929551641E-01  0.34998765771E-01  0.00000000000E+00 0. -1.
</event>
<event>
 5   0  0.6221259E+05  0.9118800E+02  0.7546771E-02  0.1180000E+00
      -11   -1    0    0    0    0  0.00000000000E+00  0.00000000000E+00  0.34996269501E-01  0.35000000000E-01  0.51099999109E-03 0.  1.
       11   -1    0    0    0    0 -0.00000000000E+00 -0.00000000000E+00 -0.34996269501E-01  0.35000000000E-01  0.51099999109E-03 0.  1.
       22    1    1    2    0    0 -0.00000000000E+00  0.00000000000E+00  0.29100575444E-01  0.29098843894E-01  0.00000000000E+00 0.  1.
       22    1    1    2    0    0 -0.37447923764E-02  0.47621991943E-02  0.39942196851E-02  0.72564317678E-02  0.00000000000E+00 0. -1.
       22    1    1    2    0    0  0.37447923764E-02 -0.47621991943E-02 -0.33094795130E-01  0.33644724338E-01  0.00000000000E+00 0.  1.
</event>
<event>
 5   0  0.6221259E+05  0.9118800E+02  0.7546771E-02  0.1180000E+00
      -11   -1    0    0    0    0  0.00000000000E+00  0.00000000000E+00  0.34996269501E-01  0.35000000000E-01  0.51099999109E-03 0. -1.
       11   -1    0    0    0    0 -0.00000000000E+00 -0.00000000000E+00 -0.34996269501E-01  0.35000000000E-01  0.51099999109E-03 0.  1.
       22    1    1    2    0    0 -0.37318340098E-07  0.16341996879E-07  0.34416898933E-06  0.34657180004E-06  0.00000000000E+00 0.  1.
       22    1    1    2    0    0  0.11177083436E-02  0.20942034736E-01  0.28020703681E-01  0.34999684650E-01  0.00000000000E+00 0. -1.
       22    1    1    2    0    0 -0.11176710252E-02 -0.20942051078E-01 -0.28021047850E-01  0.34999968778E-01  0.00000000000E+00 0.  1.
</event>
<event>
 5   0  0.6221259E+05  0.9118800E+02  0.7546771E-02  0.1180000E+00
      -11   -1    0    0    0    0  0.00000000000E+00  0.00000000000E+00  0.34996269501E-01  0.35000000000E-01  0.51099999109E-03 0. -1.
       11   -1    0    0    0    0 -0.00000000000E+00 -0.00000000000E+00 -0.34996269501E-01  0.35000000000E-01  0.51099999109E-03 0. -1.
       22    1    1    2    0    0 -0.78780172161E-03 -0.25232241631E-04 -0.34991122988E-01  0.34999999374E-01  0.00000000000E+00 0. -1.
       22    1    1    2    0    0 -0.69768832492E-08 -0.19717146831E-07  0.21264816031E-06  0.21367424474E-06  0.00000000000E+00 0.  1.
       22    1    1    2    0    0  0.78780869849E-03  0.25251958778E-04  0.34990910340E-01  0.34999786951E-01  0.00000000000E+00 0. -1.
</event>
<event>
 5   0  0.6221259E+05  0.9118800E+02  0.7546771E-02  0.1180000E+00
      -11   -1    0    0    0    0  0.00000000000E+00  0.00000000000E+00  0.34996269501E-01  0.35000000000E-01  0.51099999109E-03 0. -1.
       11   -1    0    0    0    0 -0.00000000000E+00 -0.00000000000E+00 -0.34996269501E-01  0.35000000000E-01  0.51099999109E-03 0. -1.
       22    1    1    2    0    0 -0.14163691005E-03  0.92252022359E-04 -0.12562414205E-02  0.12675622101E-02  0.00000000000E+00 0. -1.
       22    1    1    2    0    0 -0.56956625262E-03  0.11532362492E-02  0.34967267554E-01  0.34990915389E-01  0.00000000000E+00 0. -1.
       22    1    1    2    0    0  0.71120316267E-03 -0.12454882716E-02 -0.33711026133E-01  0.33741522401E-01  0.00000000000E+00 0. -1.
</event>
<event>
 5   0  0.6221259E+05  0.9118800E+02  0.7546771E-02  0.1180000E+00
      -11   -1    0    0    0    0  0.00000000000E+00  0.00000000000E+00  0.34996269501E-01  0.35000000000E-01  0.51099999109E-03 0.  1.
       11   -1    0    0    0    0 -0.00000000000E+00 -0.00000000000E+00 -0.34996269501E-01  0.35000000000E-01  0.51099999109E-03 0.  1.
       22    1    1    2    0    0 -0.15527423758E-09 -0.51252651320E-10 -0.35003489545E-01  0.34999946639E-01  0.00000000000E+00 0.  1.
       22    1    1    2    0    0  0.14938826851E-05  0.49309820848E-06  0.34992071586E-01  0.34988527559E-01  0.00000000000E+00 0.  1.
       22    1    1    2    0    0 -0.14937274109E-05 -0.49304695583E-06  0.11417959413E-04  0.11525802100E-04  0.00000000000E+00 0. -1.
</event>
<event>
 5   0  0.6221259E+05  0.9118800E+02  0.7546771E-02  0.1180000E+00
      -11   -1    0    0    0    0  0.00000000000E+00  0.00000000000E+00  0.34996269501E-01  0.35000000000E-01  0.51099999109E-03 0.  1.
       11   -1    0    0    0    0 -0.00000000000E+00 -0.00000000000E+00 -0.34996269501E-01  0.35000000000E-01  0.51099999109E-03 0. -1.
       22    1    1    2    0    0 -0.68722370834E-02  0.86672717230E-02 -0.33154309128E-01  0.34950786191E-01  0.00000000000E+00 0. -1.
       22    1    1    2    0    0  0.69603193709E-02 -0.84000620691E-02  0.30735129160E-01  0.32613727984E-01  0.00000000000E+00 0.  1.
       22    1    1    2    0    0 -0.88082287529E-04 -0.26720965388E-03  0.24191799677E-02  0.24354858252E-02  0.00000000000E+00 0.  1.
</event>
<event>
 5   0  0.6221259E+05  0.9118800E+02  0.7546771E-02  0.1180000E+00
      -11   -1    0    0    0    0  0.00000000000E+00  0.00000000000E+00  0.34996269501E-01  0.35000000000E-01  0.51099999109E-03 0.  1.
       11   -1    0    0    0    0 -0.00000000000E+00 -0.00000000000E+00 -0.34996269501E-01  0.35000000000E-01  0.51099999109E-03 0. -1.
       22    1    1    2    0    0 -0.28988946963E-02 -0.31914724865E-02 -0.34733406617E-01  0.34999980319E-01  0.00000000000E+00 0. -1.
       22    1    1    2    0    0  0.28988114434E-02  0.31913293876E-02  0.34733198043E-01  0.34999753390E-01  0.00000000000E+00 0.  1.
       22    1    1    2    0    0  0.83252813892E-07  0.14309890808E-06  0.20857376344E-06  0.26629183861E-06  0.00000000000E+00 0.  1.
</event>
<event>
 5   0  0.6221259E+05  0.9118800E+02  0.7546771E-02  0.1180000E+00
      -11   -1    0    0    0    0  0.00000000000E+00  0.00000000000E+00  0.34996269501E-01  0.35000000000E-01  0.51099999109E-03 0.  1.
       11   -1    0    0    0    0 -0.00000000000E+00 -0.00000000000E+00 -0.34996269501E-01  0.35000000000E-01  0.51099999109E-03 0.  1.
       22    1    1    2    0    0  0.39200778918E-04  0.70653608005E-03 -0.34992358569E-01  0.34999512684E-01  0.00000000000E+00 0.  1.
       22    1    1    2    0    0  0.69656171311E-05 -0.70611774092E-03  0.33376877236E-01  0.33384346404E-01  0.00000000000E+00 0.  1.
       22    1    1    2    0    0 -0.46166396049E-04 -0.41833913108E-06  0.16154813325E-02  0.16161409118E-02  0.00000000000E+00 0. -1.
</event>
<event>
 5   0  0.6221259E+05  0.9118800E+02  0.7546771E-02  0.1180000E+00
      -11   -1    0    0    0    0  0.00000000000E+00  0.00000000000E+00  0.34996269501E-01  0.35000000000E-01  0.51099999109E-03 0. -1.
       11   -1    0    0    0    0 -0.00000000000E+00 -0.00000000000E+00 -0.34996269501E-01  0.35000000000E-01  0.51099999109E-03 0.  1.
       22    1    1    2    0    0  0.76638728153E-04 -0.43877928112E-03  0.34997154174E-01  0.34999988586E-01  0.00000000000E+00 0. -1.
       22    1    1    2    0    0 -0.76638356762E-04  0.43878134994E-03 -0.34997165479E-01  0.34999999915E-01  0.00000000000E+00 0.  1.
       22    1    1    2    0    0 -0.37139146762E-09 -0.20688252872E-08  0.11305256853E-07  0.11498991356E-07  0.00000000000E+00 0. -1.
</event>
<event>
 5   0  0.6221259E+05  0.9118800E+02  0.7546771E-02  0.1180000E+00
      -11   -1    0    0    0    0  0.00000000000E+00  0.00000000000E+00  0.34996269501E-01  0.35000000000E-01  0.51099999109E-03 0.  1.
       11   -1    0    0    0    0 -0.00000000000E+00 -0.00000000000E+00 -0.34996269501E-01  0.35000000000E-01  0.51099999109E-03 0. -1.
       22    1    1    2    0    0 -0.29536088827E-01 -0.88121629181E-02  0.16579065152E-01  0.34998573683E-01  0.00000000000E+00 0.  1.
       22    1    1    2    0    0 -0.32501092812E-07  0.66334966080E-07  0.19274204855E-05  0.19288354975E-05  0.00000000000E+00 0. -1.
       22    1    1    2    0    0  0.29536121328E-01  0.88120965831E-02 -0.16580992572E-01  0.34999497482E-01  0.00000000000E+00 0. -1.
</event>
<event>
 5   0  0.6221259E+05  0.9118800E+02  0.7546771E-02  0.1180000E+00
      -11   -1    0    0    0    0  0.00000000000E+00  0.00000000000E+00  0.34996269501E-01  0.35000000000E-01  0.51099999109E-03 0. -1.
       11   -1    0    0    0    0 -0.00000000000E+00 -0.00000000000E+00 -0.34996269501E-01  0.35000000000E-01  0.51099999109E-03 0.  1.
       22    1    1    2    0    0 -0.60524143791E-06  0.12448811484E-05  0.39952702425E-04  0.39976674166E-04  0.00000000000E+00 0.  1.
       22    1    1    2    0    0 -0.55005492924E-02  0.38594698249E-02  0.34308459693E-01  0.34960291136E-01  0.00000000000E+00 0. -1.
       22    1    1    2    0    0  0.55011545339E-02 -0.38607147060E-02 -0.34348412395E-01  0.34999732189E-01  0.00000000000E+00 0.  1.
</event>
<event>
 5   0  0.6221259E+05  0.9118800E+02  0.7546771E-02  0.1180000E+00
      -11   -1    0    0    0    0  0.00000000000E+00  0.00000000000E+00  0.34996269501E-01  0.35000000000E-01  0.51099999109E-03 0. -1.
       11   -1    0    0    0    0 -0.00000000000E+00 -0.00000000000E+00 -0.34996269501E-01  0.35000000000E-01  0.51099999109E-03 0.  1.
       22    1    1    2    0    0 -0.25307247199E-01  0.37068758522E-02 -0.23891213603E-01  0.34999825383E-01  0.00000000000E+00 0.  1.
       22    1    1    2    0    0 -0.18311732519E-06 -0.30809622437E-07 -0.43147624303E-07  0.19063815227E-06  0.00000000000E+00 0.  1.
       22    1    1    2    0    0  0.25307430316E-01 -0.37068450426E-02  0.23891256751E-01  0.34999983979E-01  0.00000000000E+00 0. -1.
</event>
<event>
 5   0  0.6221259E+05  0.9118800E+02  0.7546771E-02  0.1180000E+00
      -11   -1    0    0    0    0  0.00000000000E+00  0.00000000000E+00  0.34996269501E-01  0.35000000000E-01  0.51099999109E-03 0.  1.
       11   -1    0    0    0    0 -0.00000000000E+00 -0.00000000000E+00 -0.34996269501E-01  0.35000000000E-01  0.51099999109E-03 0.  1.
       22    1    1    2    0    0  0.11515937429E-04 -0.14146772573E-04  0.34999937971E-01  0.34999942725E-01  0.00000000000E+00 0.  1.
       22    1    1    2    0    0 -0.11502813883E-04  0.14200699795E-04 -0.34999981790E-01  0.34999986561E-01  0.00000000000E+00 0.  1.
       22    1    1    2    0    0 -0.13123545450E-07 -0.53927221944E-07  0.43818907850E-07  0.70713997179E-07  0.00000000000E+00 0.  1.
</event>
<event>
 5   0  0.6221259E+05  0.9118800E+02  0.7546771E-02  0.1180000E+00
      -11   -1    0    0    0    0  0.00000000000E+00  0.00000000000E+00  0.34996269501E-01  0.35000000000E-01  0.51099999109E-03 0. -1.
       11   -1    0    0    0    0 -0.00000000000E+00 -0.00000000000E+00 -0.34996269501E-01  0.35000000000E-01  0.51099999109E-03 0.  1.
       22    1    1    2    0    0 -0.54126899818E-02  0.65493843238E-02  0.33829260198E-01  0.34879943999E-01  0.00000000000E+00 0. -1.
       22    1    1    2    0    0  0.52390367267E-02 -0.65162556560E-02 -0.33910080063E-01  0.34925672842E-01  0.00000000000E+00 0.  1.
       22    1    1    2    0    0  0.17365325511E-03 -0.33128667734E-04  0.80819865724E-04  0.19438315856E-03  0.00000000000E+00 0. -1.
</event>
<event>
 5   0  0.6221259E+05  0.9118800E+02  0.7546771E-02  0.1180000E+00
      -11   -1    0    0    0    0  0.00000000000E+00  0.00000000000E+00  0.34996269501E-01  0.35000000000E-01  0.51099999109E-03 0. -1.
       11   -1    0    0    0    0 -0.00000000000E+00 -0.00000000000E+00 -0.34996269501E-01  0.35000000000E-01  0.51099999109E-03 0. -1.
       22    1    1    2    0    0 -0.27957658643E-03 -0.43186189332E-03  0.34996200682E-01  0.34999981856E-01  0.00000000000E+00 0. -1.
       22    1    1    2    0    0  0.27957658073E-03  0.43184510996E-03 -0.34996215071E-01  0.34999996037E-01  0.00000000000E+00 0. -1.
       22    1    1    2    0    0  0.57001207120E-11  0.16783365053E-07  0.14389185857E-07  0.22107239643E-07  0.00000000000E+00 0. -1.
</event>
<event>
 5   0  0.6221259E+05  0.9118800E+02  0.7546771E-02  0.1180000E+00
      -11   -1    0    0    0    0  0.00000000000E+00  0.00000000000E+00  0.34996269501E-01  0.35000000000E-01  0.51099999109E-03 0.  1.
       11   -1    0    0    0    0 -0.00000000000E+00 -0.00000000000E+00 -0.34996269501E-01  0.35000000000E-01  0.51099999109E-03 0. -1.
       22    1    1    2    0    0 -0.11976574244E-02  0.13069286372E-02  0.34950251853E-01  0.34995178958E-01  0.00000000000E+00 0.  1.
       22    1    1    2    0    0  0.46849433404E-06 -0.70909921891E-06  0.48081093081E-05  0.48826451604E-05  0.00000000000E+00 0.  1.
       22    1    1    2    0    0  0.11971889300E-02 -0.13062195380E-02 -0.34955059962E-01  0.34999938396E-01  0.00000000000E+00 0. -1.
</event>
<event>
 5   0  0.6221259E+05  0.9118800E+02  0.7546771E-02  0.1180000E+00
      -11   -1    0    0    0    0  0.00000000000E+00  0.00000000000E+00  0.34996269501E-01  0.35000000000E-01  0.51099999109E-03 0. -1.
       11   -1    0    0    0    0 -0.00000000000E+00 -0.00000000000E+00 -0.34996269501E-01  0.35000000000E-01  0.51099999109E-03 0. -1.
       22    1    1    2    0    0 -0.22334813851E-03  0.36623153509E-04 -0.34978408078E-01  0.34979140317E-01  0.00000000000E+00 0. -1.
       22    1    1    2    0    0  0.29646028024E-03  0.59607848877E-04  0.34821458175E-01  0.34822771160E-01  0.00000000000E+00 0. -1.
       22    1    1    2    0    0 -0.73112141723E-04 -0.96231002387E-04  0.15694990277E-03  0.19808852331E-03  0.00000000000E+00 0.  1.
</event>
<event>
 5   0  0.6221259E+05  0.9118800E+02  0.7546771E-02  0.1180000E+00
      -11   -1    0    0    0    0  0.00000000000E+00  0.00000000000E+00  0.34996269501E-01  0.35000000000E-01  0.51099999109E-03 0.  1.
       11   -1    0    0    0    0 -0.00000000000E+00 -0.00000000000E+00 -0.34996269501E-01  0.35000000000E-01  0.51099999109E-03 0. -1.
       22    1    1    2    0    0  0.82158709904E-02  0.18441826726E-01  0.28589441084E-01  0.34999395004E-01  0.00000000000E+00 0.  1.
       22    1    1    2    0    0 -0.58839413561E-07  0.31063838494E-06  0.53599473572E-06  0.62229304954E-06  0.00000000000E+00 0. -1.
       22    1    1    2    0    0 -0.82158121510E-02 -0.18442137365E-01 -0.28589977079E-01  0.34999982703E-01  0.00000000000E+00 0. -1.
</event>
<event>
 5   0  0.6221259E+05  0.9118800E+02  0.7546771E-02  0.1180000E+00
      -11   -1    0    0    0    0  0.00000000000E+00  0.00000000000E+00  0.34996269501E-01  0.35000000000E-01  0.51099999109E-03 0.  1.
       11   -1    0    0    0    0 -0.00000000000E+00 -0.00000000000E+00 -0.34996269501E-01  0.35000000000E-01  0.51099999109E-03 0. -1.
       22    1    1    2    0    0 -0.10932560998E-01 -0.76922261774E-03  0.33158319563E-01  0.34922582230E-01  0.00000000000E+00 0.  1.
       22    1    1    2    0    0  0.90666795739E-02  0.85879852674E-03 -0.22793131286E-01  0.24545244900E-01  0.00000000000E+00 0. -1.
       22    1    1    2    0    0  0.18658814245E-02 -0.89575908992E-04 -0.10365188277E-01  0.10532172870E-01  0.00000000000E+00 0. -1.
</event>
<event>
 5   0  0.6221259E+05  0.9118800E+02  0.7546771E-02  0.1180000E+00
      -11   -1    0    0    0    0  0.00000000000E+00  0.00000000000E+00  0.34996269501E-01  0.35000000000E-01  0.51099999109E-03 0. -1.
       11   -1    0    0    0    0 -0.00000000000E+00 -0.00000000000E+00 -0.34996269501E-01  0.35000000000E-01  0.51099999109E-03 0.  1.
       22    1    1    2    0    0  0.20338618666E-01 -0.28350848159E-01 -0.75939824559E-03  0.34899952525E-01  0.00000000000E+00 0.  1.
       22    1    1    2    0    0 -0.20306012107E-01  0.28352765820E-01  0.54020680090E-03  0.34878435755E-01  0.00000000000E+00 0. -1.
       22    1    1    2    0    0 -0.32606559113E-04 -0.19176605569E-05  0.21919144470E-03  0.22161172024E-03  0.00000000000E+00 0.  1.
</event>
<event>
 5   0  0.6221259E+05  0.9118800E+02  0.7546771E-02  0.1180000E+00
      -11   -1    0    0    0    0  0.00000000000E+00  0.00000000000E+00  0.34996269501E-01  0.35000000000E-01  0.51099999109E-03 0. -1.
       11   -1    0    0    0    0 -0.00000000000E+00 -0.00000000000E+00 -0.34996269501E-01  0.35000000000E-01  0.51099999109E-03 0.  1.
       22    1    1    2    0    0  0.58296870117E-06  0.36874760076E-06  0.61036881118E-05  0.61425431106E-05  0.00000000000E+00 0. -1.
       22    1    1    2    0    0  0.31418192720E-01  0.11851730245E-01 -0.98618540759E-02  0.34997464328E-01  0.00000000000E+00 0.  1.
       22    1    1    2    0    0 -0.31418775689E-01 -0.11852098993E-01  0.98557503877E-02  0.34996393129E-01  0.00000000000E+00 0. -1.
</event>
<event>
 5   0  0.6221259E+05  0.9118800E+02  0.7546771E-02  0.1180000E+00
      -11   -1    0    0    0    0  0.00000000000E+00  0.00000000000E+00  0.34996269501E-01  0.35000000000E-01  0.51099999109E-03 0.  1.
       11   -1    0    0    0    0 -0.00000000000E+00 -0.00000000000E+00 -0.34996269501E-01  0.35000000000E-01  0.51099999109E-03 0. -1.
       22    1    1    2    0    0  0.26383057388E-02 -0.17803399154E-02  0.34848914721E-01  0.34993958401E-01  0.00000000000E+00 0.  1.
       22    1    1    2    0    0 -0.26445199443E-02  0.17792439076E-02 -0.34853054779E-01  0.34998494568E-01  0.00000000000E+00 0. -1.
       22    1    1    2    0    0  0.62142055121E-05  0.10960078828E-05  0.41400584073E-05  0.75470303459E-05  0.00000000000E+00 0. -1.
</event>
<event>
 5   0  0.6221259E+05  0.9118800E+02  0.7546771E-02  0.1180000E+00
      -11   -1    0    0    0    0  0.00000000000E+00  0.00000000000E+00  0.34996269501E-01  0.35000000000E-01  0.51099999109E-03 0.  1.
       11   -1    0    0    0    0 -0.00000000000E+00 -0.00000000000E+00 -0.34996269501E-01  0.35000000000E-01  0.51099999109E-03 0. -1.
       22    1    1    2    0    0  0.39573861731E-02 -0.12851362532E-02  0.34751624222E-01  0.34999826665E-01  0.00000000000E+00 0.  1.
       22    1    1    2    0    0  0.55088488973E-08 -0.10243397515E-07  0.17325473177E-06  0.17364468518E-06  0.00000000000E+00 0. -1.
       22    1    1    2    0    0 -0.39573916820E-02  0.12851464966E-02 -0.34751797477E-01  0.34999999690E-01  0.00000000000E+00 0. -1.
</event>
<event>
 5   0  0.6221259E+05  0.9118800E+02  0.7546771E-02  0.1180000E+00
      -11   -1    0    0    0    0  0.00000000000E+00  0.00000000000E+00  0.34996269501E-01  0.35000000000E-01  0.51099999109E-03 0. -1.
       11   -1    0    0    0    0 -0.00000000000E+00 -0.00000000000E+00 -0.34996269501E-01  0.35000000000E-01  0.51099999109E-03 0.  1.
       22    1    1    2    0    0  0.63898594109E-03 -0.89723461434E-03  0.30950403580E-01  0.30969998623E-01  0.00000000000E+00 0. -1.
       22    1    1    2    0    0  0.24862802012E-03  0.38602893926E-03  0.40192281986E-02  0.40453713731E-02  0.00000000000E+00 0. -1.
       22    1    1    2    0    0 -0.88761396122E-03  0.51120567508E-03 -0.34969631778E-01  0.34984630004E-01  0.00000000000E+00 0.  1.
</event>
<event>
 5   0  0.6221259E+05  0.9118800E+02  0.7546771E-02  0.1180000E+00
      -11   -1    0    0    0    0  0.00000000000E+00  0.00000000000E+00  0.34996269501E-01  0.35000000000E-01  0.51099999109E-03 0. -1.
       11   -1    0    0    0    0 -0.00000000000E+00 -0.00000000000E+00 -0.34996269501E-01  0.35000000000E-01  0.51099999109E-03 0.  1.
       22    1    1    2    0    0  0.17894477519E-02  0.13399489292E-01 -0.32262407289E-01  0.34980156669E-01  0.00000000000E+00 0.  1.
       22    1    1    2    0    0  0.24474548101E-04  0.45738111608E-04  0.16372289628E-03  0.17174447625E-03  0.00000000000E+00 0.  1.
       22    1    1    2    0    0 -0.18139223000E-02 -0.13445227403E-01  0.32098684393E-01  0.34848098854E-01  0.00000000000E+00 0. -1.
</event>
<event>
 5   0  0.6221259E+05  0.9118800E+02  0.7546771E-02  0.1180000E+00
      -11   -1    0    0    0    0  0.00000000000E+00  0.00000000000E+00  0.34996269501E-01  0.35000000000E-01  0.51099999109E-03 0. -1.
       11   -1    0    0    0    0 -0.00000000000E+00 -0.00000000000E+00 -0.34996269501E-01  0.35000000000E-01  0.51099999109E-03 0.  1.
       22    1    1    2    0    0  0.10040922735E-03  0.28944489225E-03 -0.26693686100E-02  0.26868920958E-02  0.00000000000E+00 0. -1.
       22    1    1    2    0    0 -0.37304191776E-02  0.73848350477E-02 -0.31260738975E-01  0.32337062594E-01  0.00000000000E+00 0.  1.
       22    1    1    2    0    0  0.36300099502E-02 -0.76742799399E-02  0.33930107585E-01  0.34976045311E-01  0.00000000000E+00 0. -1.
</event>
<event>
 5   0  0.6221259E+05  0.9118800E+02  0.7546771E-02  0.1180000E+00
      -11   -1    0    0    0    0  0.00000000000E+00  0.00000000000E+00  0.34996269501E-01  0.35000000000E-01  0.51099999109E-03 0.  1.
       11   -1    0    0    0    0 -0.00000000000E+00 -0.00000000000E+00 -0.34996269501E-01  0.35000000000E-01  0.51099999109E-03 0. -1.
       22    1    1    2    0    0  0.10278768044E-01  0.60175487970E-02  0.32910839236E-01  0.34999818646E-01  0.00000000000E+00 0.  1.
       22    1    1    2    0    0 -0.10278715720E-01 -0.60175910936E-02 -0.32911024230E-01  0.34999984504E-01  0.00000000000E+00 0. -1.
       22    1    1    2    0    0 -0.52324271797E-07  0.42296626770E-07  0.18499388199E-06  0.19684910573E-06  0.00000000000E+00 0.  1.
</event>
<event>
 5   0  0.6221259E+05  0.9118800E+02  0.7546771E-02  0.1180000E+00
      -11   -1    0    0    0    0  0.00000000000E+00  0.00000000000E+00  0.34996269501E-01  0.35000000000E-01  0.51099999109E-03 0. -1.
       11   -1    0    0    0    0 -0.00000000000E+00 -0.00000000000E+00 -0.34996269501E-01  0.35000000000E-01  0.51099999109E-03 0. -1.
       22    1    1    2    0    0 -0.85283370364E-11  0.34884398591E-11 -0.35002651231E-01  0.34999992650E-01  0.00000000000E+00 0. -1.
       22    1    1    2    0    0  0.93435769769E-07 -0.38219064530E-07  0.35002312636E-01  0.34999654029E-01  0.00000000000E+00 0. -1.
       22    1    1    2    0    0 -0.93427241432E-07  0.38215576090E-07  0.33859548225E-06  0.35332135556E-06  0.00000000000E+00 0.  1.
</event>
<event>
 5   0  0.6221259E+05  0.9118800E+02  0.7546771E-02  0.1180000E+00
      -11   -1    0    0    0    0  0.00000000000E+00  0.00000000000E+00  0.34996269501E-01  0.35000000000E-01  0.51099999109E-03 0. -1.
       11   -1    0    0    0    0 -0.00000000000E+00 -0.00000000000E+00 -0.34996269501E-01  0.35000000000E-01  0.51099999109E-03 0.  1.
       22    1    1    2    0    0  0.11089106628E-02  0.10411946202E-02  0.34962973291E-01  0.34996046497E-01  0.00000000000E+00 0. -1.
       22    1    1    2    0    0 -0.55734147383E-06  0.36789105691E-06  0.39305499734E-05  0.39868780319E-05  0.00000000000E+00 0.  1.
       22    1    1    2    0    0 -0.11083533213E-02 -0.10415625113E-02 -0.34966903841E-01  0.34999966625E-01  0.00000000000E+00 0.  1.
</event>
<event>
 5   0  0.6221259E+05  0.9118800E+02  0.7546771E-02  0.1180000E+00
      -11   -1    0    0    0    0  0.00000000000E+00  0.00000000000E+00  0.34996269501E-01  0.35000000000E-01  0.51099999109E-03 0.  1.
       11   -1    0    0    0    0 -0.00000000000E+00 -0.00000000000E+00 -0.34996269501E-01  0.35000000000E-01  0.51099999109E-03 0. -1.
       22    1    1    2    0    0  0.27863017413E-01 -0.18909621465E-01 -0.93162003429E-02  0.34938705072E-01  0.00000000000E+00 0. -1.
       22    1    1    2    0    0 -0.50684148820E-04  0.26885339449E-03 -0.82456979765E-04  0.28574496353E-03  0.00000000000E+00 0. -1.
       22    1    1    2    0    0 -0.27812333264E-01  0.18640768070E-01  0.93986573227E-02  0.34775549964E-01  0.00000000000E+00 0.  1.
</event>
<event>
 5   0  0.6221259E+05  0.9118800E+02  0.7546771E-02  0.1180000E+00
      -11   -1    0    0    0    0  0.00000000000E+00  0.00000000000E+00  0.34996269501E-01  0.35000000000E-01  0.51099999109E-03 0.  1.
       11   -1    0    0    0    0 -0.00000000000E+00 -0.00000000000E+00 -0.34996269501E-01  0.35000000000E-01  0.51099999109E-03 0. -1.
       22    1    1    2    0    0  0.34865466570E-02 -0.58795843077E-02 -0.34147231575E-01  0.34824688706E-01  0.00000000000E+00 0. -1.
       22    1    1    2    0    0 -0.74691291829E-04  0.42927375934E-03  0.79984973994E-05  0.43579665613E-03  0.00000000000E+00 0.  1.
       22    1    1    2    0    0 -0.34118553651E-02  0.54503105483E-02  0.34139233078E-01  0.34739514638E-01  0.00000000000E+00 0.  1.
</event>
<event>
 5   0  0.6221259E+05  0.9118800E+02  0.7546771E-02  0.1180000E+00
      -11   -1    0    0    0    0  0.00000000000E+00  0.00000000000E+00  0.34996269501E-01  0.35000000000E-01  0.51099999109E-03 0. -1.
       11   -1    0    0    0    0 -0.00000000000E+00 -0.00000000000E+00 -0.34996269501E-01  0.35000000000E-01  0.51099999109E-03 0.  1.
       22    1    1    2    0    0 -0.10094288210E-07 -0.17241424059E-07  0.11130430631E-06  0.11308319929E-06  0.00000000000E+00 0. -1.
       22    1    1    2    0    0  0.11435391676E-02 -0.36823118995E-03  0.34979263541E-01  0.34999887913E-01  0.00000000000E+00 0. -1.
       22    1    1    2    0    0 -0.11435290733E-02  0.36824843137E-03 -0.34979374846E-01  0.34999999004E-01  0.00000000000E+00 0.  1.
</event>
<event>
 5   0  0.6221259E+05  0.9118800E+02  0.7546771E-02  0.1180000E+00
      -11   -1    0    0    0    0  0.00000000000E+00  0.00000000000E+00  0.34996269501E-01  0.35000000000E-01  0.51099999109E-03 0. -1.
       11   -1    0    0    0    0 -0.00000000000E+00 -0.00000000000E+00 -0.34996269501E-01  0.35000000000E-01  0.51099999109E-03 0. -1.
       22    1    1    2    0    0 -0.53805008072E-07 -0.12931069330E-06  0.34993283396E-01  0.34989586132E-01  0.00000000000E+00 0. -1.
       22    1    1    2    0    0  0.57101544607E-11  0.13723332802E-10 -0.35003696244E-01  0.35000000079E-01  0.00000000000E+00 0. -1.
       22    1    1    2    0    0  0.53799297918E-07  0.12929696997E-06  0.10412847620E-04  0.10413789302E-04  0.00000000000E+00 0.  1.
</event>
<event>
 5   0  0.6221259E+05  0.9118800E+02  0.7546771E-02  0.1180000E+00
      -11   -1    0    0    0    0  0.00000000000E+00  0.00000000000E+00  0.34996269501E-01  0.35000000000E-01  0.51099999109E-03 0.  1.
       11   -1    0    0    0    0 -0.00000000000E+00 -0.00000000000E+00 -0.34996269501E-01  0.35000000000E-01  0.51099999109E-03 0. -1.
       22    1    1    2    0    0 -0.29848232758E-01 -0.11234602193E-01 -0.14320772405E-01  0.34960231799E-01  0.00000000000E+00 0. -1.
       22    1    1    2    0    0  0.29848844515E-01  0.11233166510E-01  0.14377110651E-01  0.34983408345E-01  0.00000000000E+00 0.  1.
       22    1    1    2    0    0 -0.61175785960E-06  0.14356832951E-05 -0.56338246015E-04  0.56359856265E-04  0.00000000000E+00 0.  1.
</event>
<event>
 5   0  0.6221259E+05  0.9118800E+02  0.7546771E-02  0.1180000E+00
      -11   -1    0    0    0    0  0.00000000000E+00  0.00000000000E+00  0.34996269501E-01  0.35000000000E-01  0.51099999109E-03 0. -1.
       11   -1    0    0    0    0 -0.00000000000E+00 -0.00000000000E+00 -0.34996269501E-01  0.35000000000E-01  0.51099999109E-03 0.  1.
       22    1    1    2    0    0 -0.10592595635E-01 -0.14287446048E-01  0.30073626877E-01  0.34939336433E-01  0.00000000000E+00 0. -1.
       22    1    1    2    0    0 -0.73613225710E-04  0.23225579892E-03 -0.11864801333E-02  0.12112377016E-02  0.00000000000E+00 0. -1.
       22    1    1    2    0    0  0.10666208860E-01  0.14055190249E-01 -0.28887146744E-01  0.33849425865E-01  0.00000000000E+00 0.  1.
</event>
<event>
 5   0  0.6221259E+05  0.9118800E+02  0.7546771E-02  0.1180000E+00
      -11   -1    0    0    0    0  0.00000000000E+00  0.00000000000E+00  0.34996269501E-01  0.35000000000E-01  0.51099999109E-03 0. -1.
       11   -1    0    0    0    0 -0.00000000000E+00 -0.00000000000E+00 -0.34996269501E-01  0.35000000000E-01  0.51099999109E-03 0.  1.
       22    1    1    2    0    0 -0.84993617108E-02  0.17103983580E-01 -0.29329339747E-01  0.34999936768E-01  0.00000000000E+00 0.  1.
       22    1    1    2    0    0  0.14093065431E-06 -0.52270848216E-07 -0.37395251214E-07  0.15489382076E-06  0.00000000000E+00 0.  1.
       22    1    1    2    0    0  0.84992207801E-02 -0.17103931310E-01  0.29329377142E-01  0.34999908338E-01  0.00000000000E+00 0. -1.
</event>
<event>
 5   0  0.6221259E+05  0.9118800E+02  0.7546771E-02  0.1180000E+00
      -11   -1    0    0    0    0  0.00000000000E+00  0.00000000000E+00  0.34996269501E-01  0.35000000000E-01  0.51099999109E-03 0.  1.
       11   -1    0    0    0    0 -0.00000000000E+00 -0.00000000000E+00 -0.34996269501E-01  0.35000000000E-01  0.51099999109E-03 0.  1.
       22    1    1    2    0    0  0.13456574109E-07 -0.14430917463E-07  0.25032076381E-07  0.31873744893E-07  0.00000000000E+00 0. -1.
       22    1    1    2    0    0 -0.13457464632E-07  0.14431872466E-07  0.35000872983E-01  0.34999971547E-01  0.00000000000E+00 0.  1.
       22    1    1    2    0    0  0.89052324981E-12 -0.95500291628E-12 -0.35000898015E-01  0.34999996579E-01  0.00000000000E+00 0.  1.
</event>
<event>
 5   0  0.6221259E+05  0.9118800E+02  0.7546771E-02  0.1180000E+00
      -11   -1    0    0    0    0  0.00000000000E+00  0.00000000000E+00  0.34996269501E-01  0.35000000000E-01  0.51099999109E-03 0.  1.
       11   -1    0    0    0    0 -0.00000000000E+00 -0.00000000000E+00 -0.34996269501E-01  0.35000000000E-01  0.51099999109E-03 0. -1.
       22    1    1    2    0    0 -0.13108916043E-01 -0.71449968884E-02  0.31656044428E-01  0.34999997274E-01  0.00000000000E+00 0.  1.
       22    1    1    2    0    0  0.13108915835E-01  0.71449965765E-02 -0.31656047352E-01  0.34999999777E-01  0.00000000000E+00 0. -1.
       22    1    1    2    0    0  0.20824114282E-09  0.31193163962E-09  0.29242650506E-08  0.29482184125E-08  0.00000000000E+00 0. -1.
</event>
<event>
 5   0  0.6221259E+05  0.9118800E+02  0.7546771E-02  0.1180000E+00
      -11   -1    0    0    0    0  0.00000000000E+00  0.00000000000E+00  0.34996269501E-01  0.35000000000E-01  0.51099999109E-03 0. -1.
       11   -1    0    0    0    0 -0.00000000000E+00 -0.00000000000E+00 -0.34996269501E-01  0.35000000000E-01  0.51099999109E-03 0.  1.
       22    1    1    2    0    0 -0.16033389848E-03 -0.12438740145E-02  0.34977520174E-01  0.34999997815E-01  0.00000000000E+00 0. -1.
       22    1    1    2    0    0  0.16033253374E-03  0.12438743569E-02 -0.34977522130E-01  0.34999999776E-01  0.00000000000E+00 0.  1.
       22    1    1    2    0    0  0.13647452135E-08 -0.34232533589E-09  0.19554345982E-08  0.24090331258E-08  0.00000000000E+00 0.  1.
</event>
<event>
 5   0  0.6221259E+05  0.9118800E+02  0.7546771E-02  0.1180000E+00
      -11   -1    0    0    0    0  0.00000000000E+00  0.00000000000E+00  0.34996269501E-01  0.35000000000E-01  0.51099999109E-03 0. -1.
       11   -1    0    0    0    0 -0.00000000000E+00 -0.00000000000E+00 -0.34996269501E-01  0.35000000000E-01  0.51099999109E-03 0.  1.
       22    1    1    2    0    0 -0.14431789483E-02 -0.70665621129E-03 -0.34961866347E-01  0.34998774650E-01  0.00000000000E+00 0.  1.
       22    1    1    2    0    0  0.29007509563E-05 -0.44117701871E-06  0.40044689400E-06  0.29613089989E-05  0.00000000000E+00 0.  1.
       22    1    1    2    0    0  0.14402781973E-02  0.70709738831E-03  0.34961465901E-01  0.34998264041E-01  0.00000000000E+00 0. -1.
</event>
<event>
 5   0  0.6221259E+05  0.9118800E+02  0.7546771E-02  0.1180000E+00
      -11   -1    0    0    0    0  0.00000000000E+00  0.00000000000E+00  0.34996269501E-01  0.35000000000E-01  0.51099999109E-03 0. -1.
       11   -1    0    0    0    0 -0.00000000000E+00 -0.00000000000E+00 -0.34996269501E-01  0.35000000000E-01  0.51099999109E-03 0.  1.
       22    1    1    2    0    0  0.16441943622E-04  0.11535274963E-05  0.46112316405E-03  0.46141764223E-03  0.00000000000E+00 0. -1.
       22    1    1    2    0    0  0.65016042954E-03 -0.11442581170E-02 -0.34974797485E-01  0.34999549917E-01  0.00000000000E+00 0.  1.
       22    1    1    2    0    0 -0.66660237316E-03  0.11431045895E-02  0.34513674321E-01  0.34539032441E-01  0.00000000000E+00 0. -1.
</event>
<event>
 5   0  0.6221259E+05  0.9118800E+02  0.7546771E-02  0.1180000E+00
      -11   -1    0    0    0    0  0.00000000000E+00  0.00000000000E+00  0.34996269501E-01  0.35000000000E-01  0.51099999109E-03 0.  1.
       11   -1    0    0    0    0 -0.00000000000E+00 -0.00000000000E+00 -0.34996269501E-01  0.35000000000E-01  0.51099999109E-03 0. -1.
       22    1    1    2    0    0  0.14602457121E-02  0.34156030081E-02 -0.34802310518E-01  0.34999992555E-01  0.00000000000E+00 0. -1.
       22    1    1    2    0    0  0.39018625296E-07 -0.35466775736E-08  0.50961987696E-07  0.64281849940E-07  0.00000000000E+00 0. -1.
       22    1    1    2    0    0 -0.14602847307E-02 -0.34155994615E-02  0.34802259556E-01  0.34999943163E-01  0.00000000000E+00 0.  1.
</event>
<event>
 5   0  0.6221259E+05  0.9118800E+02  0.7546771E-02  0.1180000E+00
      -11   -1    0    0    0    0  0.00000000000E+00  0.00000000000E+00  0.34996269501E-01  0.35000000000E-01  0.51099999109E-03 0.  1.
       11   -1    0    0    0    0 -0.00000000000E+00 -0.00000000000E+00 -0.34996269501E-01  0.35000000000E-01  0.51099999109E-03 0. -1.
       22    1    1    2    0    0 -0.65068204973E-05  0.32827488453E-03  0.34058640650E-01  0.34060223277E-01  0.00000000000E+00 0.  1.
       22    1    1    2    0    0  0.58136516730E-03  0.38947384844E-03  0.80350644231E-03  0.10655036083E-02  0.00000000000E+00 0.  1.
       22    1    1    2    0    0 -0.57485834680E-03 -0.71774873297E-03 -0.34862147093E-01  0.34874273115E-01  0.00000000000E+00 0. -1.
</event>
<event>
 5   0  0.6221259E+05  0.9118800E+02  0.7546771E-02  0.1180000E+00
      -11   -1    0    0    0    0  0.00000000000E+00  0.00000000000E+00  0.34996269501E-01  0.35000000000E-01  0.51099999109E-03 0.  1.
       11   -1    0    0    0    0 -0.00000000000E+00 -0.00000000000E+00 -0.34996269501E-01  0.35000000000E-01  0.51099999109E-03 0. -1.
       22    1    1    2    0    0 -0.73830973065E-02 -0.40241207861E-02 -0.33868317013E-01  0.34896512307E-01  0.00000000000E+00 0. -1.
       22    1    1    2    0    0 -0.32521558268E-04 -0.11729163196E-03 -0.54598786410E-04  0.13340167225E-03  0.00000000000E+00 0.  1.
       22    1    1    2    0    0  0.74156188648E-02  0.41414124181E-02  0.33922915799E-01  0.34970086020E-01  0.00000000000E+00 0.  1.
</event>
<event>
 5   0  0.6221259E+05  0.9118800E+02  0.7546771E-02  0.1180000E+00
      -11   -1    0    0    0    0  0.00000000000E+00  0.00000000000E+00  0.34996269501E-01  0.35000000000E-01  0.51099999109E-03 0. -1.
       11   -1    0    0    0    0 -0.00000000000E+00 -0.00000000000E+00 -0.34996269501E-01  0.35000000000E-01  0.51099999109E-03 0.  1.
       22    1    1    2    0    0  0.17512341189E-03 -0.66666634984E-03 -0.18279178077E-02  0.19535597618E-02  0.00000000000E+00 0. -1.
       22    1    1    2    0    0 -0.53337024677E-03  0.10466726804E-02 -0.33096888231E-01  0.33117729663E-01  0.00000000000E+00 0.  1.
       22    1    1    2    0    0  0.35824683487E-03 -0.38000633055E-03  0.34924806038E-01  0.34928710575E-01  0.00000000000E+00 0. -1.
</event>
<event>
 5   0  0.6221259E+05  0.9118800E+02  0.7546771E-02  0.1180000E+00
      -11   -1    0    0    0    0  0.00000000000E+00  0.00000000000E+00  0.34996269501E-01  0.35000000000E-01  0.51099999109E-03 0.  1.
       11   -1    0    0    0    0 -0.00000000000E+00 -0.00000000000E+00 -0.34996269501E-01  0.35000000000E-01  0.51099999109E-03 0. -1.
       22    1    1    2    0    0 -0.14153799374E-02  0.13234434159E-02  0.34946313376E-01  0.34999994592E-01  0.00000000000E+00 0.  1.
       22    1    1    2    0    0  0.14153771735E-02 -0.13234462745E-02 -0.34946318060E-01  0.34999999264E-01  0.00000000000E+00 0. -1.
       22    1    1    2    0    0  0.27638755415E-08  0.28586286898E-08  0.46836142660E-08  0.61438594212E-08  0.00000000000E+00 0.  1.
</event>
<event>
 5   0  0.6221259E+05  0.9118800E+02  0.7546771E-02  0.1180000E+00
      -11   -1    0    0    0    0  0.00000000000E+00  0.00000000000E+00  0.34996269501E-01  0.35000000000E-01  0.51099999109E-03 0.  1.
       11   -1    0    0    0    0 -0.00000000000E+00 -0.00000000000E+00 -0.34996269501E-01  0.35000000000E-01  0.51099999109E-03 0.  1.
       22    1    1    2    0    0  0.41269899948E-03 -0.34483285971E-03 -0.34994097181E-01  0.34998229493E-01  0.00000000000E+00 0.  1.
       22    1    1    2    0    0  0.00000000000E+00 -0.00000000000E+00  0.19583979950E-01  0.19582271707E-01  0.00000000000E+00 0.  1.
       22    1    1    2    0    0 -0.41269899948E-03  0.34483285971E-03  0.15410117231E-01  0.15419498799E-01  0.00000000000E+00 0.  1.
</event>
<event>
 5   0  0.6221259E+05  0.9118800E+02  0.7546771E-02  0.1180000E+00
      -11   -1    0    0    0    0  0.00000000000E+00  0.00000000000E+00  0.34996269501E-01  0.35000000000E-01  0.51099999109E-03 0.  1.
       11   -1    0    0    0    0 -0.00000000000E+00 -0.00000000000E+00 -0.34996269501E-01  0.35000000000E-01  0.51099999109E-03 0.  1.
       22    1    1    2    0    0  0.56698617661E-09  0.22190727242E-09  0.58390562674E-08  0.58707149697E-08  0.00000000000E+00 0. -1.
       22    1    1    2    0    0 -0.56702443661E-09 -0.22192224663E-09  0.35000986757E-01  0.34999994145E-01  0.00000000000E+00 0.  1.
       22    1    1    2    0    0  0.38259995882E-13  0.14974212210E-13 -0.35000992596E-01  0.34999999984E-01  0.00000000000E+00 0.  1.
</event>
<event>
 5   0  0.6221259E+05  0.9118800E+02  0.7546771E-02  0.1180000E+00
      -11   -1    0    0    0    0  0.00000000000E+00  0.00000000000E+00  0.34996269501E-01  0.35000000000E-01  0.51099999109E-03 0.  1.
       11   -1    0    0    0    0 -0.00000000000E+00 -0.00000000000E+00 -0.34996269501E-01  0.35000000000E-01  0.51099999109E-03 0. -1.
       22    1    1    2    0    0 -0.39829853996E-02  0.93877052203E-03  0.24554736518E-03  0.40994824423E-02  0.00000000000E+00 0. -1.
       22    1    1    2    0    0  0.43361716536E-02 -0.38276158899E-03  0.32679869879E-01  0.32968512044E-01  0.00000000000E+00 0.  1.
       22    1    1    2    0    0 -0.35318625404E-03 -0.55600893304E-03 -0.32925417244E-01  0.32932005514E-01  0.00000000000E+00 0. -1.
</event>
<event>
 5   0  0.6221259E+05  0.9118800E+02  0.7546771E-02  0.1180000E+00
      -11   -1    0    0    0    0  0.00000000000E+00  0.00000000000E+00  0.34996269501E-01  0.35000000000E-01  0.51099999109E-03 0.  1.
       11   -1    0    0    0    0 -0.00000000000E+00 -0.00000000000E+00 -0.34996269501E-01  0.35000000000E-01  0.51099999109E-03 0. -1.
       22    1    1    2    0    0 -0.16805100205E-02 -0.60317311151E-03  0.34950767917E-01  0.34996344233E-01  0.00000000000E+00 0.  1.
       22    1    1    2    0    0 -0.84445677794E-06  0.48353947876E-05  0.20407367271E-05  0.53158965745E-05  0.00000000000E+00 0. -1.
       22    1    1    2    0    0  0.16813544772E-02  0.59833771672E-03 -0.34952808653E-01  0.34998339870E-01  0.00000000000E+00 0. -1.
</event>
<event>
 5   0  0.6221259E+05  0.9118800E+02  0.7546771E-02  0.1180000E+00
      -11   -1    0    0    0    0  0.00000000000E+00  0.00000000000E+00  0.34996269501E-01  0.35000000000E-01  0.51099999109E-03 0.  1.
       11   -1    0    0    0    0 -0.00000000000E+00 -0.00000000000E+00 -0.34996269501E-01  0.35000000000E-01  0.51099999109E-03 0. -1.
       22    1    1    2    0    0 -0.78179138351E-04 -0.12356378618E-02 -0.34971158990E-01  0.34993068942E-01  0.00000000000E+00 0. -1.
       22    1    1    2    0    0  0.62980476307E-04  0.12229084932E-02  0.34964618887E-01  0.34986055017E-01  0.00000000000E+00 0.  1.
       22    1    1    2    0    0  0.15198662044E-04  0.12729368613E-04  0.65401023137E-05  0.20876041087E-04  0.00000000000E+00 0. -1.
</event>
<event>
 5   0  0.6221259E+05  0.9118800E+02  0.7546771E-02  0.1180000E+00
      -11   -1    0    0    0    0  0.00000000000E+00  0.00000000000E+00  0.34996269501E-01  0.35000000000E-01  0.51099999109E-03 0.  1.
       11   -1    0    0    0    0 -0.00000000000E+00 -0.00000000000E+00 -0.34996269501E-01  0.35000000000E-01  0.51099999109E-03 0.  1.
       22    1    1    2    0    0  0.46226288720E-08 -0.36154216628E-08  0.35000802337E-01  0.34999991624E-01  0.00000000000E+00 0.  1.
       22    1    1    2    0    0 -0.29990583693E-12  0.23456048272E-12 -0.35000809685E-01  0.34999998972E-01  0.00000000000E+00 0.  1.
       22    1    1    2    0    0 -0.46223289662E-08  0.36151871024E-08  0.73482369145E-08  0.94038337187E-08  0.00000000000E+00 0. -1.
</event>
<event>
 5   0  0.6221259E+05  0.9118800E+02  0.7546771E-02  0.1180000E+00
      -11   -1    0    0    0    0  0.00000000000E+00  0.00000000000E+00  0.34996269501E-01  0.35000000000E-01  0.51099999109E-03 0. -1.
       11   -1    0    0    0    0 -0.00000000000E+00 -0.00000000000E+00 -0.34996269501E-01  0.35000000000E-01  0.51099999109E-03 0.  1.
       22    1    1    2    0    0 -0.31653730988E-02  0.33934401453E-02 -0.29025169727E-01  0.29393800376E-01  0.00000000000E+00 0.  1.
       22    1    1    2    0    0  0.14216758053E-03 -0.36677410914E-04 -0.56430155937E-02  0.56449253178E-02  0.00000000000E+00 0.  1.
       22    1    1    2    0    0  0.30232055183E-02 -0.33567627344E-02  0.34668185321E-01  0.34961274306E-01  0.00000000000E+00 0. -1.
</event>
<event>
 5   0  0.6221259E+05  0.9118800E+02  0.7546771E-02  0.1180000E+00
      -11   -1    0    0    0    0  0.00000000000E+00  0.00000000000E+00  0.34996269501E-01  0.35000000000E-01  0.51099999109E-03 0. -1.
       11   -1    0    0    0    0 -0.00000000000E+00 -0.00000000000E+00 -0.34996269501E-01  0.35000000000E-01  0.51099999109E-03 0.  1.
       22    1    1    2    0    0 -0.22814991018E-07  0.14845058939E-06  0.33434219188E-05  0.33467937236E-05  0.00000000000E+00 0. -1.
       22    1    1    2    0    0 -0.67865201829E-04  0.49020771013E-02 -0.34654913552E-01  0.34999971412E-01  0.00000000000E+00 0.  1.
       22    1    1    2    0    0  0.67888016820E-04 -0.49022255518E-02  0.34651570130E-01  0.34996681794E-01  0.00000000000E+00 0. -1.
</event>
<event>
 5   0  0.6221259E+05  0.9118800E+02  0.7546771E-02  0.1180000E+00
      -11   -1    0    0    0    0  0.00000000000E+00  0.00000000000E+00  0.34996269501E-01  0.35000000000E-01  0.51099999109E-03 0. -1.
       11   -1    0    0    0    0 -0.00000000000E+00 -0.00000000000E+00 -0.34996269501E-01  0.35000000000E-01  0.51099999109E-03 0.  1.
       22    1    1    2    0    0  0.90682877839E-06 -0.68017104887E-06  0.83892640749E-04  0.83900298825E-04  0.00000000000E+00 0. -1.
       22    1    1    2    0    0 -0.62217304528E-02 -0.20777102131E-02  0.34295243446E-01  0.34916908978E-01  0.00000000000E+00 0. -1.
       22    1    1    2    0    0  0.62208236241E-02  0.20783903841E-02 -0.34379136087E-01  0.34999190723E-01  0.00000000000E+00 0.  1.
</event>
<event>
 5   0  0.6221259E+05  0.9118800E+02  0.7546771E-02  0.1180000E+00
      -11   -1    0    0    0    0  0.00000000000E+00  0.00000000000E+00  0.34996269501E-01  0.35000000000E-01  0.51099999109E-03 0. -1.
       11   -1    0    0    0    0 -0.00000000000E+00 -0.00000000000E+00 -0.34996269501E-01  0.35000000000E-01  0.51099999109E-03 0.  1.
       22    1    1    2    0    0 -0.90210489304E-02  0.27003621756E-01 -0.20357426492E-01  0.34999996074E-01  0.00000000000E+00 0.  1.
       22    1    1    2    0    0 -0.32391455367E-08  0.16701344770E-08  0.12446043850E-07  0.12968632175E-07  0.00000000000E+00 0. -1.
       22    1    1    2    0    0  0.90210521696E-02 -0.27003623427E-01  0.20357414046E-01  0.34999990958E-01  0.00000000000E+00 0. -1.
</event>
<event>
 5   0  0.6221259E+05  0.9118800E+02  0.7546771E-02  0.1180000E+00
      -11   -1    0    0    0    0  0.00000000000E+00  0.00000000000E+00  0.34996269501E-01  0.35000000000E-01  0.51099999109E-03 0.  1.
       11   -1    0    0    0    0 -0.00000000000E+00 -0.00000000000E+00 -0.34996269501E-01  0.35000000000E-01  0.51099999109E-03 0.  1.
       22    1    1    2    0    0 -0.43885759679E-04 -0.99273088847E-03 -0.34977270774E-01  0.34991383387E-01  0.00000000000E+00 0.  1.
       22    1    1    2    0    0  0.16057999697E-04  0.97722386802E-03  0.34957422576E-01  0.34971082590E-01  0.00000000000E+00 0.  1.
       22    1    1    2    0    0  0.27827759983E-04  0.15507020455E-04  0.19848197756E-04  0.37534022742E-04  0.00000000000E+00 0.  1.
</event>
<event>
 5   0  0.6221259E+05  0.9118800E+02  0.7546771E-02  0.1180000E+00
      -11   -1    0    0    0    0  0.00000000000E+00  0.00000000000E+00  0.34996269501E-01  0.35000000000E-01  0.51099999109E-03 0.  1.
       11   -1    0    0    0    0 -0.00000000000E+00 -0.00000000000E+00 -0.34996269501E-01  0.35000000000E-01  0.51099999109E-03 0.  1.
       22    1    1    2    0    0  0.35178401176E-02  0.16110340992E-01 -0.30872021372E-01  0.34999999851E-01  0.00000000000E+00 0.  1.
       22    1    1    2    0    0 -0.12080051433E-08 -0.43990319613E-09  0.31038221424E-08  0.33595391261E-08  0.00000000000E+00 0. -1.
       22    1    1    2    0    0 -0.35178389096E-02 -0.16110340552E-01  0.30872018269E-01  0.34999996789E-01  0.00000000000E+00 0.  1.
</event>
<event>
 5   0  0.6221259E+05  0.9118800E+02  0.7546771E-02  0.1180000E+00
      -11   -1    0    0    0    0  0.00000000000E+00  0.00000000000E+00  0.34996269501E-01  0.35000000000E-01  0.51099999109E-03 0. -1.
       11   -1    0    0    0    0 -0.00000000000E+00 -0.00000000000E+00 -0.34996269501E-01  0.35000000000E-01  0.51099999109E-03 0.  1.
       22    1    1    2    0    0 -0.24057384180E-02  0.14646347209E-02 -0.29326557196E-01  0.29461495026E-01  0.00000000000E+00 0.  1.
       22    1    1    2    0    0  0.11097718499E-01 -0.10337585914E-01  0.19480988905E-01  0.24688741708E-01  0.00000000000E+00 0. -1.
       22    1    1    2    0    0 -0.86919800811E-02  0.88729511928E-02  0.98455682911E-02  0.15849763266E-01  0.00000000000E+00 0.  1.
</event>
<event>
 5   0  0.6221259E+05  0.9118800E+02  0.7546771E-02  0.1180000E+00
      -11   -1    0    0    0    0  0.00000000000E+00  0.00000000000E+00  0.34996269501E-01  0.35000000000E-01  0.51099999109E-03 0. -1.
       11   -1    0    0    0    0 -0.00000000000E+00 -0.00000000000E+00 -0.34996269501E-01  0.35000000000E-01  0.51099999109E-03 0. -1.
       22    1    1    2    0    0 -0.56484777201E-06  0.91426841692E-06  0.52128146286E-04  0.52139223000E-04  0.00000000000E+00 0.  1.
       22    1    1    2    0    0 -0.61342738093E-03  0.57721763484E-03 -0.34989837577E-01  0.34999974386E-01  0.00000000000E+00 0. -1.
       22    1    1    2    0    0  0.61399222870E-03 -0.57813190326E-03  0.34937709431E-01  0.34947886391E-01  0.00000000000E+00 0. -1.
</event>
<event>
 5   0  0.6221259E+05  0.9118800E+02  0.7546771E-02  0.1180000E+00
      -11   -1    0    0    0    0  0.00000000000E+00  0.00000000000E+00  0.34996269501E-01  0.35000000000E-01  0.51099999109E-03 0.  1.
       11   -1    0    0    0    0 -0.00000000000E+00 -0.00000000000E+00 -0.34996269501E-01  0.35000000000E-01  0.51099999109E-03 0. -1.
       22    1    1    2    0    0  0.54285149665E-03 -0.15255946411E-02  0.34875714523E-01  0.34913286729E-01  0.00000000000E+00 0.  1.
       22    1    1    2    0    0  0.95385513884E-06  0.58681649797E-05  0.86778385072E-04  0.86981798760E-04  0.00000000000E+00 0. -1.
       22    1    1    2    0    0 -0.54380535179E-03  0.15197264761E-02 -0.34962492908E-01  0.34999731472E-01  0.00000000000E+00 0. -1.
</event>
<event>
 5   0  0.6221259E+05  0.9118800E+02  0.7546771E-02  0.1180000E+00
      -11   -1    0    0    0    0  0.00000000000E+00  0.00000000000E+00  0.34996269501E-01  0.35000000000E-01  0.51099999109E-03 0.  1.
       11   -1    0    0    0    0 -0.00000000000E+00 -0.00000000000E+00 -0.34996269501E-01  0.35000000000E-01  0.51099999109E-03 0. -1.
       22    1    1    2    0    0 -0.21289309920E-02 -0.12350533887E-04  0.34789188215E-01  0.34854269701E-01  0.00000000000E+00 0.  1.
       22    1    1    2    0    0  0.23137731016E-02 -0.59456759624E-03 -0.80010769112E-02  0.83501070850E-02  0.00000000000E+00 0. -1.
       22    1    1    2    0    0 -0.18484210959E-03  0.60691813013E-03 -0.26788111304E-01  0.26795623214E-01  0.00000000000E+00 0. -1.
</event>
<event>
 5   0  0.6221259E+05  0.9118800E+02  0.7546771E-02  0.1180000E+00
      -11   -1    0    0    0    0  0.00000000000E+00  0.00000000000E+00  0.34996269501E-01  0.35000000000E-01  0.51099999109E-03 0. -1.
       11   -1    0    0    0    0 -0.00000000000E+00 -0.00000000000E+00 -0.34996269501E-01  0.35000000000E-01  0.51099999109E-03 0.  1.
       22    1    1    2    0    0 -0.63078363146E-03  0.87610583199E-03 -0.34983309158E-01  0.34999962416E-01  0.00000000000E+00 0.  1.
       22    1    1    2    0    0 -0.14200395160E-06 -0.16932439123E-06  0.27994075387E-06  0.35665487157E-06  0.00000000000E+00 0. -1.
       22    1    1    2    0    0  0.63092563542E-03 -0.87593650759E-03  0.34983029218E-01  0.34999680930E-01  0.00000000000E+00 0. -1.
</event>
<event>
 5   0  0.6221259E+05  0.9118800E+02  0.7546771E-02  0.1180000E+00
      -11   -1    0    0    0    0  0.00000000000E+00  0.00000000000E+00  0.34996269501E-01  0.35000000000E-01  0.51099999109E-03 0. -1.
       11   -1    0    0    0    0 -0.00000000000E+00 -0.00000000000E+00 -0.34996269501E-01  0.35000000000E-01  0.51099999109E-03 0. -1.
       22    1    1    2    0    0  0.60598822088E-03 -0.11825780716E-02 -0.34974766276E-01  0.34999999839E-01  0.00000000000E+00 0. -1.
       22    1    1    2    0    0  0.76148989165E-09  0.32260730081E-08  0.13219898492E-07  0.13629128000E-07  0.00000000000E+00 0. -1.
       22    1    1    2    0    0 -0.60598898237E-03  0.11825748455E-02  0.34974753056E-01  0.34999986532E-01  0.00000000000E+00 0. -1.
</event>
<event>
 5   0  0.6221259E+05  0.9118800E+02  0.7546771E-02  0.1180000E+00
      -11   -1    0    0    0    0  0.00000000000E+00  0.00000000000E+00  0.34996269501E-01  0.35000000000E-01  0.51099999109E-03 0. -1.
       11   -1    0    0    0    0 -0.00000000000E+00 -0.00000000000E+00 -0.34996269501E-01  0.35000000000E-01  0.51099999109E-03 0. -1.
       22    1    1    2    0    0 -0.10690703077E-02 -0.56098203151E-03 -0.34978372264E-01  0.34999201968E-01  0.00000000000E+00 0. -1.
       22    1    1    2    0    0  0.10639604405E-02  0.56326573818E-03  0.34970068660E-01  0.34990784247E-01  0.00000000000E+00 0. -1.
       22    1    1    2    0    0  0.51098671486E-05 -0.22837066699E-05  0.83036036784E-05  0.10013785122E-04  0.00000000000E+00 0.  1.
</event>
<event>
 5   0  0.6221259E+05  0.9118800E+02  0.7546771E-02  0.1180000E+00
      -11   -1    0    0    0    0  0.00000000000E+00  0.00000000000E+00  0.34996269501E-01  0.35000000000E-01  0.51099999109E-03 0. -1.
       11   -1    0    0    0    0 -0.00000000000E+00 -0.00000000000E+00 -0.34996269501E-01  0.35000000000E-01  0.51099999109E-03 0.  1.
       22    1    1    2    0    0  0.21861034585E-06 -0.23022164961E-06  0.92988366216E-05  0.93042546722E-05  0.00000000000E+00 0. -1.
       22    1    1    2    0    0 -0.17617244891E-01 -0.18707353721E-01 -0.23760522475E-01  0.34998497526E-01  0.00000000000E+00 0.  1.
       22    1    1    2    0    0  0.17617026281E-01  0.18707583942E-01  0.23751223638E-01  0.34992198220E-01  0.00000000000E+00 0. -1.
</event>
<event>
 5   0  0.6221259E+05  0.9118800E+02  0.7546771E-02  0.1180000E+00
      -11   -1    0    0    0    0  0.00000000000E+00  0.00000000000E+00  0.34996269501E-01  0.35000000000E-01  0.51099999109E-03 0. -1.
       11   -1    0    0    0    0 -0.00000000000E+00 -0.00000000000E+00 -0.34996269501E-01  0.35000000000E-01  0.51099999109E-03 0.  1.
       22    1    1    2    0    0 -0.12340740443E-04  0.17951259146E-04  0.30665732731E-03  0.30743008632E-03  0.00000000000E+00 0. -1.
       22    1    1    2    0    0 -0.76979854594E-03  0.21570549980E-03  0.34683589893E-01  0.34692802230E-01  0.00000000000E+00 0. -1.
       22    1    1    2    0    0  0.78213928638E-03 -0.23365675895E-03 -0.34990247221E-01  0.34999767684E-01  0.00000000000E+00 0.  1.
</event>
<event>
 5   0  0.6221259E+05  0.9118800E+02  0.7546771E-02  0.1180000E+00
      -11   -1    0    0    0    0  0.00000000000E+00  0.00000000000E+00  0.34996269501E-01  0.35000000000E-01  0.51099999109E-03 0.  1.
       11   -1    0    0    0    0 -0.00000000000E+00 -0.00000000000E+00 -0.34996269501E-01  0.35000000000E-01  0.51099999109E-03 0. -1.
       22    1    1    2    0    0  0.14442116928E-09  0.52841321485E-09  0.14461911724E-08  0.15464627079E-08  0.00000000000E+00 0. -1.
       22    1    1    2    0    0  0.11439387009E-02 -0.53458749719E-03  0.34977214238E-01  0.34999998506E-01  0.00000000000E+00 0.  1.
       22    1    1    2    0    0 -0.11439388453E-02  0.53458696878E-03 -0.34977215684E-01  0.34999999948E-01  0.00000000000E+00 0. -1.
</event>
<event>
 5   0  0.6221259E+05  0.9118800E+02  0.7546771E-02  0.1180000E+00
      -11   -1    0    0    0    0  0.00000000000E+00  0.00000000000E+00  0.34996269501E-01  0.35000000000E-01  0.51099999109E-03 0.  1.
       11   -1    0    0    0    0 -0.00000000000E+00 -0.00000000000E+00 -0.34996269501E-01  0.35000000000E-01  0.51099999109E-03 0. -1.
       22    1    1    2    0    0  0.45596510472E-09 -0.99138803572E-09  0.18813400967E-08  0.21749011411E-08  0.00000000000E+00 0. -1.
       22    1    1    2    0    0 -0.72008606002E-02 -0.40817151495E-02  0.34007161998E-01  0.34999997988E-01  0.00000000000E+00 0.  1.
       22    1    1    2    0    0  0.72008601443E-02  0.40817161409E-02 -0.34007163880E-01  0.34999999837E-01  0.00000000000E+00 0. -1.
</event>
<event>
 5   0  0.6221259E+05  0.9118800E+02  0.7546771E-02  0.1180000E+00
      -11   -1    0    0    0    0  0.00000000000E+00  0.00000000000E+00  0.34996269501E-01  0.35000000000E-01  0.51099999109E-03 0. -1.
       11   -1    0    0    0    0 -0.00000000000E+00 -0.00000000000E+00 -0.34996269501E-01  0.35000000000E-01  0.51099999109E-03 0.  1.
       22    1    1    2    0    0 -0.76596858794E-02 -0.16043428070E-02 -0.33961118210E-01  0.34851144224E-01  0.00000000000E+00 0.  1.
       22    1    1    2    0    0 -0.44181641338E-04  0.11237117777E-03  0.86147210090E-02  0.86155671527E-02  0.00000000000E+00 0. -1.
       22    1    1    2    0    0  0.77038675207E-02  0.14919716292E-02  0.25346397201E-01  0.26533288624E-01  0.00000000000E+00 0. -1.
</event>
<event>
 5   0  0.6221259E+05  0.9118800E+02  0.7546771E-02  0.1180000E+00
      -11   -1    0    0    0    0  0.00000000000E+00  0.00000000000E+00  0.34996269501E-01  0.35000000000E-01  0.51099999109E-03 0.  1.
       11   -1    0    0    0    0 -0.00000000000E+00 -0.00000000000E+00 -0.34996269501E-01  0.35000000000E-01  0.51099999109E-03 0. -1.
       22    1    1    2    0    0  0.29575891034E-03 -0.99236133712E-04  0.15583392903E-02  0.15892584708E-02  0.00000000000E+00 0.  1.
       22    1    1    2    0    0 -0.76091161814E-02 -0.83393335575E-02 -0.33088657945E-01  0.34961441873E-01  0.00000000000E+00 0. -1.
       22    1    1    2    0    0  0.73133572711E-02  0.84385696912E-02  0.31530318655E-01  0.33449299656E-01  0.00000000000E+00 0.  1.
</event>
<event>
 5   0  0.6221259E+05  0.9118800E+02  0.7546771E-02  0.1180000E+00
      -11   -1    0    0    0    0  0.00000000000E+00  0.00000000000E+00  0.34996269501E-01  0.35000000000E-01  0.51099999109E-03 0. -1.
       11   -1    0    0    0    0 -0.00000000000E+00 -0.00000000000E+00 -0.34996269501E-01  0.35000000000E-01  0.51099999109E-03 0.  1.
       22    1    1    2    0    0 -0.38260039297E-02  0.74554099279E-02  0.33446279394E-01  0.34480067409E-01  0.00000000000E+00 0. -1.
       22    1    1    2    0    0  0.38957013809E-02 -0.82094810874E-02 -0.33547062561E-01  0.34755970357E-01  0.00000000000E+00 0.  1.
       22    1    1    2    0    0 -0.69697451176E-04  0.75407115947E-03  0.10078316750E-03  0.76396223407E-03  0.00000000000E+00 0.  1.
</event>
<event>
 5   0  0.6221259E+05  0.9118800E+02  0.7546771E-02  0.1180000E+00
      -11   -1    0    0    0    0  0.00000000000E+00  0.00000000000E+00  0.34996269501E-01  0.35000000000E-01  0.51099999109E-03 0. -1.
       11   -1    0    0    0    0 -0.00000000000E+00 -0.00000000000E+00 -0.34996269501E-01  0.35000000000E-01  0.51099999109E-03 0.  1.
       22    1    1    2    0    0 -0.25819739943E-04  0.36848986746E-03 -0.19554107211E-02  0.19899956104E-02  0.00000000000E+00 0. -1.
       22    1    1    2    0    0 -0.15166447400E-01 -0.27335853677E-01  0.14689534741E-01  0.34540591395E-01  0.00000000000E+00 0. -1.
       22    1    1    2    0    0  0.15192267140E-01  0.26967363809E-01 -0.12734124020E-01  0.33469412995E-01  0.00000000000E+00 0.  1.
</event>
<event>
 5   0  0.6221259E+05  0.9118800E+02  0.7546771E-02  0.1180000E+00
      -11   -1    0    0    0    0  0.00000000000E+00  0.00000000000E+00  0.34996269501E-01  0.35000000000E-01  0.51099999109E-03 0.  1.
       11   -1    0    0    0    0 -0.00000000000E+00 -0.00000000000E+00 -0.34996269501E-01  0.35000000000E-01  0.51099999109E-03 0. -1.
       22    1    1    2    0    0  0.82995331647E-08 -0.74599727921E-08  0.62738948861E-08  0.12802156141E-07  0.00000000000E+00 0.  1.
       22    1    1    2    0    0 -0.39696468731E-03  0.20014762432E-03  0.34997166987E-01  0.34999990531E-01  0.00000000000E+00 0.  1.
       22    1    1    2    0    0  0.39695638777E-03 -0.20014016435E-03 -0.34997173261E-01  0.34999996667E-01  0.00000000000E+00 0. -1.
</event>
<event>
 5   0  0.6221259E+05  0.9118800E+02  0.7546771E-02  0.1180000E+00
      -11   -1    0    0    0    0  0.00000000000E+00  0.00000000000E+00  0.34996269501E-01  0.35000000000E-01  0.51099999109E-03 0.  1.
       11   -1    0    0    0    0 -0.00000000000E+00 -0.00000000000E+00 -0.34996269501E-01  0.35000000000E-01  0.51099999109E-03 0. -1.
       22    1    1    2    0    0 -0.23217145361E-02 -0.63303180963E-02 -0.34344221801E-01  0.34999840809E-01  0.00000000000E+00 0. -1.
       22    1    1    2    0    0  0.23219109727E-02  0.63291400046E-02  0.34318010361E-01  0.34973920554E-01  0.00000000000E+00 0.  1.
       22    1    1    2    0    0 -0.19643664075E-06  0.11780917371E-05  0.26211439702E-04  0.26238636755E-04  0.00000000000E+00 0. -1.
</event>
<event>
 5   0  0.6221259E+05  0.9118800E+02  0.7546771E-02  0.1180000E+00
      -11   -1    0    0    0    0  0.00000000000E+00  0.00000000000E+00  0.34996269501E-01  0.35000000000E-01  0.51099999109E-03 0. -1.
       11   -1    0    0    0    0 -0.00000000000E+00 -0.00000000000E+00 -0.34996269501E-01  0.35000000000E-01  0.51099999109E-03 0.  1.
       22    1    1    2    0    0  0.12352548380E-03 -0.13710214114E-03  0.53280061240E-02  0.53312010654E-02  0.00000000000E+00 0. -1.
       22    1    1    2    0    0 -0.53152858483E-03  0.67037497162E-03  0.29661007555E-01  0.29673343163E-01  0.00000000000E+00 0. -1.
       22    1    1    2    0    0  0.40800310104E-03 -0.53327283047E-03 -0.34989013679E-01  0.34995455772E-01  0.00000000000E+00 0.  1.
</event>
<event>
 5   0  0.6221259E+05  0.9118800E+02  0.7546771E-02  0.1180000E+00
      -11   -1    0    0    0    0  0.00000000000E+00  0.00000000000E+00  0.34996269501E-01  0.35000000000E-01  0.51099999109E-03 0. -1.
       11   -1    0    0    0    0 -0.00000000000E+00 -0.00000000000E+00 -0.34996269501E-01  0.35000000000E-01  0.51099999109E-03 0.  1.
       22    1    1    2    0    0  0.40245151952E-03 -0.58762216272E-03  0.34991195023E-01  0.34998442768E-01  0.00000000000E+00 0. -1.
       22    1    1    2    0    0  0.27072896795E-06 -0.26085957212E-06  0.15308997317E-05  0.15763869699E-05  0.00000000000E+00 0. -1.
       22    1    1    2    0    0 -0.40272224849E-03  0.58788302229E-03 -0.34992725923E-01  0.34999980845E-01  0.00000000000E+00 0.  1.
</event>
<event>
 5   0  0.6221259E+05  0.9118800E+02  0.7546771E-02  0.1180000E+00
      -11   -1    0    0    0    0  0.00000000000E+00  0.00000000000E+00  0.34996269501E-01  0.35000000000E-01  0.51099999109E-03 0. -1.
       11   -1    0    0    0    0 -0.00000000000E+00 -0.00000000000E+00 -0.34996269501E-01  0.35000000000E-01  0.51099999109E-03 0. -1.
       22    1    1    2    0    0 -0.68710013044E-03  0.55372273792E-03  0.34810351734E-01  0.34821535051E-01  0.00000000000E+00 0. -1.
       22    1    1    2    0    0  0.93568656096E-03 -0.56735974487E-03 -0.34897530440E-01  0.34914682258E-01  0.00000000000E+00 0. -1.
       22    1    1    2    0    0 -0.24858643051E-03  0.13637006947E-04  0.87178705938E-04  0.26378269117E-03  0.00000000000E+00 0.  1.
</event>
<event>
 5   0  0.6221259E+05  0.9118800E+02  0.7546771E-02  0.1180000E+00
      -11   -1    0    0    0    0  0.00000000000E+00  0.00000000000E+00  0.34996269501E-01  0.35000000000E-01  0.51099999109E-03 0. -1.
       11   -1    0    0    0    0 -0.00000000000E+00 -0.00000000000E+00 -0.34996269501E-01  0.35000000000E-01  0.51099999109E-03 0.  1.
       22    1    1    2    0    0 -0.71147780473E-08 -0.32342203496E-10  0.57729416116E-08  0.91623123463E-08  0.00000000000E+00 0. -1.
       22    1    1    2    0    0  0.16127065197E-01 -0.85211278156E-02 -0.29871526829E-01  0.34999999518E-01  0.00000000000E+00 0.  1.
       22    1    1    2    0    0 -0.16127058083E-01  0.85211278479E-02  0.29871521056E-01  0.34999991320E-01  0.00000000000E+00 0. -1.
</event>
<event>
 5   0  0.6221259E+05  0.9118800E+02  0.7546771E-02  0.1180000E+00
      -11   -1    0    0    0    0  0.00000000000E+00  0.00000000000E+00  0.34996269501E-01  0.35000000000E-01  0.51099999109E-03 0. -1.
       11   -1    0    0    0    0 -0.00000000000E+00 -0.00000000000E+00 -0.34996269501E-01  0.35000000000E-01  0.51099999109E-03 0.  1.
       22    1    1    2    0    0 -0.21487903223E-02 -0.56105941103E-02 -0.34472620421E-01  0.34992250925E-01  0.00000000000E+00 0.  1.
       22    1    1    2    0    0  0.22129903460E-02  0.55641358403E-02  0.33425570912E-01  0.33957704939E-01  0.00000000000E+00 0. -1.
       22    1    1    2    0    0 -0.64200023720E-04  0.46458269986E-04  0.10470495090E-02  0.10500441363E-02  0.00000000000E+00 0. -1.
</event>
<event>
 5   0  0.6221259E+05  0.9118800E+02  0.7546771E-02  0.1180000E+00
      -11   -1    0    0    0    0  0.00000000000E+00  0.00000000000E+00  0.34996269501E-01  0.35000000000E-01  0.51099999109E-03 0.  1.
       11   -1    0    0    0    0 -0.00000000000E+00 -0.00000000000E+00 -0.34996269501E-01  0.35000000000E-01  0.51099999109E-03 0. -1.
       22    1    1    2    0    0 -0.14415879333E-01 -0.39076065032E-02 -0.28543858212E-01  0.32215505694E-01  0.00000000000E+00 0. -1.
       22    1    1    2    0    0  0.35851840950E-03 -0.34935530464E-02 -0.14843778468E-02  0.38127189681E-02  0.00000000000E+00 0. -1.
       22    1    1    2    0    0  0.14057360924E-01  0.74011595496E-02  0.30028236058E-01  0.33971775338E-01  0.00000000000E+00 0.  1.
</event>
<event>
 5   0  0.6221259E+05  0.9118800E+02  0.7546771E-02  0.1180000E+00
      -11   -1    0    0    0    0  0.00000000000E+00  0.00000000000E+00  0.34996269501E-01  0.35000000000E-01  0.51099999109E-03 0.  1.
       11   -1    0    0    0    0 -0.00000000000E+00 -0.00000000000E+00 -0.34996269501E-01  0.35000000000E-01  0.51099999109E-03 0. -1.
       22    1    1    2    0    0 -0.25997307194E-02 -0.20636945015E-02  0.34824732159E-01  0.34982558579E-01  0.00000000000E+00 0.  1.
       22    1    1    2    0    0  0.25993997698E-02  0.20621403481E-02 -0.34842235145E-01  0.34999866455E-01  0.00000000000E+00 0. -1.
       22    1    1    2    0    0  0.33094964284E-06  0.15541534184E-05  0.17502985667E-04  0.17574965939E-04  0.00000000000E+00 0.  1.
</event>
<event>
 5   0  0.6221259E+05  0.9118800E+02  0.7546771E-02  0.1180000E+00
      -11   -1    0    0    0    0  0.00000000000E+00  0.00000000000E+00  0.34996269501E-01  0.35000000000E-01  0.51099999109E-03 0.  1.
       11   -1    0    0    0    0 -0.00000000000E+00 -0.00000000000E+00 -0.34996269501E-01  0.35000000000E-01  0.51099999109E-03 0. -1.
       22    1    1    2    0    0  0.50217229988E-09  0.33206928841E-09  0.43028873365E-07  0.43033084832E-07  0.00000000000E+00 0. -1.
       22    1    1    2    0    0  0.16672073279E-03  0.65538325006E-03  0.34993423165E-01  0.34999956969E-01  0.00000000000E+00 0.  1.
       22    1    1    2    0    0 -0.16672123496E-03 -0.65538358213E-03 -0.34993466194E-01  0.34999999998E-01  0.00000000000E+00 0. -1.
</event>
<event>
 5   0  0.6221259E+05  0.9118800E+02  0.7546771E-02  0.1180000E+00
      -11   -1    0    0    0    0  0.00000000000E+00  0.00000000000E+00  0.34996269501E-01  0.35000000000E-01  0.51099999109E-03 0.  1.
       11   -1    0    0    0    0 -0.00000000000E+00 -0.00000000000E+00 -0.34996269501E-01  0.35000000000E-01  0.51099999109E-03 0. -1.
       22    1    1    2    0    0  0.28726097411E-01 -0.19358198878E-01 -0.47864816053E-02  0.34969114121E-01  0.00000000000E+00 0. -1.
       22    1    1    2    0    0 -0.20957235320E-05 -0.55310799205E-08 -0.55772837293E-04  0.55812198195E-04  0.00000000000E+00 0.  1.
       22    1    1    2    0    0 -0.28724001687E-01  0.19358204409E-01  0.48422544426E-02  0.34975073681E-01  0.00000000000E+00 0.  1.
</event>
<event>
 5   0  0.6221259E+05  0.9118800E+02  0.7546771E-02  0.1180000E+00
      -11   -1    0    0    0    0  0.00000000000E+00  0.00000000000E+00  0.34996269501E-01  0.35000000000E-01  0.51099999109E-03 0. -1.
       11   -1    0    0    0    0 -0.00000000000E+00 -0.00000000000E+00 -0.34996269501E-01  0.35000000000E-01  0.51099999109E-03 0.  1.
       22    1    1    2    0    0  0.10197220413E-06 -0.10370413773E-06  0.43995701811E-05  0.44019734957E-05  0.00000000000E+00 0. -1.
       22    1    1    2    0    0  0.24378586483E-02  0.38614284925E-02 -0.34700792015E-01  0.34999982161E-01  0.00000000000E+00 0.  1.
       22    1    1    2    0    0 -0.24379606205E-02 -0.38613247884E-02  0.34696392445E-01  0.34995615865E-01  0.00000000000E+00 0. -1.
</event>
<event>
 5   0  0.6221259E+05  0.9118800E+02  0.7546771E-02  0.1180000E+00
      -11   -1    0    0    0    0  0.00000000000E+00  0.00000000000E+00  0.34996269501E-01  0.35000000000E-01  0.51099999109E-03 0. -1.
       11   -1    0    0    0    0 -0.00000000000E+00 -0.00000000000E+00 -0.34996269501E-01  0.35000000000E-01  0.51099999109E-03 0.  1.
       22    1    1    2    0    0 -0.17397201741E-02  0.10321059264E-02  0.34929407524E-01  0.34987931904E-01  0.00000000000E+00 0. -1.
       22    1    1    2    0    0  0.17302639972E-02 -0.10373364922E-02 -0.34939254464E-01  0.34997448235E-01  0.00000000000E+00 0.  1.
       22    1    1    2    0    0  0.94561769160E-05  0.52305658457E-05  0.98469395700E-05  0.14619860459E-04  0.00000000000E+00 0.  1.
</event>
<event>
 5   0  0.6221259E+05  0.9118800E+02  0.7546771E-02  0.1180000E+00
      -11   -1    0    0    0    0  0.00000000000E+00  0.00000000000E+00  0.34996269501E-01  0.35000000000E-01  0.51099999109E-03 0. -1.
       11   -1    0    0    0    0 -0.00000000000E+00 -0.00000000000E+00 -0.34996269501E-01  0.35000000000E-01  0.51099999109E-03 0.  1.
       22    1    1    2    0    0  0.36273654152E-02 -0.32912744947E-02  0.34655475990E-01  0.34999889768E-01  0.00000000000E+00 0. -1.
       22    1    1    2    0    0  0.18735855107E-06  0.43230409915E-07  0.12545242018E-07  0.19269010897E-06  0.00000000000E+00 0. -1.
       22    1    1    2    0    0 -0.36275527738E-02  0.32912312643E-02 -0.34655488535E-01  0.34999917542E-01  0.00000000000E+00 0.  1.
</event>
<event>
 5   0  0.6221259E+05  0.9118800E+02  0.7546771E-02  0.1180000E+00
      -11   -1    0    0    0    0  0.00000000000E+00  0.00000000000E+00  0.34996269501E-01  0.35000000000E-01  0.51099999109E-03 0. -1.
       11   -1    0    0    0    0 -0.00000000000E+00 -0.00000000000E+00 -0.34996269501E-01  0.35000000000E-01  0.51099999109E-03 0.  1.
       22    1    1    2    0    0  0.67460543583E-08  0.26238047185E-07  0.44565906106E-06  0.44648173880E-06  0.00000000000E+00 0. -1.
       22    1    1    2    0    0  0.62492800018E-02 -0.77257414344E-02  0.33559335458E-01  0.34999565392E-01  0.00000000000E+00 0. -1.
       22    1    1    2    0    0 -0.62492867479E-02  0.77257151964E-02 -0.33559781117E-01  0.34999988126E-01  0.00000000000E+00 0.  1.
</event>
<event>
 5   0  0.6221259E+05  0.9118800E+02  0.7546771E-02  0.1180000E+00
      -11   -1    0    0    0    0  0.00000000000E+00  0.00000000000E+00  0.34996269501E-01  0.35000000000E-01  0.51099999109E-03 0.  1.
       11   -1    0    0    0    0 -0.00000000000E+00 -0.00000000000E+00 -0.34996269501E-01  0.35000000000E-01  0.51099999109E-03 0. -1.
       22    1    1    2    0    0 -0.58194921999E-02 -0.89355006830E-03  0.34501214779E-01  0.34999982035E-01  0.00000000000E+00 0.  1.
       22    1    1    2    0    0 -0.31158821494E-08 -0.80033502349E-09  0.17676587390E-07  0.17966941851E-07  0.00000000000E+00 0. -1.
       22    1    1    2    0    0  0.58194953158E-02  0.89355086863E-03 -0.34501232456E-01  0.34999999998E-01  0.00000000000E+00 0. -1.
</event>
<event>
 5   0  0.6221259E+05  0.9118800E+02  0.7546771E-02  0.1180000E+00
      -11   -1    0    0    0    0  0.00000000000E+00  0.00000000000E+00  0.34996269501E-01  0.35000000000E-01  0.51099999109E-03 0.  1.
       11   -1    0    0    0    0 -0.00000000000E+00 -0.00000000000E+00 -0.34996269501E-01  0.35000000000E-01  0.51099999109E-03 0.  1.
       22    1    1    2    0    0  0.10879692763E-06  0.11055770705E-06  0.35003072743E-01  0.34999456250E-01  0.00000000000E+00 0.  1.
       22    1    1    2    0    0 -0.11419112085E-10 -0.11603920040E-10 -0.35003605406E-01  0.34999988967E-01  0.00000000000E+00 0.  1.
       22    1    1    2    0    0 -0.10878550851E-06 -0.11054610313E-06  0.53266292873E-06  0.55478331214E-06  0.00000000000E+00 0. -1.
</event>
<event>
 5   0  0.6221259E+05  0.9118800E+02  0.7546771E-02  0.1180000E+00
      -11   -1    0    0    0    0  0.00000000000E+00  0.00000000000E+00  0.34996269501E-01  0.35000000000E-01  0.51099999109E-03 0. -1.
       11   -1    0    0    0    0 -0.00000000000E+00 -0.00000000000E+00 -0.34996269501E-01  0.35000000000E-01  0.51099999109E-03 0. -1.
       22    1    1    2    0    0  0.84263399987E-06  0.25716167101E-05  0.34976006592E-01  0.34973815695E-01  0.00000000000E+00 0. -1.
       22    1    1    2    0    0 -0.71315977200E-10 -0.21764770790E-09 -0.35002120222E-01  0.34999930855E-01  0.00000000000E+00 0. -1.
       22    1    1    2    0    0 -0.84256268389E-06 -0.25713990624E-05  0.26113629680E-04  0.26253450441E-04  0.00000000000E+00 0.  1.
</event>
<event>
 5   0  0.6221259E+05  0.9118800E+02  0.7546771E-02  0.1180000E+00
      -11   -1    0    0    0    0  0.00000000000E+00  0.00000000000E+00  0.34996269501E-01  0.35000000000E-01  0.51099999109E-03 0. -1.
       11   -1    0    0    0    0 -0.00000000000E+00 -0.00000000000E+00 -0.34996269501E-01  0.35000000000E-01  0.51099999109E-03 0.  1.
       22    1    1    2    0    0  0.27459975354E-09  0.62934364725E-08  0.26122905026E-06  0.26130499316E-06  0.00000000000E+00 0. -1.
       22    1    1    2    0    0 -0.50010456635E-04 -0.13507622428E-02  0.34973628165E-01  0.34999738952E-01  0.00000000000E+00 0. -1.
       22    1    1    2    0    0  0.50010182035E-04  0.13507559494E-02 -0.34973889394E-01  0.34999999743E-01  0.00000000000E+00 0.  1.
</event>
<event>
 5   0  0.6221259E+05  0.9118800E+02  0.7546771E-02  0.1180000E+00
      -11   -1    0    0    0    0  0.00000000000E+00  0.00000000000E+00  0.34996269501E-01  0.35000000000E-01  0.51099999109E-03 0.  1.
       11   -1    0    0    0    0 -0.00000000000E+00 -0.00000000000E+00 -0.34996269501E-01  0.35000000000E-01  0.51099999109E-03 0. -1.
       22    1    1    2    0    0 -0.92419190687E-03 -0.28493606183E-02  0.34871488147E-01  0.34999909603E-01  0.00000000000E+00 0.  1.
       22    1    1    2    0    0  0.92421473770E-03  0.28493602159E-02 -0.34871576978E-01  0.34999998678E-01  0.00000000000E+00 0. -1.
       22    1    1    2    0    0 -0.22830834633E-07  0.40240619016E-09  0.88831384623E-07  0.91719266432E-07  0.00000000000E+00 0. -1.
</event>
<event>
 5   0  0.6221259E+05  0.9118800E+02  0.7546771E-02  0.1180000E+00
      -11   -1    0    0    0    0  0.00000000000E+00  0.00000000000E+00  0.34996269501E-01  0.35000000000E-01  0.51099999109E-03 0.  1.
       11   -1    0    0    0    0 -0.00000000000E+00 -0.00000000000E+00 -0.34996269501E-01  0.35000000000E-01  0.51099999109E-03 0. -1.
       22    1    1    2    0    0 -0.37663968016E-02 -0.21819417128E-02  0.36082936109E-02  0.56538833811E-02  0.00000000000E+00 0.  1.
       22    1    1    2    0    0 -0.14971385620E-02 -0.99038723259E-03  0.30064025283E-01  0.30117568079E-01  0.00000000000E+00 0.  1.
       22    1    1    2    0    0  0.52635353636E-02  0.31723289454E-02 -0.33672318894E-01  0.34228548540E-01  0.00000000000E+00 0. -1.
</event>
<event>
 5   0  0.6221259E+05  0.9118800E+02  0.7546771E-02  0.1180000E+00
      -11   -1    0    0    0    0  0.00000000000E+00  0.00000000000E+00  0.34996269501E-01  0.35000000000E-01  0.51099999109E-03 0. -1.
       11   -1    0    0    0    0 -0.00000000000E+00 -0.00000000000E+00 -0.34996269501E-01  0.35000000000E-01  0.51099999109E-03 0. -1.
       22    1    1    2    0    0 -0.69880026537E-04  0.45834080775E-03  0.34940796078E-01  0.34943871996E-01  0.00000000000E+00 0. -1.
       22    1    1    2    0    0 -0.31810073423E-05 -0.96046742023E-06  0.56084328626E-04  0.56182677248E-04  0.00000000000E+00 0. -1.
       22    1    1    2    0    0  0.73061033879E-04 -0.45738034033E-03 -0.34996880407E-01  0.34999945327E-01  0.00000000000E+00 0. -1.
</event>
<event>
 5   0  0.6221259E+05  0.9118800E+02  0.7546771E-02  0.1180000E+00
      -11   -1    0    0    0    0  0.00000000000E+00  0.00000000000E+00  0.34996269501E-01  0.35000000000E-01  0.51099999109E-03 0. -1.
       11   -1    0    0    0    0 -0.00000000000E+00 -0.00000000000E+00 -0.34996269501E-01  0.35000000000E-01  0.51099999109E-03 0. -1.
       22    1    1    2    0    0  0.11539572586E-06 -0.31633300738E-05  0.34988644227E-01  0.34986341468E-01  0.00000000000E+00 0. -1.
       22    1    1    2    0    0 -0.11538577714E-06  0.31630573508E-05  0.13474785100E-04  0.13841534567E-04  0.00000000000E+00 0.  1.
       22    1    1    2    0    0 -0.99487138555E-11  0.27272297567E-09 -0.35002119012E-01  0.34999816997E-01  0.00000000000E+00 0. -1.
</event>
<event>
 5   0  0.6221259E+05  0.9118800E+02  0.7546771E-02  0.1180000E+00
      -11   -1    0    0    0    0  0.00000000000E+00  0.00000000000E+00  0.34996269501E-01  0.35000000000E-01  0.51099999109E-03 0.  1.
       11   -1    0    0    0    0 -0.00000000000E+00 -0.00000000000E+00 -0.34996269501E-01  0.35000000000E-01  0.51099999109E-03 0. -1.
       22    1    1    2    0    0  0.48605410328E-02 -0.31503916812E-02  0.13640585175E-01  0.14819426129E-01  0.00000000000E+00 0.  1.
       22    1    1    2    0    0 -0.32538660719E-02 -0.22677820013E-02  0.20345166906E-01  0.20728152258E-01  0.00000000000E+00 0.  1.
       22    1    1    2    0    0 -0.16066749609E-02  0.54181736825E-02 -0.33985752081E-01  0.34452421613E-01  0.00000000000E+00 0. -1.
</event>
<event>
 5   0  0.6221259E+05  0.9118800E+02  0.7546771E-02  0.1180000E+00
      -11   -1    0    0    0    0  0.00000000000E+00  0.00000000000E+00  0.34996269501E-01  0.35000000000E-01  0.51099999109E-03 0. -1.
       11   -1    0    0    0    0 -0.00000000000E+00 -0.00000000000E+00 -0.34996269501E-01  0.35000000000E-01  0.51099999109E-03 0.  1.
       22    1    1    2    0    0 -0.17021470557E-02 -0.60714473380E-02  0.31865949400E-01  0.32483819180E-01  0.00000000000E+00 0. -1.
       22    1    1    2    0    0 -0.20839500105E-02  0.12859029023E-02 -0.31291394282E-01  0.31387063418E-01  0.00000000000E+00 0.  1.
       22    1    1    2    0    0  0.37860970662E-02  0.47855444357E-02 -0.57455511781E-03  0.61291174017E-02  0.00000000000E+00 0.  1.
</event>
<event>
 5   0  0.6221259E+05  0.9118800E+02  0.7546771E-02  0.1180000E+00
      -11   -1    0    0    0    0  0.00000000000E+00  0.00000000000E+00  0.34996269501E-01  0.35000000000E-01  0.51099999109E-03 0.  1.
       11   -1    0    0    0    0 -0.00000000000E+00 -0.00000000000E+00 -0.34996269501E-01  0.35000000000E-01  0.51099999109E-03 0.  1.
       22    1    1    2    0    0 -0.25773888447E-03 -0.24012506857E-03 -0.34998209342E-01  0.34999982094E-01  0.00000000000E+00 0.  1.
       22    1    1    2    0    0  0.25774162649E-03  0.24009452987E-03  0.34998214287E-01  0.34999986849E-01  0.00000000000E+00 0.  1.
       22    1    1    2    0    0 -0.27420249849E-08  0.30538699689E-07 -0.49446023938E-08  0.31057687817E-07  0.00000000000E+00 0.  1.
</event>
<event>
 5   0  0.6221259E+05  0.9118800E+02  0.7546771E-02  0.1180000E+00
      -11   -1    0    0    0    0  0.00000000000E+00  0.00000000000E+00  0.34996269501E-01  0.35000000000E-01  0.51099999109E-03 0.  1.
       11   -1    0    0    0    0 -0.00000000000E+00 -0.00000000000E+00 -0.34996269501E-01  0.35000000000E-01  0.51099999109E-03 0. -1.
       22    1    1    2    0    0 -0.91197084736E-02  0.14829782087E-01 -0.30362945752E-01  0.34999999916E-01  0.00000000000E+00 0. -1.
       22    1    1    2    0    0  0.91197084900E-02 -0.14829781506E-01  0.30362945487E-01  0.34999999445E-01  0.00000000000E+00 0.  1.
       22    1    1    2    0    0 -0.16394579833E-10 -0.58110000751E-09  0.26492849621E-09  0.63885296359E-09  0.00000000000E+00 0. -1.
</event>
<event>
 5   0  0.6221259E+05  0.9118800E+02  0.7546771E-02  0.1180000E+00
      -11   -1    0    0    0    0  0.00000000000E+00  0.00000000000E+00  0.34996269501E-01  0.35000000000E-01  0.51099999109E-03 0.  1.
       11   -1    0    0    0    0 -0.00000000000E+00 -0.00000000000E+00 -0.34996269501E-01  0.35000000000E-01  0.51099999109E-03 0. -1.
       22    1    1    2    0    0  0.24078715745E-01 -0.11070915940E-01  0.22204050525E-01  0.34574117362E-01  0.00000000000E+00 0.  1.
       22    1    1    2    0    0  0.37733812293E-04 -0.63706925643E-04 -0.21292294852E-02  0.21305165133E-02  0.00000000000E+00 0. -1.
       22    1    1    2    0    0 -0.24116449557E-01  0.11134622865E-01 -0.20074821040E-01  0.33295366125E-01  0.00000000000E+00 0. -1.
</event>
<event>
 5   0  0.6221259E+05  0.9118800E+02  0.7546771E-02  0.1180000E+00
      -11   -1    0    0    0    0  0.00000000000E+00  0.00000000000E+00  0.34996269501E-01  0.35000000000E-01  0.51099999109E-03 0.  1.
       11   -1    0    0    0    0 -0.00000000000E+00 -0.00000000000E+00 -0.34996269501E-01  0.35000000000E-01  0.51099999109E-03 0. -1.
       22    1    1    2    0    0 -0.60883692457E-03  0.49086172934E-02 -0.34648731805E-01  0.34999997454E-01  0.00000000000E+00 0. -1.
       22    1    1    2    0    0  0.60884171386E-03 -0.49086174016E-02  0.34648732005E-01  0.34999997751E-01  0.00000000000E+00 0.  1.
       22    1    1    2    0    0 -0.47892932935E-08  0.10820833359E-09 -0.20010822734E-09  0.47946931703E-08  0.00000000000E+00 0.  1.
</event>
<event>
 5   0  0.6221259E+05  0.9118800E+02  0.7546771E-02  0.1180000E+00
      -11   -1    0    0    0    0  0.00000000000E+00  0.00000000000E+00  0.34996269501E-01  0.35000000000E-01  0.51099999109E-03 0. -1.
       11   -1    0    0    0    0 -0.00000000000E+00 -0.00000000000E+00 -0.34996269501E-01  0.35000000000E-01  0.51099999109E-03 0.  1.
       22    1    1    2    0    0  0.24658195280E-05 -0.48543952873E-07  0.10090649334E-03  0.10093662873E-03  0.00000000000E+00 0. -1.
       22    1    1    2    0    0 -0.18113167190E-02  0.11806049596E-01  0.32794802454E-01  0.34902188231E-01  0.00000000000E+00 0. -1.
       22    1    1    2    0    0  0.18088508995E-02 -0.11806001052E-01 -0.32895708947E-01  0.34996875140E-01  0.00000000000E+00 0.  1.
</event>
<event>
 5   0  0.6221259E+05  0.9118800E+02  0.7546771E-02  0.1180000E+00
      -11   -1    0    0    0    0  0.00000000000E+00  0.00000000000E+00  0.34996269501E-01  0.35000000000E-01  0.51099999109E-03 0. -1.
       11   -1    0    0    0    0 -0.00000000000E+00 -0.00000000000E+00 -0.34996269501E-01  0.35000000000E-01  0.51099999109E-03 0.  1.
       22    1    1    2    0    0 -0.48802512462E-04 -0.41823157817E-04  0.43282732983E-04  0.77487139106E-04  0.00000000000E+00 0. -1.
       22    1    1    2    0    0  0.11117804544E-03 -0.32848982939E-02  0.34782849600E-01  0.34937795346E-01  0.00000000000E+00 0. -1.
       22    1    1    2    0    0 -0.62375532976E-04  0.33267214518E-02 -0.34826132333E-01  0.34984717515E-01  0.00000000000E+00 0.  1.
</event>
<event>
 5   0  0.6221259E+05  0.9118800E+02  0.7546771E-02  0.1180000E+00
      -11   -1    0    0    0    0  0.00000000000E+00  0.00000000000E+00  0.34996269501E-01  0.35000000000E-01  0.51099999109E-03 0.  1.
       11   -1    0    0    0    0 -0.00000000000E+00 -0.00000000000E+00 -0.34996269501E-01  0.35000000000E-01  0.51099999109E-03 0. -1.
       22    1    1    2    0    0  0.52071924352E-02  0.31773606869E-01  0.13722789986E-01  0.34999884450E-01  0.00000000000E+00 0. -1.
       22    1    1    2    0    0 -0.52071969594E-02 -0.31773610569E-01 -0.13722953024E-01  0.34999952407E-01  0.00000000000E+00 0.  1.
       22    1    1    2    0    0  0.45241924153E-08  0.36999596004E-08  0.16303860030E-06  0.16314332106E-06  0.00000000000E+00 0. -1.
</event>
<event>
 5   0  0.6221259E+05  0.9118800E+02  0.7546771E-02  0.1180000E+00
      -11   -1    0    0    0    0  0.00000000000E+00  0.00000000000E+00  0.34996269501E-01  0.35000000000E-01  0.51099999109E-03 0.  1.
       11   -1    0    0    0    0 -0.00000000000E+00 -0.00000000000E+00 -0.34996269501E-01  0.35000000000E-01  0.51099999109E-03 0. -1.
       22    1    1    2    0    0 -0.10372307851E-01 -0.28478158914E-01  0.16986634548E-01  0.34743863610E-01  0.00000000000E+00 0.  1.
       22    1    1    2    0    0  0.22770863767E-04  0.20456262999E-04  0.35798705947E-03  0.35929334210E-03  0.00000000000E+00 0. -1.
       22    1    1    2    0    0  0.10349536988E-01  0.28457702651E-01 -0.17344621607E-01  0.34896843048E-01  0.00000000000E+00 0. -1.
</event>
<event>
 5   0  0.6221259E+05  0.9118800E+02  0.7546771E-02  0.1180000E+00
      -11   -1    0    0    0    0  0.00000000000E+00  0.00000000000E+00  0.34996269501E-01  0.35000000000E-01  0.51099999109E-03 0. -1.
       11   -1    0    0    0    0 -0.00000000000E+00 -0.00000000000E+00 -0.34996269501E-01  0.35000000000E-01  0.51099999109E-03 0.  1.
       22    1    1    2    0    0 -0.31048005506E-07  0.44533546070E-07  0.31250168537E-06  0.31718215386E-06  0.00000000000E+00 0. -1.
       22    1    1    2    0    0 -0.31306703316E-03  0.35921305441E-03  0.34996441126E-01  0.34999684805E-01  0.00000000000E+00 0. -1.
       22    1    1    2    0    0  0.31309808116E-03 -0.35925758795E-03 -0.34996753628E-01  0.34999998013E-01  0.00000000000E+00 0.  1.
</event>
<event>
 5   0  0.6221259E+05  0.9118800E+02  0.7546771E-02  0.1180000E+00
      -11   -1    0    0    0    0  0.00000000000E+00  0.00000000000E+00  0.34996269501E-01  0.35000000000E-01  0.51099999109E-03 0.  1.
       11   -1    0    0    0    0 -0.00000000000E+00 -0.00000000000E+00 -0.34996269501E-01  0.35000000000E-01  0.51099999109E-03 0. -1.
       22    1    1    2    0    0 -0.99977926521E-05 -0.11111967516E-04  0.11123054549E-03  0.11223041446E-03  0.00000000000E+00 0. -1.
       22    1    1    2    0    0  0.26656428909E-01 -0.15489086927E-01  0.16397040188E-01  0.34919048425E-01  0.00000000000E+00 0.  1.
       22    1    1    2    0    0 -0.26646431116E-01  0.15500198894E-01 -0.16508270733E-01  0.34968721160E-01  0.00000000000E+00 0. -1.
</event>
<event>
 5   0  0.6221259E+05  0.9118800E+02  0.7546771E-02  0.1180000E+00
      -11   -1    0    0    0    0  0.00000000000E+00  0.00000000000E+00  0.34996269501E-01  0.35000000000E-01  0.51099999109E-03 0. -1.
       11   -1    0    0    0    0 -0.00000000000E+00 -0.00000000000E+00 -0.34996269501E-01  0.35000000000E-01  0.51099999109E-03 0.  1.
       22    1    1    2    0    0  0.20195239952E-08 -0.39458247990E-09  0.13342689708E-07  0.13500427443E-07  0.00000000000E+00 0. -1.
       22    1    1    2    0    0 -0.19058925011E-03  0.99317678523E-03  0.34985373188E-01  0.34999986592E-01  0.00000000000E+00 0. -1.
       22    1    1    2    0    0  0.19058723058E-03 -0.99317639065E-03 -0.34985386530E-01  0.34999999907E-01  0.00000000000E+00 0.  1.
</event>
<event>
 5   0  0.6221259E+05  0.9118800E+02  0.7546771E-02  0.1180000E+00
      -11   -1    0    0    0    0  0.00000000000E+00  0.00000000000E+00  0.34996269501E-01  0.35000000000E-01  0.51099999109E-03 0. -1.
       11   -1    0    0    0    0 -0.00000000000E+00 -0.00000000000E+00 -0.34996269501E-01  0.35000000000E-01  0.51099999109E-03 0.  1.
       22    1    1    2    0    0 -0.40146048404E-03 -0.52332491430E-03 -0.34993784505E-01  0.34999999907E-01  0.00000000000E+00 0.  1.
       22    1    1    2    0    0 -0.21556241792E-09  0.35287091235E-09  0.35603147198E-09  0.54565872654E-09  0.00000000000E+00 0. -1.
       22    1    1    2    0    0  0.40146069960E-03  0.52332456143E-03  0.34993784149E-01  0.34999999548E-01  0.00000000000E+00 0. -1.
</event>
<event>
 5   0  0.6221259E+05  0.9118800E+02  0.7546771E-02  0.1180000E+00
      -11   -1    0    0    0    0  0.00000000000E+00  0.00000000000E+00  0.34996269501E-01  0.35000000000E-01  0.51099999109E-03 0. -1.
       11   -1    0    0    0    0 -0.00000000000E+00 -0.00000000000E+00 -0.34996269501E-01  0.35000000000E-01  0.51099999109E-03 0.  1.
       22    1    1    2    0    0  0.10452827879E-02 -0.74487116037E-03  0.34976328318E-01  0.34999871310E-01  0.00000000000E+00 0. -1.
       22    1    1    2    0    0  0.18765769971E-07  0.37902493482E-07  0.12538432889E-06  0.13232529262E-06  0.00000000000E+00 0. -1.
       22    1    1    2    0    0 -0.10453015537E-02  0.74483325788E-03 -0.34976453702E-01  0.34999996364E-01  0.00000000000E+00 0.  1.
</event>
<event>
 5   0  0.6221259E+05  0.9118800E+02  0.7546771E-02  0.1180000E+00
      -11   -1    0    0    0    0  0.00000000000E+00  0.00000000000E+00  0.34996269501E-01  0.35000000000E-01  0.51099999109E-03 0.  1.
       11   -1    0    0    0    0 -0.00000000000E+00 -0.00000000000E+00 -0.34996269501E-01  0.35000000000E-01  0.51099999109E-03 0. -1.
       22    1    1    2    0    0 -0.72325335207E-03 -0.34744366697E-02  0.19332670322E-01  0.19655710299E-01  0.00000000000E+00 0. -1.
       22    1    1    2    0    0 -0.40152886465E-03 -0.57904796267E-02 -0.33158801456E-01  0.33662991456E-01  0.00000000000E+00 0. -1.
       22    1    1    2    0    0  0.11247822167E-02  0.92649162964E-02  0.13826131134E-01  0.16681298245E-01  0.00000000000E+00 0.  1.
</event>
<event>
 5   0  0.6221259E+05  0.9118800E+02  0.7546771E-02  0.1180000E+00
      -11   -1    0    0    0    0  0.00000000000E+00  0.00000000000E+00  0.34996269501E-01  0.35000000000E-01  0.51099999109E-03 0. -1.
       11   -1    0    0    0    0 -0.00000000000E+00 -0.00000000000E+00 -0.34996269501E-01  0.35000000000E-01  0.51099999109E-03 0.  1.
       22    1    1    2    0    0  0.24348685478E-02 -0.16125633779E-02 -0.34877944961E-01  0.34999999859E-01  0.00000000000E+00 0.  1.
       22    1    1    2    0    0 -0.24348674228E-02  0.16125632770E-02  0.34877943360E-01  0.34999998181E-01  0.00000000000E+00 0. -1.
       22    1    1    2    0    0 -0.11249958681E-08  0.10087325077E-09  0.16007841986E-08  0.19591582801E-08  0.00000000000E+00 0. -1.
</event>
<event>
 5   0  0.6221259E+05  0.9118800E+02  0.7546771E-02  0.1180000E+00
      -11   -1    0    0    0    0  0.00000000000E+00  0.00000000000E+00  0.34996269501E-01  0.35000000000E-01  0.51099999109E-03 0. -1.
       11   -1    0    0    0    0 -0.00000000000E+00 -0.00000000000E+00 -0.34996269501E-01  0.35000000000E-01  0.51099999109E-03 0.  1.
       22    1    1    2    0    0 -0.15275910665E-02 -0.37721633783E-03  0.34958849757E-01  0.34994242426E-01  0.00000000000E+00 0. -1.
       22    1    1    2    0    0 -0.65782752406E-06  0.35362468378E-05  0.52037461821E-05  0.63258796287E-05  0.00000000000E+00 0.  1.
       22    1    1    2    0    0  0.15282488940E-02  0.37368009100E-03 -0.34964053504E-01  0.34999431694E-01  0.00000000000E+00 0.  1.
</event>
<event>
 5   0  0.6221259E+05  0.9118800E+02  0.7546771E-02  0.1180000E+00
      -11   -1    0    0    0    0  0.00000000000E+00  0.00000000000E+00  0.34996269501E-01  0.35000000000E-01  0.51099999109E-03 0. -1.
       11   -1    0    0    0    0 -0.00000000000E+00 -0.00000000000E+00 -0.34996269501E-01  0.35000000000E-01  0.51099999109E-03 0.  1.
       22    1    1    2    0    0  0.12504716175E-02 -0.10813295267E-02 -0.34960924619E-01  0.34999988615E-01  0.00000000000E+00 0.  1.
       22    1    1    2    0    0 -0.12503829464E-02  0.10816374749E-02  0.34950723264E-01  0.34989804998E-01  0.00000000000E+00 0. -1.
       22    1    1    2    0    0 -0.88671074975E-07 -0.30794818461E-06  0.10201355435E-04  0.10206387576E-04  0.00000000000E+00 0.  1.
</event>
<event>
 5   0  0.6221259E+05  0.9118800E+02  0.7546771E-02  0.1180000E+00
      -11   -1    0    0    0    0  0.00000000000E+00  0.00000000000E+00  0.34996269501E-01  0.35000000000E-01  0.51099999109E-03 0.  1.
       11   -1    0    0    0    0 -0.00000000000E+00 -0.00000000000E+00 -0.34996269501E-01  0.35000000000E-01  0.51099999109E-03 0. -1.
       22    1    1    2    0    0 -0.13407966623E-01 -0.15360756703E-01 -0.26455462649E-01  0.33400867046E-01  0.00000000000E+00 0. -1.
       22    1    1    2    0    0 -0.16338736889E-03  0.18356775546E-04 -0.17405076014E-02  0.17482560207E-02  0.00000000000E+00 0.  1.
       22    1    1    2    0    0  0.13571353992E-01  0.15342399927E-01  0.28195970250E-01  0.34850876934E-01  0.00000000000E+00 0.  1.
</event>
<event>
 5   0  0.6221259E+05  0.9118800E+02  0.7546771E-02  0.1180000E+00
      -11   -1    0    0    0    0  0.00000000000E+00  0.00000000000E+00  0.34996269501E-01  0.35000000000E-01  0.51099999109E-03 0.  1.
       11   -1    0    0    0    0 -0.00000000000E+00 -0.00000000000E+00 -0.34996269501E-01  0.35000000000E-01  0.51099999109E-03 0.  1.
       22    1    1    2    0    0 -0.65351584366E-04  0.13850335883E-03 -0.34999664932E-01  0.34999999991E-01  0.00000000000E+00 0.  1.
       22    1    1    2    0    0 -0.11889879319E-08  0.42835957781E-10  0.46749773166E-07  0.46764910118E-07  0.00000000000E+00 0.  1.
       22    1    1    2    0    0  0.65352773354E-04 -0.13850340167E-03  0.34999618182E-01  0.34999953244E-01  0.00000000000E+00 0.  1.
</event>
<event>
 5   0  0.6221259E+05  0.9118800E+02  0.7546771E-02  0.1180000E+00
      -11   -1    0    0    0    0  0.00000000000E+00  0.00000000000E+00  0.34996269501E-01  0.35000000000E-01  0.51099999109E-03 0.  1.
       11   -1    0    0    0    0 -0.00000000000E+00 -0.00000000000E+00 -0.34996269501E-01  0.35000000000E-01  0.51099999109E-03 0.  1.
       22    1    1    2    0    0  0.26034935212E-03  0.17862492159E-03 -0.90426055276E-03  0.95779736638E-03  0.00000000000E+00 0. -1.
       22    1    1    2    0    0  0.00000000000E+00  0.00000000000E+00  0.34973362323E-01  0.34971637859E-01  0.00000000000E+00 0.  1.
       22    1    1    2    0    0 -0.26034935212E-03 -0.17862492159E-03 -0.34069101770E-01  0.34070564775E-01  0.00000000000E+00 0.  1.
</event>
<event>
 5   0  0.6221259E+05  0.9118800E+02  0.7546771E-02  0.1180000E+00
      -11   -1    0    0    0    0  0.00000000000E+00  0.00000000000E+00  0.34996269501E-01  0.35000000000E-01  0.51099999109E-03 0. -1.
       11   -1    0    0    0    0 -0.00000000000E+00 -0.00000000000E+00 -0.34996269501E-01  0.35000000000E-01  0.51099999109E-03 0.  1.
       22    1    1    2    0    0  0.37935586595E-02 -0.11647671260E-02 -0.76737649451E-02  0.86391225361E-02  0.00000000000E+00 0.  1.
       22    1    1    2    0    0  0.35576459452E-02  0.45361311367E-02  0.33657500418E-01  0.34147630441E-01  0.00000000000E+00 0. -1.
       22    1    1    2    0    0 -0.73512046047E-02 -0.33713640107E-02 -0.25983735473E-01  0.27213247023E-01  0.00000000000E+00 0.  1.
</event>
<event>
 5   0  0.6221259E+05  0.9118800E+02  0.7546771E-02  0.1180000E+00
      -11   -1    0    0    0    0  0.00000000000E+00  0.00000000000E+00  0.34996269501E-01  0.35000000000E-01  0.51099999109E-03 0. -1.
       11   -1    0    0    0    0 -0.00000000000E+00 -0.00000000000E+00 -0.34996269501E-01  0.35000000000E-01  0.51099999109E-03 0.  1.
       22    1    1    2    0    0 -0.12643195739E-04 -0.13702471058E-04 -0.12436763577E-02  0.12438161001E-02  0.00000000000E+00 0. -1.
       22    1    1    2    0    0 -0.31220322754E-01 -0.11468728118E-01 -0.80211481940E-02  0.34213726717E-01  0.00000000000E+00 0.  1.
       22    1    1    2    0    0  0.31232965950E-01  0.11482430590E-01  0.92648245518E-02  0.34542457183E-01  0.00000000000E+00 0. -1.
</event>
<event>
 5   0  0.6221259E+05  0.9118800E+02  0.7546771E-02  0.1180000E+00
      -11   -1    0    0    0    0  0.00000000000E+00  0.00000000000E+00  0.34996269501E-01  0.35000000000E-01  0.51099999109E-03 0. -1.
       11   -1    0    0    0    0 -0.00000000000E+00 -0.00000000000E+00 -0.34996269501E-01  0.35000000000E-01  0.51099999109E-03 0.  1.
       22    1    1    2    0    0  0.73244441803E-02  0.38572612466E-02  0.16206625787E-01  0.18198369880E-01  0.00000000000E+00 0. -1.
       22    1    1    2    0    0 -0.67410360285E-02 -0.26321551298E-02 -0.33592366778E-01  0.34363016647E-01  0.00000000000E+00 0.  1.
       22    1    1    2    0    0 -0.58340815174E-03 -0.12251061168E-02  0.17385740991E-01  0.17438613473E-01  0.00000000000E+00 0.  1.
</event>
<event>
 5   0  0.6221259E+05  0.9118800E+02  0.7546771E-02  0.1180000E+00
      -11   -1    0    0    0    0  0.00000000000E+00  0.00000000000E+00  0.34996269501E-01  0.35000000000E-01  0.51099999109E-03 0. -1.
       11   -1    0    0    0    0 -0.00000000000E+00 -0.00000000000E+00 -0.34996269501E-01  0.35000000000E-01  0.51099999109E-03 0.  1.
       22    1    1    2    0    0 -0.19818192479E-03  0.60116609151E-03  0.30717895552E-01  0.30724416738E-01  0.00000000000E+00 0. -1.
       22    1    1    2    0    0  0.28496485745E-03 -0.66802305523E-03 -0.34992269603E-01  0.34999805595E-01  0.00000000000E+00 0.  1.
       22    1    1    2    0    0 -0.86782932660E-04  0.66856963713E-04  0.42743740505E-02  0.42757776667E-02  0.00000000000E+00 0.  1.
</event>
<event>
 5   0  0.6221259E+05  0.9118800E+02  0.7546771E-02  0.1180000E+00
      -11   -1    0    0    0    0  0.00000000000E+00  0.00000000000E+00  0.34996269501E-01  0.35000000000E-01  0.51099999109E-03 0. -1.
       11   -1    0    0    0    0 -0.00000000000E+00 -0.00000000000E+00 -0.34996269501E-01  0.35000000000E-01  0.51099999109E-03 0.  1.
       22    1    1    2    0    0  0.17317047209E-02 -0.35739732353E-03  0.34913373759E-01  0.34958120677E-01  0.00000000000E+00 0. -1.
       22    1    1    2    0    0  0.33199427245E-06 -0.73875497155E-05  0.41532945069E-04  0.42186154566E-04  0.00000000000E+00 0. -1.
       22    1    1    2    0    0 -0.17320367152E-02  0.36478487325E-03 -0.34954906704E-01  0.34999693168E-01  0.00000000000E+00 0.  1.
</event>
<event>
 5   0  0.6221259E+05  0.9118800E+02  0.7546771E-02  0.1180000E+00
      -11   -1    0    0    0    0  0.00000000000E+00  0.00000000000E+00  0.34996269501E-01  0.35000000000E-01  0.51099999109E-03 0. -1.
       11   -1    0    0    0    0 -0.00000000000E+00 -0.00000000000E+00 -0.34996269501E-01  0.35000000000E-01  0.51099999109E-03 0.  1.
       22    1    1    2    0    0 -0.21544671591E-01 -0.12984085218E-01 -0.23914801833E-01  0.34708458474E-01  0.00000000000E+00 0.  1.
       22    1    1    2    0    0  0.21550292055E-01  0.12984213662E-01  0.24257392155E-01  0.34948905079E-01  0.00000000000E+00 0. -1.
       22    1    1    2    0    0 -0.56204640400E-05 -0.12844438290E-06 -0.34259032200E-03  0.34263644704E-03  0.00000000000E+00 0.  1.
</event>
<event>
 5   0  0.6221259E+05  0.9118800E+02  0.7546771E-02  0.1180000E+00
      -11   -1    0    0    0    0  0.00000000000E+00  0.00000000000E+00  0.34996269501E-01  0.35000000000E-01  0.51099999109E-03 0.  1.
       11   -1    0    0    0    0 -0.00000000000E+00 -0.00000000000E+00 -0.34996269501E-01  0.35000000000E-01  0.51099999109E-03 0. -1.
       22    1    1    2    0    0  0.20684742490E-02  0.53029105999E-02 -0.34534048556E-01  0.34999999374E-01  0.00000000000E+00 0. -1.
       22    1    1    2    0    0 -0.20684654538E-02 -0.53029126065E-02  0.34533994835E-01  0.34999946153E-01  0.00000000000E+00 0.  1.
       22    1    1    2    0    0 -0.87952394039E-08  0.20066532920E-08  0.53720341654E-07  0.54472543552E-07  0.00000000000E+00 0.  1.
</event>
<event>
 5   0  0.6221259E+05  0.9118800E+02  0.7546771E-02  0.1180000E+00
      -11   -1    0    0    0    0  0.00000000000E+00  0.00000000000E+00  0.34996269501E-01  0.35000000000E-01  0.51099999109E-03 0.  1.
       11   -1    0    0    0    0 -0.00000000000E+00 -0.00000000000E+00 -0.34996269501E-01  0.35000000000E-01  0.51099999109E-03 0. -1.
       22    1    1    2    0    0  0.36727256569E-08  0.33417793069E-08  0.50587641049E-07  0.50830756729E-07  0.00000000000E+00 0. -1.
       22    1    1    2    0    0 -0.45320116771E-02 -0.94260500505E-02 -0.33400754622E-01  0.34999999410E-01  0.00000000000E+00 0. -1.
       22    1    1    2    0    0  0.45320080044E-02  0.94260467087E-02  0.33400704035E-01  0.34999949759E-01  0.00000000000E+00 0.  1.
</event>
<event>
 5   0  0.6221259E+05  0.9118800E+02  0.7546771E-02  0.1180000E+00
      -11   -1    0    0    0    0  0.00000000000E+00  0.00000000000E+00  0.34996269501E-01  0.35000000000E-01  0.51099999109E-03 0. -1.
       11   -1    0    0    0    0 -0.00000000000E+00 -0.00000000000E+00 -0.34996269501E-01  0.35000000000E-01  0.51099999109E-03 0.  1.
       22    1    1    2    0    0 -0.49849114797E-04  0.12983715202E-03  0.34548788457E-01  0.34549068388E-01  0.00000000000E+00 0. -1.
       22    1    1    2    0    0  0.43027350017E-03  0.24102341296E-04  0.34665838493E-03  0.55307164423E-03  0.00000000000E+00 0. -1.
       22    1    1    2    0    0 -0.38042438537E-03 -0.15393949331E-03 -0.34895446842E-01  0.34897859968E-01  0.00000000000E+00 0.  1.
</event>
<event>
 5   0  0.6221259E+05  0.9118800E+02  0.7546771E-02  0.1180000E+00
      -11   -1    0    0    0    0  0.00000000000E+00  0.00000000000E+00  0.34996269501E-01  0.35000000000E-01  0.51099999109E-03 0.  1.
       11   -1    0    0    0    0 -0.00000000000E+00 -0.00000000000E+00 -0.34996269501E-01  0.35000000000E-01  0.51099999109E-03 0. -1.
       22    1    1    2    0    0  0.11082809734E-02 -0.23208795148E-03  0.34852151067E-01  0.34870540367E-01  0.00000000000E+00 0.  1.
       22    1    1    2    0    0 -0.11051414900E-02  0.23193182755E-03 -0.34981675811E-01  0.34999896752E-01  0.00000000000E+00 0. -1.
       22    1    1    2    0    0 -0.31394834075E-05  0.15612392661E-06  0.12952474426E-03  0.12956288090E-03  0.00000000000E+00 0.  1.
</event>
<event>
 5   0  0.6221259E+05  0.9118800E+02  0.7546771E-02  0.1180000E+00
      -11   -1    0    0    0    0  0.00000000000E+00  0.00000000000E+00  0.34996269501E-01  0.35000000000E-01  0.51099999109E-03 0.  1.
       11   -1    0    0    0    0 -0.00000000000E+00 -0.00000000000E+00 -0.34996269501E-01  0.35000000000E-01  0.51099999109E-03 0.  1.
       22    1    1    2    0    0 -0.91577642842E-03  0.64748061217E-03  0.32644977214E-01  0.32664237553E-01  0.00000000000E+00 0.  1.
       22    1    1    2    0    0  0.15676113574E-02  0.53492048572E-03 -0.34774697280E-01  0.34814122367E-01  0.00000000000E+00 0.  1.
       22    1    1    2    0    0 -0.65183492898E-03 -0.11824010979E-02  0.21297200659E-02  0.25216400794E-02  0.00000000000E+00 0. -1.
</event>
<event>
 5   0  0.6221259E+05  0.9118800E+02  0.7546771E-02  0.1180000E+00
      -11   -1    0    0    0    0  0.00000000000E+00  0.00000000000E+00  0.34996269501E-01  0.35000000000E-01  0.51099999109E-03 0. -1.
       11   -1    0    0    0    0 -0.00000000000E+00 -0.00000000000E+00 -0.34996269501E-01  0.35000000000E-01  0.51099999109E-03 0.  1.
       22    1    1    2    0    0 -0.42199097695E-03  0.54175128333E-03 -0.34993222110E-01  0.34999959492E-01  0.00000000000E+00 0.  1.
       22    1    1    2    0    0  0.42296865422E-03 -0.53857618749E-03  0.34942401751E-01  0.34949111676E-01  0.00000000000E+00 0. -1.
       22    1    1    2    0    0 -0.97767726892E-06 -0.31750958475E-05  0.50820358808E-04  0.50928832265E-04  0.00000000000E+00 0.  1.
</event>
<event>
 5   0  0.6221259E+05  0.9118800E+02  0.7546771E-02  0.1180000E+00
      -11   -1    0    0    0    0  0.00000000000E+00  0.00000000000E+00  0.34996269501E-01  0.35000000000E-01  0.51099999109E-03 0. -1.
       11   -1    0    0    0    0 -0.00000000000E+00 -0.00000000000E+00 -0.34996269501E-01  0.35000000000E-01  0.51099999109E-03 0.  1.
       22    1    1    2    0    0 -0.21319235449E-04  0.59594004186E-03  0.99130623261E-04  0.60450469292E-03  0.00000000000E+00 0.  1.
       22    1    1    2    0    0 -0.83260519792E-02  0.36555183926E-02 -0.33496712153E-01  0.34709014410E-01  0.00000000000E+00 0.  1.
       22    1    1    2    0    0  0.83473712146E-02 -0.42514584345E-02  0.33397581529E-01  0.34686480897E-01  0.00000000000E+00 0. -1.
</event>
<event>
 5   0  0.6221259E+05  0.9118800E+02  0.7546771E-02  0.1180000E+00
      -11   -1    0    0    0    0  0.00000000000E+00  0.00000000000E+00  0.34996269501E-01  0.35000000000E-01  0.51099999109E-03 0.  1.
       11   -1    0    0    0    0 -0.00000000000E+00 -0.00000000000E+00 -0.34996269501E-01  0.35000000000E-01  0.51099999109E-03 0.  1.
       22    1    1    2    0    0 -0.28306831262E-02  0.66240975395E-03 -0.16779561873E-01  0.17029540519E-01  0.00000000000E+00 0.  1.
       22    1    1    2    0    0  0.28306831262E-02 -0.66240975395E-03 -0.17980138007E-01  0.18213646433E-01  0.00000000000E+00 0. -1.
       22    1    1    2    0    0  0.00000000000E+00 -0.00000000000E+00  0.34759699879E-01  0.34756813048E-01  0.00000000000E+00 0.  1.
</event>
<event>
 5   0  0.6221259E+05  0.9118800E+02  0.7546771E-02  0.1180000E+00
      -11   -1    0    0    0    0  0.00000000000E+00  0.00000000000E+00  0.34996269501E-01  0.35000000000E-01  0.51099999109E-03 0.  1.
       11   -1    0    0    0    0 -0.00000000000E+00 -0.00000000000E+00 -0.34996269501E-01  0.35000000000E-01  0.51099999109E-03 0. -1.
       22    1    1    2    0    0 -0.16570151726E-08 -0.14291264203E-06  0.71326263680E-05  0.71340581491E-05  0.00000000000E+00 0.  1.
       22    1    1    2    0    0 -0.17703919849E-02 -0.28591745030E-04  0.34948046072E-01  0.34992871125E-01  0.00000000000E+00 0.  1.
       22    1    1    2    0    0  0.17703936419E-02  0.28734657672E-04 -0.34955178699E-01  0.34999994817E-01  0.00000000000E+00 0. -1.
</event>
<event>
 5   0  0.6221259E+05  0.9118800E+02  0.7546771E-02  0.1180000E+00
      -11   -1    0    0    0    0  0.00000000000E+00  0.00000000000E+00  0.34996269501E-01  0.35000000000E-01  0.51099999109E-03 0. -1.
       11   -1    0    0    0    0 -0.00000000000E+00 -0.00000000000E+00 -0.34996269501E-01  0.35000000000E-01  0.51099999109E-03 0.  1.
       22    1    1    2    0    0 -0.55866975084E-03 -0.90939039700E-03  0.47669410549E-02  0.48849595500E-02  0.00000000000E+00 0.  1.
       22    1    1    2    0    0 -0.17340379661E-02 -0.51914184367E-02 -0.34369977033E-01  0.34803060703E-01  0.00000000000E+00 0.  1.
       22    1    1    2    0    0  0.22927077170E-02  0.61008088337E-02  0.29603035978E-01  0.30311979747E-01  0.00000000000E+00 0. -1.
</event>
<event>
 5   0  0.6221259E+05  0.9118800E+02  0.7546771E-02  0.1180000E+00
      -11   -1    0    0    0    0  0.00000000000E+00  0.00000000000E+00  0.34996269501E-01  0.35000000000E-01  0.51099999109E-03 0. -1.
       11   -1    0    0    0    0 -0.00000000000E+00 -0.00000000000E+00 -0.34996269501E-01  0.35000000000E-01  0.51099999109E-03 0. -1.
       22    1    1    2    0    0  0.20704391090E-11  0.20101841591E-10 -0.35002095060E-01  0.34999972561E-01  0.00000000000E+00 0. -1.
       22    1    1    2    0    0  0.24758796763E-07  0.24038253930E-06  0.50432298852E-06  0.55923022090E-06  0.00000000000E+00 0.  1.
       22    1    1    2    0    0 -0.24760867202E-07 -0.24040264115E-06  0.35001590737E-01  0.34999468209E-01  0.00000000000E+00 0. -1.
</event>
<event>
 5   0  0.6221259E+05  0.9118800E+02  0.7546771E-02  0.1180000E+00
      -11   -1    0    0    0    0  0.00000000000E+00  0.00000000000E+00  0.34996269501E-01  0.35000000000E-01  0.51099999109E-03 0.  1.
       11   -1    0    0    0    0 -0.00000000000E+00 -0.00000000000E+00 -0.34996269501E-01  0.35000000000E-01  0.51099999109E-03 0. -1.
       22    1    1    2    0    0  0.24279943361E-05  0.80733302997E-06 -0.38862743666E-06  0.25880445131E-05  0.00000000000E+00 0. -1.
       22    1    1    2    0    0  0.18900757123E-02  0.73558455712E-03  0.34940010613E-01  0.34998825873E-01  0.00000000000E+00 0.  1.
       22    1    1    2    0    0 -0.18925037066E-02 -0.73639189015E-03 -0.34939621986E-01  0.34998586083E-01  0.00000000000E+00 0. -1.
</event>
<event>
 5   0  0.6221259E+05  0.9118800E+02  0.7546771E-02  0.1180000E+00
      -11   -1    0    0    0    0  0.00000000000E+00  0.00000000000E+00  0.34996269501E-01  0.35000000000E-01  0.51099999109E-03 0.  1.
       11   -1    0    0    0    0 -0.00000000000E+00 -0.00000000000E+00 -0.34996269501E-01  0.35000000000E-01  0.51099999109E-03 0. -1.
       22    1    1    2    0    0 -0.71066182097E-02  0.16143159889E-01 -0.30226888440E-01  0.34996720109E-01  0.00000000000E+00 0. -1.
       22    1    1    2    0    0  0.27295270881E-05 -0.21464696007E-05  0.58631039422E-04  0.58733775918E-04  0.00000000000E+00 0.  1.
       22    1    1    2    0    0  0.71038886826E-02 -0.16141013420E-01  0.30168257401E-01  0.34944546116E-01  0.00000000000E+00 0.  1.
</event>
<event>
 5   0  0.6221259E+05  0.9118800E+02  0.7546771E-02  0.1180000E+00
      -11   -1    0    0    0    0  0.00000000000E+00  0.00000000000E+00  0.34996269501E-01  0.35000000000E-01  0.51099999109E-03 0. -1.
       11   -1    0    0    0    0 -0.00000000000E+00 -0.00000000000E+00 -0.34996269501E-01  0.35000000000E-01  0.51099999109E-03 0. -1.
       22    1    1    2    0    0 -0.77567095770E-07  0.35897683040E-06  0.34986475260E-01  0.34983868384E-01  0.00000000000E+00 0. -1.
       22    1    1    2    0    0  0.77560071295E-07 -0.35894432147E-06  0.16128926359E-04  0.16133106399E-04  0.00000000000E+00 0. -1.
       22    1    1    2    0    0  0.70244748441E-11 -0.32508935519E-10 -0.35002604187E-01  0.34999998510E-01  0.00000000000E+00 0. -1.
</event>
<event>
 5   0  0.6221259E+05  0.9118800E+02  0.7546771E-02  0.1180000E+00
      -11   -1    0    0    0    0  0.00000000000E+00  0.00000000000E+00  0.34996269501E-01  0.35000000000E-01  0.51099999109E-03 0. -1.
       11   -1    0    0    0    0 -0.00000000000E+00 -0.00000000000E+00 -0.34996269501E-01  0.35000000000E-01  0.51099999109E-03 0. -1.
       22    1    1    2    0    0  0.39458138908E-09  0.39207453003E-09 -0.35001238203E-01  0.34999860423E-01  0.00000000000E+00 0. -1.
       22    1    1    2    0    0 -0.53910825009E-05 -0.53568318131E-05  0.34899114032E-01  0.34897733049E-01  0.00000000000E+00 0. -1.
       22    1    1    2    0    0  0.53906879196E-05  0.53564397386E-05  0.10212417006E-03  0.10240652847E-03  0.00000000000E+00 0.  1.
</event>
<event>
 5   0  0.6221259E+05  0.9118800E+02  0.7546771E-02  0.1180000E+00
      -11   -1    0    0    0    0  0.00000000000E+00  0.00000000000E+00  0.34996269501E-01  0.35000000000E-01  0.51099999109E-03 0.  1.
       11   -1    0    0    0    0 -0.00000000000E+00 -0.00000000000E+00 -0.34996269501E-01  0.35000000000E-01  0.51099999109E-03 0. -1.
       22    1    1    2    0    0 -0.55487453333E-03 -0.84456788234E-03  0.34841266224E-01  0.34855917901E-01  0.00000000000E+00 0.  1.
       22    1    1    2    0    0 -0.75114819396E-03 -0.29279540755E-04 -0.92725276334E-03  0.11936827836E-02  0.00000000000E+00 0.  1.
       22    1    1    2    0    0  0.13060227273E-02  0.87384742310E-03 -0.33914013460E-01  0.33950399315E-01  0.00000000000E+00 0. -1.
</event>
<event>
 5   0  0.6221259E+05  0.9118800E+02  0.7546771E-02  0.1180000E+00
      -11   -1    0    0    0    0  0.00000000000E+00  0.00000000000E+00  0.34996269501E-01  0.35000000000E-01  0.51099999109E-03 0. -1.
       11   -1    0    0    0    0 -0.00000000000E+00 -0.00000000000E+00 -0.34996269501E-01  0.35000000000E-01  0.51099999109E-03 0.  1.
       22    1    1    2    0    0 -0.43395996221E-02 -0.16467213806E-01 -0.30577439339E-01  0.34999729312E-01  0.00000000000E+00 0.  1.
       22    1    1    2    0    0  0.43396618280E-02  0.16467108667E-01  0.30572837583E-01  0.34995667311E-01  0.00000000000E+00 0. -1.
       22    1    1    2    0    0 -0.62205872456E-07  0.10513898310E-06  0.46017558460E-05  0.46033770910E-05  0.00000000000E+00 0.  1.
</event>
<event>
 5   0  0.6221259E+05  0.9118800E+02  0.7546771E-02  0.1180000E+00
      -11   -1    0    0    0    0  0.00000000000E+00  0.00000000000E+00  0.34996269501E-01  0.35000000000E-01  0.51099999109E-03 0. -1.
       11   -1    0    0    0    0 -0.00000000000E+00 -0.00000000000E+00 -0.34996269501E-01  0.35000000000E-01  0.51099999109E-03 0.  1.
       22    1    1    2    0    0  0.24544594487E-06 -0.36434187819E-06  0.64323117652E-05  0.64472958176E-05  0.00000000000E+00 0. -1.
       22    1    1    2    0    0 -0.20056601221E-03  0.53180685689E-02  0.34586583805E-01  0.34993625981E-01  0.00000000000E+00 0. -1.
       22    1    1    2    0    0  0.20032056627E-03 -0.53177042270E-02 -0.34593016117E-01  0.34999926723E-01  0.00000000000E+00 0.  1.
</event>
<event>
 5   0  0.6221259E+05  0.9118800E+02  0.7546771E-02  0.1180000E+00
      -11   -1    0    0    0    0  0.00000000000E+00  0.00000000000E+00  0.34996269501E-01  0.35000000000E-01  0.51099999109E-03 0.  1.
       11   -1    0    0    0    0 -0.00000000000E+00 -0.00000000000E+00 -0.34996269501E-01  0.35000000000E-01  0.51099999109E-03 0. -1.
       22    1    1    2    0    0 -0.48023148742E-06  0.77490775892E-06  0.55875433229E-04  0.55882869852E-04  0.00000000000E+00 0.  1.
       22    1    1    2    0    0 -0.24364851972E-02 -0.11879281281E-03 -0.34914800937E-01  0.34999912804E-01  0.00000000000E+00 0. -1.
       22    1    1    2    0    0  0.24369654287E-02  0.11801790505E-03  0.34858925503E-01  0.34944204326E-01  0.00000000000E+00 0.  1.
</event>
<event>
 5   0  0.6221259E+05  0.9118800E+02  0.7546771E-02  0.1180000E+00
      -11   -1    0    0    0    0  0.00000000000E+00  0.00000000000E+00  0.34996269501E-01  0.35000000000E-01  0.51099999109E-03 0. -1.
       11   -1    0    0    0    0 -0.00000000000E+00 -0.00000000000E+00 -0.34996269501E-01  0.35000000000E-01  0.51099999109E-03 0.  1.
       22    1    1    2    0    0  0.12313074617E-09  0.65446405160E-09  0.49937253149E-08  0.50379337924E-08  0.00000000000E+00 0.  1.
       22    1    1    2    0    0  0.31168137572E-01  0.11792127565E-01  0.10700125536E-01  0.34999996553E-01  0.00000000000E+00 0.  1.
       22    1    1    2    0    0 -0.31168137695E-01 -0.11792128219E-01 -0.10700130530E-01  0.34999998409E-01  0.00000000000E+00 0. -1.
</event>
<event>
 5   0  0.6221259E+05  0.9118800E+02  0.7546771E-02  0.1180000E+00
      -11   -1    0    0    0    0  0.00000000000E+00  0.00000000000E+00  0.34996269501E-01  0.35000000000E-01  0.51099999109E-03 0. -1.
       11   -1    0    0    0    0 -0.00000000000E+00 -0.00000000000E+00 -0.34996269501E-01  0.35000000000E-01  0.51099999109E-03 0.  1.
       22    1    1    2    0    0  0.19577050080E-07 -0.28805342506E-07  0.42056670735E-06  0.42200635537E-06  0.00000000000E+00 0.  1.
       22    1    1    2    0    0  0.23021166125E-02  0.47112838900E-02  0.34604549269E-01  0.34999582382E-01  0.00000000000E+00 0. -1.
       22    1    1    2    0    0 -0.23021361895E-02 -0.47112550846E-02 -0.34604969836E-01  0.34999995612E-01  0.00000000000E+00 0.  1.
</event>
<event>
 5   0  0.6221259E+05  0.9118800E+02  0.7546771E-02  0.1180000E+00
      -11   -1    0    0    0    0  0.00000000000E+00  0.00000000000E+00  0.34996269501E-01  0.35000000000E-01  0.51099999109E-03 0.  1.
       11   -1    0    0    0    0 -0.00000000000E+00 -0.00000000000E+00 -0.34996269501E-01  0.35000000000E-01  0.51099999109E-03 0. -1.
       22    1    1    2    0    0  0.58003027448E-07  0.15916205859E-07  0.42077349410E-05  0.42081648032E-05  0.00000000000E+00 0.  1.
       22    1    1    2    0    0  0.11776536948E-02 -0.54346700944E-02  0.34551191626E-01  0.34995819037E-01  0.00000000000E+00 0.  1.
       22    1    1    2    0    0 -0.11777116979E-02  0.54346541782E-02 -0.34555399361E-01  0.34999972798E-01  0.00000000000E+00 0. -1.
</event>
<event>
 5   0  0.6221259E+05  0.9118800E+02  0.7546771E-02  0.1180000E+00
      -11   -1    0    0    0    0  0.00000000000E+00  0.00000000000E+00  0.34996269501E-01  0.35000000000E-01  0.51099999109E-03 0. -1.
       11   -1    0    0    0    0 -0.00000000000E+00 -0.00000000000E+00 -0.34996269501E-01  0.35000000000E-01  0.51099999109E-03 0. -1.
       22    1    1    2    0    0  0.15792865056E-04  0.36520373222E-04  0.34669171293E-02  0.34671454446E-02  0.00000000000E+00 0.  1.
       22    1    1    2    0    0 -0.23511038555E-03  0.11553262447E-02 -0.34978306510E-01  0.34998171122E-01  0.00000000000E+00 0. -1.
       22    1    1    2    0    0  0.21931752049E-03 -0.11918466179E-02  0.31511389380E-01  0.31534683433E-01  0.00000000000E+00 0. -1.
</event>
<event>
 5   0  0.6221259E+05  0.9118800E+02  0.7546771E-02  0.1180000E+00
      -11   -1    0    0    0    0  0.00000000000E+00  0.00000000000E+00  0.34996269501E-01  0.35000000000E-01  0.51099999109E-03 0.  1.
       11   -1    0    0    0    0 -0.00000000000E+00 -0.00000000000E+00 -0.34996269501E-01  0.35000000000E-01  0.51099999109E-03 0. -1.
       22    1    1    2    0    0  0.56924039630E-02 -0.77781781316E-02  0.32993611903E-01  0.34372691840E-01  0.00000000000E+00 0.  1.
       22    1    1    2    0    0 -0.13201359399E-02  0.11687004000E-02 -0.22024724254E-01  0.22095182687E-01  0.00000000000E+00 0. -1.
       22    1    1    2    0    0 -0.43722680231E-02  0.66094777316E-02 -0.10968887649E-01  0.13532125473E-01  0.00000000000E+00 0. -1.
</event>
<event>
 5   0  0.6221259E+05  0.9118800E+02  0.7546771E-02  0.1180000E+00
      -11   -1    0    0    0    0  0.00000000000E+00  0.00000000000E+00  0.34996269501E-01  0.35000000000E-01  0.51099999109E-03 0.  1.
       11   -1    0    0    0    0 -0.00000000000E+00 -0.00000000000E+00 -0.34996269501E-01  0.35000000000E-01  0.51099999109E-03 0. -1.
       22    1    1    2    0    0  0.85539212519E-08  0.37004674966E-08  0.19919102488E-06  0.19940894519E-06  0.00000000000E+00 0. -1.
       22    1    1    2    0    0  0.52262671050E-03  0.14685370596E-01 -0.31765799866E-01  0.34999989848E-01  0.00000000000E+00 0. -1.
       22    1    1    2    0    0 -0.52263526442E-03 -0.14685374296E-01  0.31765600675E-01  0.34999810743E-01  0.00000000000E+00 0.  1.
</event>
<event>
 5   0  0.6221259E+05  0.9118800E+02  0.7546771E-02  0.1180000E+00
      -11   -1    0    0    0    0  0.00000000000E+00  0.00000000000E+00  0.34996269501E-01  0.35000000000E-01  0.51099999109E-03 0.  1.
       11   -1    0    0    0    0 -0.00000000000E+00 -0.00000000000E+00 -0.34996269501E-01  0.35000000000E-01  0.51099999109E-03 0. -1.
       22    1    1    2    0    0  0.57665007084E-02 -0.35215044396E-03  0.32579558758E-01  0.33087825393E-01  0.00000000000E+00 0.  1.
       22    1    1    2    0    0  0.12241546281E-03 -0.75544085050E-04  0.19127502623E-02  0.19181517198E-02  0.00000000000E+00 0.  1.
       22    1    1    2    0    0 -0.58889161713E-02  0.42769452901E-03 -0.34492309020E-01  0.34994022887E-01  0.00000000000E+00 0. -1.
</event>
<event>
 5   0  0.6221259E+05  0.9118800E+02  0.7546771E-02  0.1180000E+00
      -11   -1    0    0    0    0  0.00000000000E+00  0.00000000000E+00  0.34996269501E-01  0.35000000000E-01  0.51099999109E-03 0.  1.
       11   -1    0    0    0    0 -0.00000000000E+00 -0.00000000000E+00 -0.34996269501E-01  0.35000000000E-01  0.51099999109E-03 0.  1.
       22    1    1    2    0    0 -0.51450945731E-05 -0.55577688526E-05  0.34528557196E-01  0.34526686273E-01  0.00000000000E+00 0.  1.
       22    1    1    2    0    0  0.41554289828E-09  0.44887248313E-09 -0.35001828390E-01  0.34999981946E-01  0.00000000000E+00 0.  1.
       22    1    1    2    0    0  0.51446790302E-05  0.55573199801E-05  0.47327119447E-03  0.47333178115E-03  0.00000000000E+00 0. -1.
</event>
<event>
 5   0  0.6221259E+05  0.9118800E+02  0.7546771E-02  0.1180000E+00
      -11   -1    0    0    0    0  0.00000000000E+00  0.00000000000E+00  0.34996269501E-01  0.35000000000E-01  0.51099999109E-03 0. -1.
       11   -1    0    0    0    0 -0.00000000000E+00 -0.00000000000E+00 -0.34996269501E-01  0.35000000000E-01  0.51099999109E-03 0.  1.
       22    1    1    2    0    0 -0.46609826922E-02 -0.15499867322E-01 -0.23649617179E-01  0.28657896632E-01  0.00000000000E+00 0.  1.
       22    1    1    2    0    0 -0.60075171787E-04 -0.37201869593E-03 -0.67310916373E-02  0.67416319661E-02  0.00000000000E+00 0.  1.
       22    1    1    2    0    0  0.47210578640E-02  0.15871886018E-01  0.30380708816E-01  0.34600471402E-01  0.00000000000E+00 0. -1.
</event>
<event>
 5   0  0.6221259E+05  0.9118800E+02  0.7546771E-02  0.1180000E+00
      -11   -1    0    0    0    0  0.00000000000E+00  0.00000000000E+00  0.34996269501E-01  0.35000000000E-01  0.51099999109E-03 0. -1.
       11   -1    0    0    0    0 -0.00000000000E+00 -0.00000000000E+00 -0.34996269501E-01  0.35000000000E-01  0.51099999109E-03 0.  1.
       22    1    1    2    0    0 -0.16393692418E-01 -0.14987079698E-01 -0.27048733918E-01  0.34999995936E-01  0.00000000000E+00 0.  1.
       22    1    1    2    0    0  0.16393692474E-01  0.14987051803E-01  0.27048672102E-01  0.34999936245E-01  0.00000000000E+00 0. -1.
       22    1    1    2    0    0 -0.55388843254E-10  0.27894920321E-07  0.61816349901E-07  0.67818808326E-07  0.00000000000E+00 0.  1.
</event>
<event>
 5   0  0.6221259E+05  0.9118800E+02  0.7546771E-02  0.1180000E+00
      -11   -1    0    0    0    0  0.00000000000E+00  0.00000000000E+00  0.34996269501E-01  0.35000000000E-01  0.51099999109E-03 0.  1.
       11   -1    0    0    0    0 -0.00000000000E+00 -0.00000000000E+00 -0.34996269501E-01  0.35000000000E-01  0.51099999109E-03 0.  1.
       22    1    1    2    0    0  0.12800434190E-03 -0.94095488845E-03  0.34901652069E-01  0.34914568569E-01  0.00000000000E+00 0.  1.
       22    1    1    2    0    0 -0.44866702940E-03  0.63111272244E-03 -0.34421340364E-01  0.34430049053E-01  0.00000000000E+00 0.  1.
       22    1    1    2    0    0  0.32066268750E-03  0.30984216601E-03 -0.48031170536E-03  0.65538237793E-03  0.00000000000E+00 0. -1.
</event>
<event>
 5   0  0.6221259E+05  0.9118800E+02  0.7546771E-02  0.1180000E+00
      -11   -1    0    0    0    0  0.00000000000E+00  0.00000000000E+00  0.34996269501E-01  0.35000000000E-01  0.51099999109E-03 0. -1.
       11   -1    0    0    0    0 -0.00000000000E+00 -0.00000000000E+00 -0.34996269501E-01  0.35000000000E-01  0.51099999109E-03 0.  1.
       22    1    1    2    0    0 -0.21658091740E-01 -0.58814004046E-03 -0.27487835045E-01  0.34999998886E-01  0.00000000000E+00 0.  1.
       22    1    1    2    0    0  0.21658088505E-01  0.58813491398E-03  0.27487820629E-01  0.34999985475E-01  0.00000000000E+00 0. -1.
       22    1    1    2    0    0  0.32355462913E-08  0.51264716852E-08  0.14416528228E-07  0.15639237766E-07  0.00000000000E+00 0.  1.
</event>
<event>
 5   0  0.6221259E+05  0.9118800E+02  0.7546771E-02  0.1180000E+00
      -11   -1    0    0    0    0  0.00000000000E+00  0.00000000000E+00  0.34996269501E-01  0.35000000000E-01  0.51099999109E-03 0.  1.
       11   -1    0    0    0    0 -0.00000000000E+00 -0.00000000000E+00 -0.34996269501E-01  0.35000000000E-01  0.51099999109E-03 0. -1.
       22    1    1    2    0    0  0.24187592191E-02 -0.75051593291E-03 -0.34907285546E-01  0.34999032194E-01  0.00000000000E+00 0. -1.
       22    1    1    2    0    0 -0.16230605396E-04 -0.26583831444E-04  0.27697122301E-03  0.27871704473E-03  0.00000000000E+00 0. -1.
       22    1    1    2    0    0 -0.24025286137E-02  0.77709976436E-03  0.34630314323E-01  0.34722250761E-01  0.00000000000E+00 0.  1.
</event>
<event>
 5   0  0.6221259E+05  0.9118800E+02  0.7546771E-02  0.1180000E+00
      -11   -1    0    0    0    0  0.00000000000E+00  0.00000000000E+00  0.34996269501E-01  0.35000000000E-01  0.51099999109E-03 0. -1.
       11   -1    0    0    0    0 -0.00000000000E+00 -0.00000000000E+00 -0.34996269501E-01  0.35000000000E-01  0.51099999109E-03 0. -1.
       22    1    1    2    0    0 -0.29435275218E-03 -0.26334153663E-03 -0.34997771310E-01  0.34999999842E-01  0.00000000000E+00 0. -1.
       22    1    1    2    0    0  0.29435307176E-03  0.26334268440E-03  0.34997769127E-01  0.34999997671E-01  0.00000000000E+00 0. -1.
       22    1    1    2    0    0 -0.31957611929E-09 -0.11477643280E-08  0.21823260194E-08  0.24863705886E-08  0.00000000000E+00 0. -1.
</event>
<event>
 5   0  0.6221259E+05  0.9118800E+02  0.7546771E-02  0.1180000E+00
      -11   -1    0    0    0    0  0.00000000000E+00  0.00000000000E+00  0.34996269501E-01  0.35000000000E-01  0.51099999109E-03 0. -1.
       11   -1    0    0    0    0 -0.00000000000E+00 -0.00000000000E+00 -0.34996269501E-01  0.35000000000E-01  0.51099999109E-03 0.  1.
       22    1    1    2    0    0 -0.47628607661E-02  0.54896517443E-02  0.34234305520E-01  0.34997268370E-01  0.00000000000E+00 0. -1.
       22    1    1    2    0    0 -0.32236552611E-05  0.17333034715E-05  0.98390828371E-06  0.37900355774E-05  0.00000000000E+00 0. -1.
       22    1    1    2    0    0  0.47660844213E-02 -0.54913850478E-02 -0.34235289428E-01  0.34998941594E-01  0.00000000000E+00 0.  1.
</event>
<event>
 5   0  0.6221259E+05  0.9118800E+02  0.7546771E-02  0.1180000E+00
      -11   -1    0    0    0    0  0.00000000000E+00  0.00000000000E+00  0.34996269501E-01  0.35000000000E-01  0.51099999109E-03 0.  1.
       11   -1    0    0    0    0 -0.00000000000E+00 -0.00000000000E+00 -0.34996269501E-01  0.35000000000E-01  0.51099999109E-03 0. -1.
       22    1    1    2    0    0  0.32944068023E-02 -0.28768145554E-02 -0.34724625073E-01  0.34998982337E-01  0.00000000000E+00 0. -1.
       22    1    1    2    0    0 -0.33001103543E-02  0.28802307890E-02  0.34591427440E-01  0.34867654210E-01  0.00000000000E+00 0.  1.
       22    1    1    2    0    0  0.57035520703E-05 -0.34162336246E-05  0.13319763269E-03  0.13336345269E-03  0.00000000000E+00 0.  1.
</event>
<event>
 5   0  0.6221259E+05  0.9118800E+02  0.7546771E-02  0.1180000E+00
      -11   -1    0    0    0    0  0.00000000000E+00  0.00000000000E+00  0.34996269501E-01  0.35000000000E-01  0.51099999109E-03 0.  1.
       11   -1    0    0    0    0 -0.00000000000E+00 -0.00000000000E+00 -0.34996269501E-01  0.35000000000E-01  0.51099999109E-03 0. -1.
       22    1    1    2    0    0  0.87954991634E-04  0.23850925808E-02 -0.34825958787E-01  0.34907646843E-01  0.00000000000E+00 0. -1.
       22    1    1    2    0    0 -0.55109668513E-03 -0.20283077613E-02  0.34079240392E-01  0.34143994577E-01  0.00000000000E+00 0.  1.
       22    1    1    2    0    0  0.46314169350E-03 -0.35678481949E-03  0.74671839450E-03  0.94835858005E-03  0.00000000000E+00 0.  1.
</event>
<event>
 5   0  0.6221259E+05  0.9118800E+02  0.7546771E-02  0.1180000E+00
      -11   -1    0    0    0    0  0.00000000000E+00  0.00000000000E+00  0.34996269501E-01  0.35000000000E-01  0.51099999109E-03 0. -1.
       11   -1    0    0    0    0 -0.00000000000E+00 -0.00000000000E+00 -0.34996269501E-01  0.35000000000E-01  0.51099999109E-03 0.  1.
       22    1    1    2    0    0 -0.27677394353E-08 -0.35727214084E-07  0.10003040749E-06  0.10625524284E-06  0.00000000000E+00 0. -1.
       22    1    1    2    0    0 -0.77466072514E-02 -0.67502838560E-02  0.33457680966E-01  0.34999895309E-01  0.00000000000E+00 0. -1.
       22    1    1    2    0    0  0.77466100192E-02  0.67503195832E-02 -0.33457780996E-01  0.34999998435E-01  0.00000000000E+00 0.  1.
</event>
<event>
 5   0  0.6221259E+05  0.9118800E+02  0.7546771E-02  0.1180000E+00
      -11   -1    0    0    0    0  0.00000000000E+00  0.00000000000E+00  0.34996269501E-01  0.35000000000E-01  0.51099999109E-03 0. -1.
       11   -1    0    0    0    0 -0.00000000000E+00 -0.00000000000E+00 -0.34996269501E-01  0.35000000000E-01  0.51099999109E-03 0.  1.
       22    1    1    2    0    0 -0.65891152726E-03  0.45655370862E-03  0.34977647694E-01  0.34986832436E-01  0.00000000000E+00 0. -1.
       22    1    1    2    0    0  0.32930057076E-03  0.14044902370E-03 -0.22408082332E-02  0.22692259324E-02  0.00000000000E+00 0.  1.
       22    1    1    2    0    0  0.32961095650E-03 -0.59700273233E-03 -0.32736839461E-01  0.32743941631E-01  0.00000000000E+00 0.  1.
</event>
<event>
 5   0  0.6221259E+05  0.9118800E+02  0.7546771E-02  0.1180000E+00
      -11   -1    0    0    0    0  0.00000000000E+00  0.00000000000E+00  0.34996269501E-01  0.35000000000E-01  0.51099999109E-03 0.  1.
       11   -1    0    0    0    0 -0.00000000000E+00 -0.00000000000E+00 -0.34996269501E-01  0.35000000000E-01  0.51099999109E-03 0.  1.
       22    1    1    2    0    0  0.14464073628E-04 -0.32172713230E-05  0.59179037807E-04  0.61005891326E-04  0.00000000000E+00 0. -1.
       22    1    1    2    0    0 -0.14465205779E-04  0.32175231495E-05  0.34941646177E-01  0.34939907634E-01  0.00000000000E+00 0.  1.
       22    1    1    2    0    0  0.11321509896E-08 -0.25182649133E-09 -0.35000825214E-01  0.34999086474E-01  0.00000000000E+00 0.  1.
</event>
<event>
 5   0  0.6221259E+05  0.9118800E+02  0.7546771E-02  0.1180000E+00
      -11   -1    0    0    0    0  0.00000000000E+00  0.00000000000E+00  0.34996269501E-01  0.35000000000E-01  0.51099999109E-03 0.  1.
       11   -1    0    0    0    0 -0.00000000000E+00 -0.00000000000E+00 -0.34996269501E-01  0.35000000000E-01  0.51099999109E-03 0. -1.
       22    1    1    2    0    0  0.25358074305E-04 -0.25353699765E-04  0.12427564665E-03  0.12934557733E-03  0.00000000000E+00 0. -1.
       22    1    1    2    0    0 -0.33791206113E-02 -0.24379565860E-02  0.34624143860E-01  0.34873964880E-01  0.00000000000E+00 0.  1.
       22    1    1    2    0    0  0.33537625370E-02  0.24633102858E-02 -0.34748419507E-01  0.34996689542E-01  0.00000000000E+00 0. -1.
</event>
<event>
 5   0  0.6221259E+05  0.9118800E+02  0.7546771E-02  0.1180000E+00
      -11   -1    0    0    0    0  0.00000000000E+00  0.00000000000E+00  0.34996269501E-01  0.35000000000E-01  0.51099999109E-03 0. -1.
       11   -1    0    0    0    0 -0.00000000000E+00 -0.00000000000E+00 -0.34996269501E-01  0.35000000000E-01  0.51099999109E-03 0.  1.
       22    1    1    2    0    0  0.36137373894E-07 -0.47945397203E-07  0.29367367355E-06  0.29974805661E-06  0.00000000000E+00 0.  1.
       22    1    1    2    0    0 -0.82878318134E-02 -0.18673040588E-01 -0.28418772984E-01  0.34999960841E-01  0.00000000000E+00 0.  1.
       22    1    1    2    0    0  0.82877956761E-02  0.18673088533E-01  0.28418479310E-01  0.34999739411E-01  0.00000000000E+00 0. -1.
</event>
<event>
 5   0  0.6221259E+05  0.9118800E+02  0.7546771E-02  0.1180000E+00
      -11   -1    0    0    0    0  0.00000000000E+00  0.00000000000E+00  0.34996269501E-01  0.35000000000E-01  0.51099999109E-03 0.  1.
       11   -1    0    0    0    0 -0.00000000000E+00 -0.00000000000E+00 -0.34996269501E-01  0.35000000000E-01  0.51099999109E-03 0.  1.
       22    1    1    2    0    0 -0.15846902036E-05 -0.75746038864E-06  0.34962834726E-01  0.34961763491E-01  0.00000000000E+00 0.  1.
       22    1    1    2    0    0  0.10880119049E-09  0.52005490945E-10 -0.35001050505E-01  0.34999980395E-01  0.00000000000E+00 0.  1.
       22    1    1    2    0    0  0.15845814024E-05  0.75740838315E-06  0.38215778376E-04  0.38256114316E-04  0.00000000000E+00 0.  1.
</event>
<event>
 5   0  0.6221259E+05  0.9118800E+02  0.7546771E-02  0.1180000E+00
      -11   -1    0    0    0    0  0.00000000000E+00  0.00000000000E+00  0.34996269501E-01  0.35000000000E-01  0.51099999109E-03 0. -1.
       11   -1    0    0    0    0 -0.00000000000E+00 -0.00000000000E+00 -0.34996269501E-01  0.35000000000E-01  0.51099999109E-03 0.  1.
       22    1    1    2    0    0 -0.68210392259E-02 -0.88891925669E-02  0.10314688625E-01  0.15229482002E-01  0.00000000000E+00 0.  1.
       22    1    1    2    0    0  0.51444330819E-02  0.91009007285E-02  0.20974635706E-01  0.23435591070E-01  0.00000000000E+00 0. -1.
       22    1    1    2    0    0  0.16766061440E-02 -0.21170816165E-03 -0.31289324331E-01  0.31334926928E-01  0.00000000000E+00 0.  1.
</event>
<event>
 5   0  0.6221259E+05  0.9118800E+02  0.7546771E-02  0.1180000E+00
      -11   -1    0    0    0    0  0.00000000000E+00  0.00000000000E+00  0.34996269501E-01  0.35000000000E-01  0.51099999109E-03 0.  1.
       11   -1    0    0    0    0 -0.00000000000E+00 -0.00000000000E+00 -0.34996269501E-01  0.35000000000E-01  0.51099999109E-03 0. -1.
       22    1    1    2    0    0  0.15171611703E-02  0.25425978428E-02  0.34748804097E-01  0.34874718178E-01  0.00000000000E+00 0.  1.
       22    1    1    2    0    0 -0.48899545709E-03 -0.23540683863E-03 -0.26332873419E-01  0.26338465320E-01  0.00000000000E+00 0. -1.
       22    1    1    2    0    0 -0.10281657132E-02 -0.23071910042E-02 -0.84159306779E-02  0.87868165019E-02  0.00000000000E+00 0. -1.
</event>
<event>
 5   0  0.6221259E+05  0.9118800E+02  0.7546771E-02  0.1180000E+00
      -11   -1    0    0    0    0  0.00000000000E+00  0.00000000000E+00  0.34996269501E-01  0.35000000000E-01  0.51099999109E-03 0. -1.
       11   -1    0    0    0    0 -0.00000000000E+00 -0.00000000000E+00 -0.34996269501E-01  0.35000000000E-01  0.51099999109E-03 0. -1.
       22    1    1    2    0    0 -0.37401301782E-03 -0.98870257149E-03 -0.22559700846E-01  0.22584453077E-01  0.00000000000E+00 0. -1.
       22    1    1    2    0    0  0.00000000000E+00  0.00000000000E+00  0.34966885831E-01  0.34963412257E-01  0.00000000000E+00 0. -1.
       22    1    1    2    0    0  0.37401301782E-03  0.98870257149E-03 -0.12407184985E-01  0.12452134667E-01  0.00000000000E+00 0.  1.
</event>
<event>
 5   0  0.6221259E+05  0.9118800E+02  0.7546771E-02  0.1180000E+00
      -11   -1    0    0    0    0  0.00000000000E+00  0.00000000000E+00  0.34996269501E-01  0.35000000000E-01  0.51099999109E-03 0. -1.
       11   -1    0    0    0    0 -0.00000000000E+00 -0.00000000000E+00 -0.34996269501E-01  0.35000000000E-01  0.51099999109E-03 0. -1.
       22    1    1    2    0    0  0.18378950607E-12 -0.39860363731E-12 -0.35003066649E-01  0.34999999496E-01  0.00000000000E+00 0. -1.
       22    1    1    2    0    0 -0.18925839534E-08  0.41046459283E-08  0.35003057034E-01  0.34999989881E-01  0.00000000000E+00 0. -1.
       22    1    1    2    0    0  0.18924001639E-08 -0.41042473246E-08  0.96142287150E-08  0.10623531346E-07  0.00000000000E+00 0. -1.
</event>
<event>
 5   0  0.6221259E+05  0.9118800E+02  0.7546771E-02  0.1180000E+00
      -11   -1    0    0    0    0  0.00000000000E+00  0.00000000000E+00  0.34996269501E-01  0.35000000000E-01  0.51099999109E-03 0.  1.
       11   -1    0    0    0    0 -0.00000000000E+00 -0.00000000000E+00 -0.34996269501E-01  0.35000000000E-01  0.51099999109E-03 0.  1.
       22    1    1    2    0    0 -0.30508202514E-08  0.56497811517E-08  0.35003520089E-01  0.34999994110E-01  0.00000000000E+00 0.  1.
       22    1    1    2    0    0  0.30505039902E-08 -0.56491954710E-08  0.41402120819E-08  0.76393939646E-08  0.00000000000E+00 0.  1.
       22    1    1    2    0    0  0.31626120971E-12 -0.58568072663E-12 -0.35003524230E-01  0.34999998251E-01  0.00000000000E+00 0.  1.
</event>
<event>
 5   0  0.6221259E+05  0.9118800E+02  0.7546771E-02  0.1180000E+00
      -11   -1    0    0    0    0  0.00000000000E+00  0.00000000000E+00  0.34996269501E-01  0.35000000000E-01  0.51099999109E-03 0. -1.
       11   -1    0    0    0    0 -0.00000000000E+00 -0.00000000000E+00 -0.34996269501E-01  0.35000000000E-01  0.51099999109E-03 0.  1.
       22    1    1    2    0    0  0.26868871339E-02  0.10803078183E-02 -0.34874751499E-01  0.34994781319E-01  0.00000000000E+00 0.  1.
       22    1    1    2    0    0 -0.23011320906E-04  0.86339657637E-05  0.19529023466E-04  0.31391862197E-04  0.00000000000E+00 0.  1.
       22    1    1    2    0    0 -0.26638758130E-02 -0.10889417840E-02  0.34855222475E-01  0.34973826819E-01  0.00000000000E+00 0. -1.
</event>
<event>
 5   0  0.6221259E+05  0.9118800E+02  0.7546771E-02  0.1180000E+00
      -11   -1    0    0    0    0  0.00000000000E+00  0.00000000000E+00  0.34996269501E-01  0.35000000000E-01  0.51099999109E-03 0. -1.
       11   -1    0    0    0    0 -0.00000000000E+00 -0.00000000000E+00 -0.34996269501E-01  0.35000000000E-01  0.51099999109E-03 0.  1.
       22    1    1    2    0    0 -0.23146032369E-01 -0.19958012648E-01 -0.17045969168E-01  0.34994658852E-01  0.00000000000E+00 0.  1.
       22    1    1    2    0    0  0.32410468710E-05 -0.79489624419E-06  0.23655282285E-04  0.23889508677E-04  0.00000000000E+00 0.  1.
       22    1    1    2    0    0  0.23142791322E-01  0.19958807544E-01  0.17022313885E-01  0.34981451639E-01  0.00000000000E+00 0. -1.
</event>
<event>
 5   0  0.6221259E+05  0.9118800E+02  0.7546771E-02  0.1180000E+00
      -11   -1    0    0    0    0  0.00000000000E+00  0.00000000000E+00  0.34996269501E-01  0.35000000000E-01  0.51099999109E-03 0.  1.
       11   -1    0    0    0    0 -0.00000000000E+00 -0.00000000000E+00 -0.34996269501E-01  0.35000000000E-01  0.51099999109E-03 0. -1.
       22    1    1    2    0    0  0.54955252275E-04  0.30150774496E-04  0.33439893157E-03  0.34022315381E-03  0.00000000000E+00 0. -1.
       22    1    1    2    0    0  0.14318176666E-02  0.70471326134E-02  0.33907953015E-01  0.34662104056E-01  0.00000000000E+00 0.  1.
       22    1    1    2    0    0 -0.14867729189E-02 -0.70772833879E-02 -0.34242351947E-01  0.34997672790E-01  0.00000000000E+00 0. -1.
</event>
<event>
 5   0  0.6221259E+05  0.9118800E+02  0.7546771E-02  0.1180000E+00
      -11   -1    0    0    0    0  0.00000000000E+00  0.00000000000E+00  0.34996269501E-01  0.35000000000E-01  0.51099999109E-03 0.  1.
       11   -1    0    0    0    0 -0.00000000000E+00 -0.00000000000E+00 -0.34996269501E-01  0.35000000000E-01  0.51099999109E-03 0. -1.
       22    1    1    2    0    0 -0.16638197741E-02  0.62405547009E-03 -0.34954859833E-01  0.34999999535E-01  0.00000000000E+00 0. -1.
       22    1    1    2    0    0  0.27211410570E-08 -0.10850207098E-07  0.52138951207E-07  0.53325433291E-07  0.00000000000E+00 0. -1.
       22    1    1    2    0    0  0.16638170529E-02 -0.62404461988E-03  0.34954807694E-01  0.34999947140E-01  0.00000000000E+00 0.  1.
</event>
<event>
 5   0  0.6221259E+05  0.9118800E+02  0.7546771E-02  0.1180000E+00
      -11   -1    0    0    0    0  0.00000000000E+00  0.00000000000E+00  0.34996269501E-01  0.35000000000E-01  0.51099999109E-03 0.  1.
       11   -1    0    0    0    0 -0.00000000000E+00 -0.00000000000E+00 -0.34996269501E-01  0.35000000000E-01  0.51099999109E-03 0. -1.
       22    1    1    2    0    0  0.49357432831E-03 -0.24838778812E-03 -0.19672940830E-01  0.19680698997E-01  0.00000000000E+00 0. -1.
       22    1    1    2    0    0 -0.23982911667E-02 -0.21921146903E-02  0.34763222770E-01  0.34914736497E-01  0.00000000000E+00 0.  1.
       22    1    1    2    0    0  0.19047168384E-02  0.24405024784E-02 -0.15090281940E-01  0.15404564505E-01  0.00000000000E+00 0. -1.
</event>
<event>
 5   0  0.6221259E+05  0.9118800E+02  0.7546771E-02  0.1180000E+00
      -11   -1    0    0    0    0  0.00000000000E+00  0.00000000000E+00  0.34996269501E-01  0.35000000000E-01  0.51099999109E-03 0.  1.
       11   -1    0    0    0    0 -0.00000000000E+00 -0.00000000000E+00 -0.34996269501E-01  0.35000000000E-01  0.51099999109E-03 0. -1.
       22    1    1    2    0    0  0.92983400573E-02  0.87575861044E-02  0.32585658401E-01  0.34999708222E-01  0.00000000000E+00 0.  1.
       22    1    1    2    0    0 -0.92973996028E-02 -0.87571911328E-02 -0.32585558890E-01  0.34999266908E-01  0.00000000000E+00 0. -1.
       22    1    1    2    0    0 -0.94045450558E-06 -0.39497157251E-06 -0.99510392012E-07  0.10248704983E-05  0.00000000000E+00 0. -1.
</event>
<event>
 5   0  0.6221259E+05  0.9118800E+02  0.7546771E-02  0.1180000E+00
      -11   -1    0    0    0    0  0.00000000000E+00  0.00000000000E+00  0.34996269501E-01  0.35000000000E-01  0.51099999109E-03 0.  1.
       11   -1    0    0    0    0 -0.00000000000E+00 -0.00000000000E+00 -0.34996269501E-01  0.35000000000E-01  0.51099999109E-03 0.  1.
       22    1    1    2    0    0  0.11709267694E-07  0.14784413745E-06  0.25067162311E-06  0.29125806180E-06  0.00000000000E+00 0.  1.
       22    1    1    2    0    0  0.10859273706E-11  0.13711190113E-10 -0.35002740338E-01  0.34999979717E-01  0.00000000000E+00 0.  1.
       22    1    1    2    0    0 -0.11710353622E-07 -0.14785784864E-06  0.35002489666E-01  0.34999729025E-01  0.00000000000E+00 0.  1.
</event>
<event>
 5   0  0.6221259E+05  0.9118800E+02  0.7546771E-02  0.1180000E+00
      -11   -1    0    0    0    0  0.00000000000E+00  0.00000000000E+00  0.34996269501E-01  0.35000000000E-01  0.51099999109E-03 0. -1.
       11   -1    0    0    0    0 -0.00000000000E+00 -0.00000000000E+00 -0.34996269501E-01  0.35000000000E-01  0.51099999109E-03 0.  1.
       22    1    1    2    0    0 -0.60067432498E-03 -0.11613826765E-01  0.33008653771E-01  0.34997328548E-01  0.00000000000E+00 0. -1.
       22    1    1    2    0    0  0.59883600825E-03  0.11614888288E-01 -0.33010787398E-01  0.34999661700E-01  0.00000000000E+00 0.  1.
       22    1    1    2    0    0  0.18383167310E-05 -0.10615237172E-05  0.21336269822E-05  0.30097516683E-05  0.00000000000E+00 0.  1.
</event>
<event>
 5   0  0.6221259E+05  0.9118800E+02  0.7546771E-02  0.1180000E+00
      -11   -1    0    0    0    0  0.00000000000E+00  0.00000000000E+00  0.34996269501E-01  0.35000000000E-01  0.51099999109E-03 0.  1.
       11   -1    0    0    0    0 -0.00000000000E+00 -0.00000000000E+00 -0.34996269501E-01  0.35000000000E-01  0.51099999109E-03 0. -1.
       22    1    1    2    0    0  0.89614726571E-08 -0.39825433486E-08  0.93941091826E-08  0.13580056371E-07  0.00000000000E+00 0.  1.
       22    1    1    2    0    0  0.24362275032E-03  0.12247532025E-02  0.34977704704E-01  0.34999988554E-01  0.00000000000E+00 0.  1.
       22    1    1    2    0    0 -0.24363171179E-03 -0.12247492200E-02 -0.34977714098E-01  0.34999997866E-01  0.00000000000E+00 0. -1.
</event>
<event>
 5   0  0.6221259E+05  0.9118800E+02  0.7546771E-02  0.1180000E+00
      -11   -1    0    0    0    0  0.00000000000E+00  0.00000000000E+00  0.34996269501E-01  0.35000000000E-01  0.51099999109E-03 0.  1.
       11   -1    0    0    0    0 -0.00000000000E+00 -0.00000000000E+00 -0.34996269501E-01  0.35000000000E-01  0.51099999109E-03 0. -1.
       22    1    1    2    0    0 -0.11916255492E-02  0.21158943002E-02  0.34798545163E-01  0.34883172528E-01  0.00000000000E+00 0.  1.
       22    1    1    2    0    0 -0.11135991784E-04  0.51155531452E-05  0.11630086840E-03  0.11694473561E-03  0.00000000000E+00 0.  1.
       22    1    1    2    0    0  0.12027615410E-02 -0.21210098533E-02 -0.34914846032E-01  0.34999882736E-01  0.00000000000E+00 0. -1.
</event>
<event>
 5   0  0.6221259E+05  0.9118800E+02  0.7546771E-02  0.1180000E+00
      -11   -1    0    0    0    0  0.00000000000E+00  0.00000000000E+00  0.34996269501E-01  0.35000000000E-01  0.51099999109E-03 0. -1.
       11   -1    0    0    0    0 -0.00000000000E+00 -0.00000000000E+00 -0.34996269501E-01  0.35000000000E-01  0.51099999109E-03 0. -1.
       22    1    1    2    0    0 -0.83560023395E-07 -0.52628493869E-07  0.66358750348E-07  0.11897697098E-06  0.00000000000E+00 0.  1.
       22    1    1    2    0    0  0.83567690984E-07  0.52633323136E-07  0.35002599439E-01  0.34999907330E-01  0.00000000000E+00 0. -1.
       22    1    1    2    0    0 -0.76675885255E-11 -0.48292666673E-11 -0.35002665798E-01  0.34999973693E-01  0.00000000000E+00 0. -1.
</event>
<event>
 5   0  0.6221259E+05  0.9118800E+02  0.7546771E-02  0.1180000E+00
      -11   -1    0    0    0    0  0.00000000000E+00  0.00000000000E+00  0.34996269501E-01  0.35000000000E-01  0.51099999109E-03 0. -1.
       11   -1    0    0    0    0 -0.00000000000E+00 -0.00000000000E+00 -0.34996269501E-01  0.35000000000E-01  0.51099999109E-03 0. -1.
       22    1    1    2    0    0 -0.15434734145E-03  0.28981648755E-03  0.34987556420E-01  0.34989097173E-01  0.00000000000E+00 0. -1.
       22    1    1    2    0    0  0.14302921008E-03 -0.23833171869E-03 -0.34936206143E-01  0.34937311846E-01  0.00000000000E+00 0. -1.
       22    1    1    2    0    0  0.11318131369E-04 -0.51484768855E-04 -0.51350277712E-04  0.73590981396E-04  0.00000000000E+00 0. -1.
</event>
<event>
 5   0  0.6221259E+05  0.9118800E+02  0.7546771E-02  0.1180000E+00
      -11   -1    0    0    0    0  0.00000000000E+00  0.00000000000E+00  0.34996269501E-01  0.35000000000E-01  0.51099999109E-03 0.  1.
       11   -1    0    0    0    0 -0.00000000000E+00 -0.00000000000E+00 -0.34996269501E-01  0.35000000000E-01  0.51099999109E-03 0.  1.
       22    1    1    2    0    0  0.84669347334E-04 -0.93623358391E-03 -0.34987372685E-01  0.34999999280E-01  0.00000000000E+00 0.  1.
       22    1    1    2    0    0 -0.10334188474E-08 -0.19166541697E-08  0.10085921927E-08  0.23997449722E-08  0.00000000000E+00 0. -1.
       22    1    1    2    0    0 -0.84668313916E-04  0.93623550057E-03  0.34987371676E-01  0.34999998320E-01  0.00000000000E+00 0.  1.
</event>
<event>
 5   0  0.6221259E+05  0.9118800E+02  0.7546771E-02  0.1180000E+00
      -11   -1    0    0    0    0  0.00000000000E+00  0.00000000000E+00  0.34996269501E-01  0.35000000000E-01  0.51099999109E-03 0. -1.
       11   -1    0    0    0    0 -0.00000000000E+00 -0.00000000000E+00 -0.34996269501E-01  0.35000000000E-01  0.51099999109E-03 0.  1.
       22    1    1    2    0    0  0.28094853382E-02 -0.62822446800E-02  0.34312570115E-01  0.34995889387E-01  0.00000000000E+00 0. -1.
       22    1    1    2    0    0  0.51936384479E-05  0.52032182267E-05  0.12975545037E-05  0.74653203503E-05  0.00000000000E+00 0.  1.
       22    1    1    2    0    0 -0.28146789767E-02  0.62770414618E-02 -0.34313867670E-01  0.34996645292E-01  0.00000000000E+00 0.  1.
</event>
<event>
 5   0  0.6221259E+05  0.9118800E+02  0.7546771E-02  0.1180000E+00
      -11   -1    0    0    0    0  0.00000000000E+00  0.00000000000E+00  0.34996269501E-01  0.35000000000E-01  0.51099999109E-03 0.  1.
       11   -1    0    0    0    0 -0.00000000000E+00 -0.00000000000E+00 -0.34996269501E-01  0.35000000000E-01  0.51099999109E-03 0. -1.
       22    1    1    2    0    0  0.15472786679E-03  0.13433592279E-02  0.34973864679E-01  0.34999996648E-01  0.00000000000E+00 0.  1.
       22    1    1    2    0    0  0.53479807293E-09  0.44197609147E-08  0.17501100647E-08  0.47836367714E-08  0.00000000000E+00 0.  1.
       22    1    1    2    0    0 -0.15472840159E-03 -0.13433636476E-02 -0.34973866430E-01  0.34999998569E-01  0.00000000000E+00 0. -1.
</event>
<event>
 5   0  0.6221259E+05  0.9118800E+02  0.7546771E-02  0.1180000E+00
      -11   -1    0    0    0    0  0.00000000000E+00  0.00000000000E+00  0.34996269501E-01  0.35000000000E-01  0.51099999109E-03 0.  1.
       11   -1    0    0    0    0 -0.00000000000E+00 -0.00000000000E+00 -0.34996269501E-01  0.35000000000E-01  0.51099999109E-03 0. -1.
       22    1    1    2    0    0  0.14583850107E-01  0.51177305237E-03  0.31812702754E-01  0.34999980745E-01  0.00000000000E+00 0.  1.
       22    1    1    2    0    0 -0.14583850496E-01 -0.51177518577E-03 -0.31812722765E-01  0.34999999127E-01  0.00000000000E+00 0. -1.
       22    1    1    2    0    0  0.38948367450E-09  0.21334031857E-08  0.20011193175E-07  0.20128362054E-07  0.00000000000E+00 0. -1.
</event>
<event>
 5   0  0.6221259E+05  0.9118800E+02  0.7546771E-02  0.1180000E+00
      -11   -1    0    0    0    0  0.00000000000E+00  0.00000000000E+00  0.34996269501E-01  0.35000000000E-01  0.51099999109E-03 0.  1.
       11   -1    0    0    0    0 -0.00000000000E+00 -0.00000000000E+00 -0.34996269501E-01  0.35000000000E-01  0.51099999109E-03 0.  1.
       22    1    1    2    0    0 -0.14931032493E-02 -0.16693505198E-02 -0.34852180441E-01  0.34924068635E-01  0.00000000000E+00 0.  1.
       22    1    1    2    0    0  0.75097653813E-03 -0.33580847257E-03  0.21202726620E-02  0.22742667505E-02  0.00000000000E+00 0. -1.
       22    1    1    2    0    0  0.74212671119E-03  0.20051589923E-02  0.32731907779E-01  0.32801664615E-01  0.00000000000E+00 0.  1.
</event>
<event>
 5   0  0.6221259E+05  0.9118800E+02  0.7546771E-02  0.1180000E+00
      -11   -1    0    0    0    0  0.00000000000E+00  0.00000000000E+00  0.34996269501E-01  0.35000000000E-01  0.51099999109E-03 0.  1.
       11   -1    0    0    0    0 -0.00000000000E+00 -0.00000000000E+00 -0.34996269501E-01  0.35000000000E-01  0.51099999109E-03 0. -1.
       22    1    1    2    0    0  0.39069566817E-03 -0.10961414273E-02  0.30973716128E-01  0.30995568392E-01  0.00000000000E+00 0.  1.
       22    1    1    2    0    0  0.49155651117E-04  0.59378647291E-04  0.40059244009E-02  0.40066659965E-02  0.00000000000E+00 0.  1.
       22    1    1    2    0    0 -0.43985131929E-03  0.10367627800E-02 -0.34979640529E-01  0.34997765612E-01  0.00000000000E+00 0. -1.
</event>
<event>
 5   0  0.6221259E+05  0.9118800E+02  0.7546771E-02  0.1180000E+00
      -11   -1    0    0    0    0  0.00000000000E+00  0.00000000000E+00  0.34996269501E-01  0.35000000000E-01  0.51099999109E-03 0. -1.
       11   -1    0    0    0    0 -0.00000000000E+00 -0.00000000000E+00 -0.34996269501E-01  0.35000000000E-01  0.51099999109E-03 0.  1.
       22    1    1    2    0    0 -0.23293742469E-03 -0.21781377809E-03  0.44126023367E-03  0.54443849934E-03  0.00000000000E+00 0. -1.
       22    1    1    2    0    0  0.19534135965E-01 -0.28213151661E-01 -0.53936306524E-02  0.34736949293E-01  0.00000000000E+00 0. -1.
       22    1    1    2    0    0 -0.19301198541E-01  0.28430965439E-01  0.49523704187E-02  0.34718612208E-01  0.00000000000E+00 0.  1.
</event>
<event>
 5   0  0.6221259E+05  0.9118800E+02  0.7546771E-02  0.1180000E+00
      -11   -1    0    0    0    0  0.00000000000E+00  0.00000000000E+00  0.34996269501E-01  0.35000000000E-01  0.51099999109E-03 0. -1.
       11   -1    0    0    0    0 -0.00000000000E+00 -0.00000000000E+00 -0.34996269501E-01  0.35000000000E-01  0.51099999109E-03 0.  1.
       22    1    1    2    0    0 -0.11267432387E-02  0.15730026669E-02 -0.34945383737E-01  0.34998910443E-01  0.00000000000E+00 0.  1.
       22    1    1    2    0    0  0.11801282714E-04 -0.34266077265E-05  0.26943685317E-04  0.29613748373E-04  0.00000000000E+00 0. -1.
       22    1    1    2    0    0  0.11149419560E-02 -0.15695760592E-02  0.34918440052E-01  0.34971475808E-01  0.00000000000E+00 0. -1.
</event>
<event>
 5   0  0.6221259E+05  0.9118800E+02  0.7546771E-02  0.1180000E+00
      -11   -1    0    0    0    0  0.00000000000E+00  0.00000000000E+00  0.34996269501E-01  0.35000000000E-01  0.51099999109E-03 0. -1.
       11   -1    0    0    0    0 -0.00000000000E+00 -0.00000000000E+00 -0.34996269501E-01  0.35000000000E-01  0.51099999109E-03 0.  1.
       22    1    1    2    0    0 -0.80893517632E-02  0.21837548821E-01  0.26063078491E-01  0.34951397839E-01  0.00000000000E+00 0. -1.
       22    1    1    2    0    0  0.74010787903E-04  0.62504665350E-04 -0.21061742583E-03  0.23182780243E-03  0.00000000000E+00 0.  1.
       22    1    1    2    0    0  0.80153409753E-02 -0.21900053486E-01 -0.25852461065E-01  0.34816774359E-01  0.00000000000E+00 0.  1.
</event>
<event>
 5   0  0.6221259E+05  0.9118800E+02  0.7546771E-02  0.1180000E+00
      -11   -1    0    0    0    0  0.00000000000E+00  0.00000000000E+00  0.34996269501E-01  0.35000000000E-01  0.51099999109E-03 0.  1.
       11   -1    0    0    0    0 -0.00000000000E+00 -0.00000000000E+00 -0.34996269501E-01  0.35000000000E-01  0.51099999109E-03 0. -1.
       22    1    1    2    0    0 -0.17468551176E-06 -0.11673318945E-06  0.16245670098E-06  0.26558208756E-06  0.00000000000E+00 0.  1.
       22    1    1    2    0    0  0.30823769780E-01 -0.12344797731E-01 -0.11067864817E-01  0.34999949230E-01  0.00000000000E+00 0. -1.
       22    1    1    2    0    0 -0.30823595094E-01  0.12344914464E-01  0.11067702361E-01  0.34999785188E-01  0.00000000000E+00 0.  1.
</event>
<event>
 5   0  0.6221259E+05  0.9118800E+02  0.7546771E-02  0.1180000E+00
      -11   -1    0    0    0    0  0.00000000000E+00  0.00000000000E+00  0.34996269501E-01  0.35000000000E-01  0.51099999109E-03 0.  1.
       11   -1    0    0    0    0 -0.00000000000E+00 -0.00000000000E+00 -0.34996269501E-01  0.35000000000E-01  0.51099999109E-03 0. -1.
       22    1    1    2    0    0 -0.12706026069E-01  0.99019509938E-02  0.20507112810E-01  0.26077450177E-01  0.00000000000E+00 0.  1.
       22    1    1    2    0    0  0.22845879671E-01 -0.34871857519E-02 -0.21905807293E-01  0.31842724060E-01  0.00000000000E+00 0. -1.
       22    1    1    2    0    0 -0.10139853602E-01 -0.64147652419E-02  0.13986944832E-02  0.12079825762E-01  0.00000000000E+00 0.  1.
</event>
<event>
 5   0  0.6221259E+05  0.9118800E+02  0.7546771E-02  0.1180000E+00
      -11   -1    0    0    0    0  0.00000000000E+00  0.00000000000E+00  0.34996269501E-01  0.35000000000E-01  0.51099999109E-03 0. -1.
       11   -1    0    0    0    0 -0.00000000000E+00 -0.00000000000E+00 -0.34996269501E-01  0.35000000000E-01  0.51099999109E-03 0. -1.
       22    1    1    2    0    0  0.98826420598E-04  0.26915952455E-03 -0.34792183075E-01  0.34793364549E-01  0.00000000000E+00 0. -1.
       22    1    1    2    0    0  0.86800976001E-04  0.12361415050E-03 -0.17817255223E-03  0.23358151897E-03  0.00000000000E+00 0. -1.
       22    1    1    2    0    0 -0.18562739660E-03 -0.39277367505E-03  0.34970355627E-01  0.34973053932E-01  0.00000000000E+00 0. -1.
</event>
<event>
 5   0  0.6221259E+05  0.9118800E+02  0.7546771E-02  0.1180000E+00
      -11   -1    0    0    0    0  0.00000000000E+00  0.00000000000E+00  0.34996269501E-01  0.35000000000E-01  0.51099999109E-03 0. -1.
       11   -1    0    0    0    0 -0.00000000000E+00 -0.00000000000E+00 -0.34996269501E-01  0.35000000000E-01  0.51099999109E-03 0.  1.
       22    1    1    2    0    0 -0.34352446325E-03 -0.85645161564E-03 -0.34987824154E-01  0.34999990821E-01  0.00000000000E+00 0.  1.
       22    1    1    2    0    0  0.34369965420E-03  0.85654607383E-03  0.34986399006E-01  0.34998570200E-01  0.00000000000E+00 0. -1.
       22    1    1    2    0    0 -0.17519094735E-06 -0.94458188101E-07  0.14251481371E-05  0.14389793014E-05  0.00000000000E+00 0. -1.
</event>
<event>
 5   0  0.6221259E+05  0.9118800E+02  0.7546771E-02  0.1180000E+00
      -11   -1    0    0    0    0  0.00000000000E+00  0.00000000000E+00  0.34996269501E-01  0.35000000000E-01  0.51099999109E-03 0.  1.
       11   -1    0    0    0    0 -0.00000000000E+00 -0.00000000000E+00 -0.34996269501E-01  0.35000000000E-01  0.51099999109E-03 0. -1.
       22    1    1    2    0    0 -0.64719271399E-03 -0.51837789960E-04  0.84307988723E-03  0.10641096098E-02  0.00000000000E+00 0.  1.
       22    1    1    2    0    0  0.15368787861E-01 -0.29613782630E-01  0.86826639088E-02  0.34475562570E-01  0.00000000000E+00 0.  1.
       22    1    1    2    0    0 -0.14721595147E-01  0.29665620420E-01 -0.95257437961E-02  0.34460327820E-01  0.00000000000E+00 0. -1.
</event>
<event>
 5   0  0.6221259E+05  0.9118800E+02  0.7546771E-02  0.1180000E+00
      -11   -1    0    0    0    0  0.00000000000E+00  0.00000000000E+00  0.34996269501E-01  0.35000000000E-01  0.51099999109E-03 0. -1.
       11   -1    0    0    0    0 -0.00000000000E+00 -0.00000000000E+00 -0.34996269501E-01  0.35000000000E-01  0.51099999109E-03 0.  1.
       22    1    1    2    0    0 -0.10096885572E-03 -0.35094498191E-03  0.10414995320E-01  0.10421395521E-01  0.00000000000E+00 0. -1.
       22    1    1    2    0    0  0.83950069712E-03 -0.70407381374E-03  0.24557738041E-01  0.24582167908E-01  0.00000000000E+00 0. -1.
       22    1    1    2    0    0 -0.73853184140E-03  0.10550187957E-02 -0.34972733361E-01  0.34996436571E-01  0.00000000000E+00 0.  1.
</event>
<event>
 5   0  0.6221259E+05  0.9118800E+02  0.7546771E-02  0.1180000E+00
      -11   -1    0    0    0    0  0.00000000000E+00  0.00000000000E+00  0.34996269501E-01  0.35000000000E-01  0.51099999109E-03 0. -1.
       11   -1    0    0    0    0 -0.00000000000E+00 -0.00000000000E+00 -0.34996269501E-01  0.35000000000E-01  0.51099999109E-03 0.  1.
       22    1    1    2    0    0  0.36284504517E-02 -0.43528717544E-02 -0.16204004554E-01  0.17166330673E-01  0.00000000000E+00 0. -1.
       22    1    1    2    0    0  0.19559861244E-02 -0.13827338692E-01  0.27407695697E-01  0.30760412228E-01  0.00000000000E+00 0. -1.
       22    1    1    2    0    0 -0.55844365761E-02  0.18180210446E-01 -0.11203691143E-01  0.22073257099E-01  0.00000000000E+00 0.  1.
</event>
<event>
 5   0  0.6221259E+05  0.9118800E+02  0.7546771E-02  0.1180000E+00
      -11   -1    0    0    0    0  0.00000000000E+00  0.00000000000E+00  0.34996269501E-01  0.35000000000E-01  0.51099999109E-03 0.  1.
       11   -1    0    0    0    0 -0.00000000000E+00 -0.00000000000E+00 -0.34996269501E-01  0.35000000000E-01  0.51099999109E-03 0. -1.
       22    1    1    2    0    0 -0.36808122464E-02  0.27376429066E-03  0.34799079704E-01  0.34994274874E-01  0.00000000000E+00 0.  1.
       22    1    1    2    0    0  0.36776770988E-02 -0.27297693400E-03 -0.34804545794E-01  0.34999374754E-01  0.00000000000E+00 0. -1.
       22    1    1    2    0    0  0.31351476111E-05 -0.78735665903E-06  0.54660902544E-05  0.63503719356E-05  0.00000000000E+00 0.  1.
</event>
<event>
 5   0  0.6221259E+05  0.9118800E+02  0.7546771E-02  0.1180000E+00
      -11   -1    0    0    0    0  0.00000000000E+00  0.00000000000E+00  0.34996269501E-01  0.35000000000E-01  0.51099999109E-03 0.  1.
       11   -1    0    0    0    0 -0.00000000000E+00 -0.00000000000E+00 -0.34996269501E-01  0.35000000000E-01  0.51099999109E-03 0. -1.
       22    1    1    2    0    0  0.22302851117E-02  0.11254426501E-02 -0.34799817762E-01  0.34889369571E-01  0.00000000000E+00 0. -1.
       22    1    1    2    0    0 -0.21540294477E-02 -0.13506761616E-02  0.34779132487E-01  0.34871940375E-01  0.00000000000E+00 0.  1.
       22    1    1    2    0    0 -0.76255663943E-04  0.22523351146E-03  0.20685274444E-04  0.23869005330E-03  0.00000000000E+00 0. -1.
</event>
<event>
 5   0  0.6221259E+05  0.9118800E+02  0.7546771E-02  0.1180000E+00
      -11   -1    0    0    0    0  0.00000000000E+00  0.00000000000E+00  0.34996269501E-01  0.35000000000E-01  0.51099999109E-03 0. -1.
       11   -1    0    0    0    0 -0.00000000000E+00 -0.00000000000E+00 -0.34996269501E-01  0.35000000000E-01  0.51099999109E-03 0.  1.
       22    1    1    2    0    0 -0.15791195496E-09 -0.32241127615E-09  0.13911232771E-08  0.14367008000E-08  0.00000000000E+00 0. -1.
       22    1    1    2    0    0 -0.92932091938E-03  0.22591251508E-02  0.34914647613E-01  0.34999998596E-01  0.00000000000E+00 0. -1.
       22    1    1    2    0    0  0.92932107729E-03 -0.22591248284E-02 -0.34914649004E-01  0.34999999967E-01  0.00000000000E+00 0.  1.
</event>
<event>
 5   0  0.6221259E+05  0.9118800E+02  0.7546771E-02  0.1180000E+00
      -11   -1    0    0    0    0  0.00000000000E+00  0.00000000000E+00  0.34996269501E-01  0.35000000000E-01  0.51099999109E-03 0.  1.
       11   -1    0    0    0    0 -0.00000000000E+00 -0.00000000000E+00 -0.34996269501E-01  0.35000000000E-01  0.51099999109E-03 0. -1.
       22    1    1    2    0    0 -0.17025317800E-02 -0.26874897543E-01 -0.19850366207E-01  0.33454383434E-01  0.00000000000E+00 0. -1.
       22    1    1    2    0    0  0.13512844262E-02  0.27103206244E-01  0.13732950313E-01  0.30413873193E-01  0.00000000000E+00 0.  1.
       22    1    1    2    0    0  0.35124735378E-03 -0.22830870173E-03  0.61174158944E-02  0.61317433729E-02  0.00000000000E+00 0. -1.
</event>
<event>
 5   0  0.6221259E+05  0.9118800E+02  0.7546771E-02  0.1180000E+00
      -11   -1    0    0    0    0  0.00000000000E+00  0.00000000000E+00  0.34996269501E-01  0.35000000000E-01  0.51099999109E-03 0. -1.
       11   -1    0    0    0    0 -0.00000000000E+00 -0.00000000000E+00 -0.34996269501E-01  0.35000000000E-01  0.51099999109E-03 0. -1.
       22    1    1    2    0    0  0.13628338289E-03 -0.92621218780E-03 -0.34987384849E-01  0.34999907725E-01  0.00000000000E+00 0. -1.
       22    1    1    2    0    0 -0.13561955767E-03  0.92610149114E-03  0.34986285681E-01  0.34998803442E-01  0.00000000000E+00 0. -1.
       22    1    1    2    0    0 -0.66382522025E-06  0.11069665928E-06  0.10991683154E-05  0.12888322851E-05  0.00000000000E+00 0.  1.
</event>
<event>
 5   0  0.6221259E+05  0.9118800E+02  0.7546771E-02  0.1180000E+00
      -11   -1    0    0    0    0  0.00000000000E+00  0.00000000000E+00  0.34996269501E-01  0.35000000000E-01  0.51099999109E-03 0. -1.
       11   -1    0    0    0    0 -0.00000000000E+00 -0.00000000000E+00 -0.34996269501E-01  0.35000000000E-01  0.51099999109E-03 0.  1.
       22    1    1    2    0    0 -0.39095735304E-02  0.24042758213E-02  0.34599498788E-01  0.34902587637E-01  0.00000000000E+00 0. -1.
       22    1    1    2    0    0  0.39086151737E-02 -0.24044824320E-02 -0.34697378923E-01  0.34999527318E-01  0.00000000000E+00 0.  1.
       22    1    1    2    0    0  0.95835673771E-06  0.20661070077E-06  0.97880135474E-04  0.97885045109E-04  0.00000000000E+00 0. -1.
</event>
<event>
 5   0  0.6221259E+05  0.9118800E+02  0.7546771E-02  0.1180000E+00
      -11   -1    0    0    0    0  0.00000000000E+00  0.00000000000E+00  0.34996269501E-01  0.35000000000E-01  0.51099999109E-03 0.  1.
       11   -1    0    0    0    0 -0.00000000000E+00 -0.00000000000E+00 -0.34996269501E-01  0.35000000000E-01  0.51099999109E-03 0. -1.
       22    1    1    2    0    0 -0.47444262747E-02 -0.20826500901E-02 -0.34614262874E-01  0.34999917234E-01  0.00000000000E+00 0. -1.
       22    1    1    2    0    0  0.47192947520E-02  0.20786946605E-02  0.34467780454E-01  0.34851407488E-01  0.00000000000E+00 0.  1.
       22    1    1    2    0    0  0.25131522679E-04  0.39554295906E-05  0.14648242037E-03  0.14867527815E-03  0.00000000000E+00 0.  1.
</event>
<event>
 5   0  0.6221259E+05  0.9118800E+02  0.7546771E-02  0.1180000E+00
      -11   -1    0    0    0    0  0.00000000000E+00  0.00000000000E+00  0.34996269501E-01  0.35000000000E-01  0.51099999109E-03 0. -1.
       11   -1    0    0    0    0 -0.00000000000E+00 -0.00000000000E+00 -0.34996269501E-01  0.35000000000E-01  0.51099999109E-03 0.  1.
       22    1    1    2    0    0 -0.13774419629E-02  0.75011915510E-02  0.34100167450E-01  0.34942619266E-01  0.00000000000E+00 0. -1.
       22    1    1    2    0    0  0.13327013978E-02 -0.74266925154E-02 -0.34138504404E-01  0.34962398912E-01  0.00000000000E+00 0.  1.
       22    1    1    2    0    0  0.44740565135E-04 -0.74499035568E-04  0.38336953516E-04  0.94981821808E-04  0.00000000000E+00 0.  1.
</event>
<event>
 5   0  0.6221259E+05  0.9118800E+02  0.7546771E-02  0.1180000E+00
      -11   -1    0    0    0    0  0.00000000000E+00  0.00000000000E+00  0.34996269501E-01  0.35000000000E-01  0.51099999109E-03 0. -1.
       11   -1    0    0    0    0 -0.00000000000E+00 -0.00000000000E+00 -0.34996269501E-01  0.35000000000E-01  0.51099999109E-03 0.  1.
       22    1    1    2    0    0 -0.10469260503E-01 -0.75495544877E-02 -0.32526827360E-01  0.34994223617E-01  0.00000000000E+00 0.  1.
       22    1    1    2    0    0 -0.51267631671E-05 -0.37656977838E-05  0.12775731206E-03  0.12791557750E-03  0.00000000000E+00 0. -1.
       22    1    1    2    0    0  0.10474387267E-01  0.75533201855E-02  0.32399070048E-01  0.34877860806E-01  0.00000000000E+00 0. -1.
</event>
<event>
 5   0  0.6221259E+05  0.9118800E+02  0.7546771E-02  0.1180000E+00
      -11   -1    0    0    0    0  0.00000000000E+00  0.00000000000E+00  0.34996269501E-01  0.35000000000E-01  0.51099999109E-03 0.  1.
       11   -1    0    0    0    0 -0.00000000000E+00 -0.00000000000E+00 -0.34996269501E-01  0.35000000000E-01  0.51099999109E-03 0. -1.
       22    1    1    2    0    0 -0.74198378210E-03  0.23554047929E-02 -0.34912769893E-01  0.34999999618E-01  0.00000000000E+00 0. -1.
       22    1    1    2    0    0  0.74198399640E-03 -0.23554051837E-02  0.34912770124E-01  0.34999999880E-01  0.00000000000E+00 0.  1.
       22    1    1    2    0    0 -0.21429729846E-09  0.39082530231E-09 -0.23105746705E-09  0.50205109514E-09  0.00000000000E+00 0. -1.
</event>
<event>
 5   0  0.6221259E+05  0.9118800E+02  0.7546771E-02  0.1180000E+00
      -11   -1    0    0    0    0  0.00000000000E+00  0.00000000000E+00  0.34996269501E-01  0.35000000000E-01  0.51099999109E-03 0.  1.
       11   -1    0    0    0    0 -0.00000000000E+00 -0.00000000000E+00 -0.34996269501E-01  0.35000000000E-01  0.51099999109E-03 0.  1.
       22    1    1    2    0    0 -0.22393407852E-07 -0.37085463467E-08  0.20652887925E-06  0.20777246208E-06  0.00000000000E+00 0.  1.
       22    1    1    2    0    0 -0.21574257022E-11 -0.35728877260E-12 -0.35003012069E-01  0.34999999387E-01  0.00000000000E+00 0.  1.
       22    1    1    2    0    0  0.22395565278E-07  0.37089036355E-08  0.35002805540E-01  0.34999792840E-01  0.00000000000E+00 0.  1.
</event>
<event>
 5   0  0.6221259E+05  0.9118800E+02  0.7546771E-02  0.1180000E+00
      -11   -1    0    0    0    0  0.00000000000E+00  0.00000000000E+00  0.34996269501E-01  0.35000000000E-01  0.51099999109E-03 0. -1.
       11   -1    0    0    0    0 -0.00000000000E+00 -0.00000000000E+00 -0.34996269501E-01  0.35000000000E-01  0.51099999109E-03 0.  1.
       22    1    1    2    0    0 -0.34260261811E-01 -0.14421006808E-02  0.70103486370E-02  0.34999859739E-01  0.00000000000E+00 0. -1.
       22    1    1    2    0    0 -0.11340001679E-07  0.46731992277E-08  0.22434408354E-06  0.22467910950E-06  0.00000000000E+00 0. -1.
       22    1    1    2    0    0  0.34260273151E-01  0.14420960076E-02 -0.70105729810E-02  0.34999915582E-01  0.00000000000E+00 0.  1.
</event>
<event>
 5   0  0.6221259E+05  0.9118800E+02  0.7546771E-02  0.1180000E+00
      -11   -1    0    0    0    0  0.00000000000E+00  0.00000000000E+00  0.34996269501E-01  0.35000000000E-01  0.51099999109E-03 0.  1.
       11   -1    0    0    0    0 -0.00000000000E+00 -0.00000000000E+00 -0.34996269501E-01  0.35000000000E-01  0.51099999109E-03 0. -1.
       22    1    1    2    0    0  0.13770057697E-09  0.12055361719E-08  0.55298316619E-08  0.56613882679E-08  0.00000000000E+00 0.  1.
       22    1    1    2    0    0 -0.40372237183E-02 -0.65070741010E-02  0.34151990172E-01  0.34999994591E-01  0.00000000000E+00 0.  1.
       22    1    1    2    0    0  0.40372235806E-02  0.65070728955E-02 -0.34151995702E-01  0.34999999747E-01  0.00000000000E+00 0. -1.
</event>
<event>
 5   0  0.6221259E+05  0.9118800E+02  0.7546771E-02  0.1180000E+00
      -11   -1    0    0    0    0  0.00000000000E+00  0.00000000000E+00  0.34996269501E-01  0.35000000000E-01  0.51099999109E-03 0.  1.
       11   -1    0    0    0    0 -0.00000000000E+00 -0.00000000000E+00 -0.34996269501E-01  0.35000000000E-01  0.51099999109E-03 0.  1.
       22    1    1    2    0    0 -0.62125454486E-03 -0.10763349864E-02  0.34775691766E-01  0.34797890626E-01  0.00000000000E+00 0.  1.
       22    1    1    2    0    0  0.60818063771E-03  0.10696561227E-02 -0.34977816194E-01  0.34999452476E-01  0.00000000000E+00 0.  1.
       22    1    1    2    0    0  0.13073907148E-04  0.66788637261E-05  0.20212442786E-03  0.20265689873E-03  0.00000000000E+00 0.  1.
</event>
<event>
 5   0  0.6221259E+05  0.9118800E+02  0.7546771E-02  0.1180000E+00
      -11   -1    0    0    0    0  0.00000000000E+00  0.00000000000E+00  0.34996269501E-01  0.35000000000E-01  0.51099999109E-03 0.  1.
       11   -1    0    0    0    0 -0.00000000000E+00 -0.00000000000E+00 -0.34996269501E-01  0.35000000000E-01  0.51099999109E-03 0. -1.
       22    1    1    2    0    0 -0.28224562802E-03  0.34720739775E-01  0.43379630073E-02  0.34991818418E-01  0.00000000000E+00 0. -1.
       22    1    1    2    0    0  0.28238585799E-03 -0.34721264797E-01 -0.43198947950E-02  0.34990105200E-01  0.00000000000E+00 0.  1.
       22    1    1    2    0    0 -0.14022996351E-06  0.52502157076E-06 -0.18068212307E-04  0.18076382605E-04  0.00000000000E+00 0.  1.
</event>
<event>
 5   0  0.6221259E+05  0.9118800E+02  0.7546771E-02  0.1180000E+00
      -11   -1    0    0    0    0  0.00000000000E+00  0.00000000000E+00  0.34996269501E-01  0.35000000000E-01  0.51099999109E-03 0.  1.
       11   -1    0    0    0    0 -0.00000000000E+00 -0.00000000000E+00 -0.34996269501E-01  0.35000000000E-01  0.51099999109E-03 0. -1.
       22    1    1    2    0    0  0.19956699388E-01  0.79360789952E-02 -0.20565074714E-01  0.29735055041E-01  0.00000000000E+00 0. -1.
       22    1    1    2    0    0 -0.20175758846E-01 -0.81358772943E-02  0.26520881785E-01  0.34301762565E-01  0.00000000000E+00 0.  1.
       22    1    1    2    0    0  0.21905945870E-03  0.19979829910E-03 -0.59558070709E-02  0.59631823947E-02  0.00000000000E+00 0.  1.
</event>
<event>
 5   0  0.6221259E+05  0.9118800E+02  0.7546771E-02  0.1180000E+00
      -11   -1    0    0    0    0  0.00000000000E+00  0.00000000000E+00  0.34996269501E-01  0.35000000000E-01  0.51099999109E-03 0. -1.
       11   -1    0    0    0    0 -0.00000000000E+00 -0.00000000000E+00 -0.34996269501E-01  0.35000000000E-01  0.51099999109E-03 0.  1.
       22    1    1    2    0    0  0.15989551366E-02  0.10241289562E-02 -0.17937356730E-02  0.26120844765E-02  0.00000000000E+00 0. -1.
       22    1    1    2    0    0 -0.31607808588E-02 -0.66978893728E-02 -0.32122340391E-01  0.32965087743E-01  0.00000000000E+00 0.  1.
       22    1    1    2    0    0  0.15618257223E-02  0.56737604166E-02  0.33916076064E-01  0.34422827781E-01  0.00000000000E+00 0. -1.
</event>
<event>
 5   0  0.6221259E+05  0.9118800E+02  0.7546771E-02  0.1180000E+00
      -11   -1    0    0    0    0  0.00000000000E+00  0.00000000000E+00  0.34996269501E-01  0.35000000000E-01  0.51099999109E-03 0. -1.
       11   -1    0    0    0    0 -0.00000000000E+00 -0.00000000000E+00 -0.34996269501E-01  0.35000000000E-01  0.51099999109E-03 0.  1.
       22    1    1    2    0    0 -0.36052874857E-03 -0.54315018439E-03 -0.34993758589E-01  0.34999830475E-01  0.00000000000E+00 0.  1.
       22    1    1    2    0    0  0.75196984274E-06 -0.86456415344E-06  0.18045678033E-05  0.21376142721E-05  0.00000000000E+00 0.  1.
       22    1    1    2    0    0  0.35977677873E-03  0.54401474854E-03  0.34991954021E-01  0.34998031910E-01  0.00000000000E+00 0. -1.
</event>
<event>
 5   0  0.6221259E+05  0.9118800E+02  0.7546771E-02  0.1180000E+00
      -11   -1    0    0    0    0  0.00000000000E+00  0.00000000000E+00  0.34996269501E-01  0.35000000000E-01  0.51099999109E-03 0. -1.
       11   -1    0    0    0    0 -0.00000000000E+00 -0.00000000000E+00 -0.34996269501E-01  0.35000000000E-01  0.51099999109E-03 0.  1.
       22    1    1    2    0    0  0.44480220632E-03  0.94160091113E-03  0.34957203587E-01  0.34972711418E-01  0.00000000000E+00 0. -1.
       22    1    1    2    0    0 -0.14445734888E-05 -0.25330532857E-05  0.27260053422E-04  0.27415573386E-04  0.00000000000E+00 0. -1.
       22    1    1    2    0    0 -0.44335763283E-03 -0.93906785784E-03 -0.34984463640E-01  0.34999873009E-01  0.00000000000E+00 0.  1.
</event>
<event>
 5   0  0.6221259E+05  0.9118800E+02  0.7546771E-02  0.1180000E+00
      -11   -1    0    0    0    0  0.00000000000E+00  0.00000000000E+00  0.34996269501E-01  0.35000000000E-01  0.51099999109E-03 0. -1.
       11   -1    0    0    0    0 -0.00000000000E+00 -0.00000000000E+00 -0.34996269501E-01  0.35000000000E-01  0.51099999109E-03 0.  1.
       22    1    1    2    0    0 -0.26247029422E-02 -0.65958728534E-04  0.34841276035E-01  0.34940061989E-01  0.00000000000E+00 0. -1.
       22    1    1    2    0    0 -0.31197680742E-04 -0.21493917348E-03 -0.14527161696E-03  0.26129673988E-03  0.00000000000E+00 0. -1.
       22    1    1    2    0    0  0.26559006230E-02  0.28089790201E-03 -0.34696004418E-01  0.34798641271E-01  0.00000000000E+00 0.  1.
</event>
<event>
 5   0  0.6221259E+05  0.9118800E+02  0.7546771E-02  0.1180000E+00
      -11   -1    0    0    0    0  0.00000000000E+00  0.00000000000E+00  0.34996269501E-01  0.35000000000E-01  0.51099999109E-03 0.  1.
       11   -1    0    0    0    0 -0.00000000000E+00 -0.00000000000E+00 -0.34996269501E-01  0.35000000000E-01  0.51099999109E-03 0. -1.
       22    1    1    2    0    0  0.30789503583E-05  0.12841282440E-05 -0.69045755567E-06  0.34067069572E-05  0.00000000000E+00 0. -1.
       22    1    1    2    0    0  0.19555161371E-01 -0.16851670213E-01  0.23632083796E-01  0.34997978652E-01  0.00000000000E+00 0.  1.
       22    1    1    2    0    0 -0.19558240322E-01  0.16850386084E-01 -0.23631393338E-01  0.34998614641E-01  0.00000000000E+00 0. -1.
</event>
<event>
 5   0  0.6221259E+05  0.9118800E+02  0.7546771E-02  0.1180000E+00
      -11   -1    0    0    0    0  0.00000000000E+00  0.00000000000E+00  0.34996269501E-01  0.35000000000E-01  0.51099999109E-03 0. -1.
       11   -1    0    0    0    0 -0.00000000000E+00 -0.00000000000E+00 -0.34996269501E-01  0.35000000000E-01  0.51099999109E-03 0.  1.
       22    1    1    2    0    0 -0.23752087255E-01  0.24679430598E-01  0.70546322682E-02  0.34971470945E-01  0.00000000000E+00 0. -1.
       22    1    1    2    0    0  0.23773156641E-01 -0.24680100337E-01 -0.70073401024E-02  0.34976751487E-01  0.00000000000E+00 0.  1.
       22    1    1    2    0    0 -0.21069385413E-04  0.66973881703E-06 -0.47292165832E-04  0.51777567544E-04  0.00000000000E+00 0. -1.
</event>
<event>
 5   0  0.6221259E+05  0.9118800E+02  0.7546771E-02  0.1180000E+00
      -11   -1    0    0    0    0  0.00000000000E+00  0.00000000000E+00  0.34996269501E-01  0.35000000000E-01  0.51099999109E-03 0. -1.
       11   -1    0    0    0    0 -0.00000000000E+00 -0.00000000000E+00 -0.34996269501E-01  0.35000000000E-01  0.51099999109E-03 0.  1.
       22    1    1    2    0    0 -0.26776914780E-01  0.76114766576E-03 -0.22525896509E-01  0.34999978920E-01  0.00000000000E+00 0.  1.
       22    1    1    2    0    0 -0.88094388113E-08 -0.29583391314E-08  0.98331285694E-07  0.98769427095E-07  0.00000000000E+00 0. -1.
       22    1    1    2    0    0  0.26776923589E-01 -0.76114470742E-03  0.22525798178E-01  0.34999922310E-01  0.00000000000E+00 0. -1.
</event>
<event>
 5   0  0.6221259E+05  0.9118800E+02  0.7546771E-02  0.1180000E+00
      -11   -1    0    0    0    0  0.00000000000E+00  0.00000000000E+00  0.34996269501E-01  0.35000000000E-01  0.51099999109E-03 0. -1.
       11   -1    0    0    0    0 -0.00000000000E+00 -0.00000000000E+00 -0.34996269501E-01  0.35000000000E-01  0.51099999109E-03 0.  1.
       22    1    1    2    0    0 -0.28362451283E-02  0.17086431349E-02 -0.34843022787E-01  0.34999999782E-01  0.00000000000E+00 0.  1.
       22    1    1    2    0    0  0.13083761192E-08  0.57924244716E-09  0.17712419451E-08  0.22769865854E-08  0.00000000000E+00 0. -1.
       22    1    1    2    0    0  0.28362438200E-02 -0.17086437141E-02  0.34843021016E-01  0.34999997941E-01  0.00000000000E+00 0. -1.
</event>
<event>
 5   0  0.6221259E+05  0.9118800E+02  0.7546771E-02  0.1180000E+00
      -11   -1    0    0    0    0  0.00000000000E+00  0.00000000000E+00  0.34996269501E-01  0.35000000000E-01  0.51099999109E-03 0. -1.
       11   -1    0    0    0    0 -0.00000000000E+00 -0.00000000000E+00 -0.34996269501E-01  0.35000000000E-01  0.51099999109E-03 0.  1.
       22    1    1    2    0    0 -0.39732720040E-03 -0.10706555488E-03 -0.37579701477E-02  0.37804327224E-02  0.00000000000E+00 0. -1.
       22    1    1    2    0    0  0.14743439266E-02 -0.28905319336E-02 -0.31073652325E-01  0.31242610866E-01  0.00000000000E+00 0.  1.
       22    1    1    2    0    0 -0.10770167262E-02  0.29975974885E-02  0.34831622473E-01  0.34976956412E-01  0.00000000000E+00 0. -1.
</event>
<event>
 5   0  0.6221259E+05  0.9118800E+02  0.7546771E-02  0.1180000E+00
      -11   -1    0    0    0    0  0.00000000000E+00  0.00000000000E+00  0.34996269501E-01  0.35000000000E-01  0.51099999109E-03 0. -1.
       11   -1    0    0    0    0 -0.00000000000E+00 -0.00000000000E+00 -0.34996269501E-01  0.35000000000E-01  0.51099999109E-03 0.  1.
       22    1    1    2    0    0 -0.26538459492E-01 -0.84801727833E-03 -0.22802874039E-01  0.34999714712E-01  0.00000000000E+00 0.  1.
       22    1    1    2    0    0 -0.22101098787E-06  0.97790394617E-07  0.10870153909E-05  0.11135579365E-05  0.00000000000E+00 0. -1.
       22    1    1    2    0    0  0.26538680503E-01  0.84791948793E-03  0.22801787023E-01  0.34999171730E-01  0.00000000000E+00 0. -1.
</event>
<event>
 5   0  0.6221259E+05  0.9118800E+02  0.7546771E-02  0.1180000E+00
      -11   -1    0    0    0    0  0.00000000000E+00  0.00000000000E+00  0.34996269501E-01  0.35000000000E-01  0.51099999109E-03 0. -1.
       11   -1    0    0    0    0 -0.00000000000E+00 -0.00000000000E+00 -0.34996269501E-01  0.35000000000E-01  0.51099999109E-03 0. -1.
       22    1    1    2    0    0 -0.95235473161E-03  0.21845634116E-03 -0.34986146418E-01  0.34999787769E-01  0.00000000000E+00 0. -1.
       22    1    1    2    0    0  0.52777108189E-04 -0.26954134193E-04  0.11081992379E-02  0.11097826361E-02  0.00000000000E+00 0.  1.
       22    1    1    2    0    0  0.89957762342E-03 -0.19150220697E-03  0.33877947180E-01  0.33890429595E-01  0.00000000000E+00 0. -1.
</event>
<event>
 5   0  0.6221259E+05  0.9118800E+02  0.7546771E-02  0.1180000E+00
      -11   -1    0    0    0    0  0.00000000000E+00  0.00000000000E+00  0.34996269501E-01  0.35000000000E-01  0.51099999109E-03 0. -1.
       11   -1    0    0    0    0 -0.00000000000E+00 -0.00000000000E+00 -0.34996269501E-01  0.35000000000E-01  0.51099999109E-03 0.  1.
       22    1    1    2    0    0  0.57941352800E-06 -0.98035288863E-07  0.32345909338E-05  0.32875385113E-05  0.00000000000E+00 0.  1.
       22    1    1    2    0    0 -0.20517650482E-01  0.19531693207E-03 -0.28354478096E-01  0.34999836544E-01  0.00000000000E+00 0.  1.
       22    1    1    2    0    0  0.20517071069E-01 -0.19521889678E-03  0.28351243505E-01  0.34996875917E-01  0.00000000000E+00 0. -1.
</event>
<event>
 5   0  0.6221259E+05  0.9118800E+02  0.7546771E-02  0.1180000E+00
      -11   -1    0    0    0    0  0.00000000000E+00  0.00000000000E+00  0.34996269501E-01  0.35000000000E-01  0.51099999109E-03 0. -1.
       11   -1    0    0    0    0 -0.00000000000E+00 -0.00000000000E+00 -0.34996269501E-01  0.35000000000E-01  0.51099999109E-03 0.  1.
       22    1    1    2    0    0  0.52999266933E-04  0.26267825215E-02  0.31451424700E-01  0.31560971325E-01  0.00000000000E+00 0. -1.
       22    1    1    2    0    0 -0.79830919747E-03 -0.27363426428E-03 -0.34503450948E-01  0.34513769724E-01  0.00000000000E+00 0.  1.
       22    1    1    2    0    0  0.74530993053E-03 -0.23531482572E-02  0.30520262479E-02  0.39252589508E-02  0.00000000000E+00 0.  1.
</event>
<event>
 5   0  0.6221259E+05  0.9118800E+02  0.7546771E-02  0.1180000E+00
      -11   -1    0    0    0    0  0.00000000000E+00  0.00000000000E+00  0.34996269501E-01  0.35000000000E-01  0.51099999109E-03 0. -1.
       11   -1    0    0    0    0 -0.00000000000E+00 -0.00000000000E+00 -0.34996269501E-01  0.35000000000E-01  0.51099999109E-03 0.  1.
       22    1    1    2    0    0  0.15287203999E-05 -0.87654450085E-06  0.69838599409E-04  0.69860827963E-04  0.00000000000E+00 0. -1.
       22    1    1    2    0    0  0.19917136253E-03 -0.31121204633E-03  0.34928189695E-01  0.34930143967E-01  0.00000000000E+00 0. -1.
       22    1    1    2    0    0 -0.20070008292E-03  0.31208859083E-03 -0.34998028295E-01  0.34999995205E-01  0.00000000000E+00 0.  1.
</event>
<event>
 5   0  0.6221259E+05  0.9118800E+02  0.7546771E-02  0.1180000E+00
      -11   -1    0    0    0    0  0.00000000000E+00  0.00000000000E+00  0.34996269501E-01  0.35000000000E-01  0.51099999109E-03 0.  1.
       11   -1    0    0    0    0 -0.00000000000E+00 -0.00000000000E+00 -0.34996269501E-01  0.35000000000E-01  0.51099999109E-03 0. -1.
       22    1    1    2    0    0  0.18240510001E-02  0.19648556363E-03  0.34951882450E-01  0.34999997935E-01  0.00000000000E+00 0.  1.
       22    1    1    2    0    0 -0.45913249518E-09  0.62949151936E-09  0.20037867923E-08  0.21499357503E-08  0.00000000000E+00 0. -1.
       22    1    1    2    0    0 -0.18240505409E-02 -0.19648619312E-03 -0.34951884454E-01  0.34999999915E-01  0.00000000000E+00 0. -1.
</event>
<event>
 5   0  0.6221259E+05  0.9118800E+02  0.7546771E-02  0.1180000E+00
      -11   -1    0    0    0    0  0.00000000000E+00  0.00000000000E+00  0.34996269501E-01  0.35000000000E-01  0.51099999109E-03 0. -1.
       11   -1    0    0    0    0 -0.00000000000E+00 -0.00000000000E+00 -0.34996269501E-01  0.35000000000E-01  0.51099999109E-03 0.  1.
       22    1    1    2    0    0  0.64090032240E-02 -0.16467857077E-02  0.34347048078E-01  0.34978664028E-01  0.00000000000E+00 0. -1.
       22    1    1    2    0    0 -0.24504866297E-05  0.35063574221E-05  0.21628355052E-04  0.22047339281E-04  0.00000000000E+00 0. -1.
       22    1    1    2    0    0 -0.64065527374E-02  0.16432793503E-02 -0.34368676433E-01  0.34999288633E-01  0.00000000000E+00 0.  1.
</event>
<event>
 5   0  0.6221259E+05  0.9118800E+02  0.7546771E-02  0.1180000E+00
      -11   -1    0    0    0    0  0.00000000000E+00  0.00000000000E+00  0.34996269501E-01  0.35000000000E-01  0.51099999109E-03 0. -1.
       11   -1    0    0    0    0 -0.00000000000E+00 -0.00000000000E+00 -0.34996269501E-01  0.35000000000E-01  0.51099999109E-03 0. -1.
       22    1    1    2    0    0  0.53206130173E-02 -0.41766506764E-02 -0.10615020535E-01  0.12586977187E-01  0.00000000000E+00 0. -1.
       22    1    1    2    0    0 -0.13535727217E-01  0.58383806147E-03 -0.20755622123E-01  0.24786137817E-01  0.00000000000E+00 0. -1.
       22    1    1    2    0    0  0.82151141999E-02  0.35928126150E-02  0.31370642657E-01  0.32626884996E-01  0.00000000000E+00 0. -1.
</event>
<event>
 5   0  0.6221259E+05  0.9118800E+02  0.7546771E-02  0.1180000E+00
      -11   -1    0    0    0    0  0.00000000000E+00  0.00000000000E+00  0.34996269501E-01  0.35000000000E-01  0.51099999109E-03 0. -1.
       11   -1    0    0    0    0 -0.00000000000E+00 -0.00000000000E+00 -0.34996269501E-01  0.35000000000E-01  0.51099999109E-03 0. -1.
       22    1    1    2    0    0  0.14332452022E-02 -0.43559146374E-03  0.27384908632E-01  0.27425848255E-01  0.00000000000E+00 0. -1.
       22    1    1    2    0    0 -0.23380022746E-03  0.42404405687E-03 -0.34930479123E-01  0.34933835284E-01  0.00000000000E+00 0. -1.
       22    1    1    2    0    0 -0.11994449747E-02  0.11547406869E-04  0.75455704909E-02  0.76403164609E-02  0.00000000000E+00 0.  1.
</event>
<event>
 5   0  0.6221259E+05  0.9118800E+02  0.7546771E-02  0.1180000E+00
      -11   -1    0    0    0    0  0.00000000000E+00  0.00000000000E+00  0.34996269501E-01  0.35000000000E-01  0.51099999109E-03 0. -1.
       11   -1    0    0    0    0 -0.00000000000E+00 -0.00000000000E+00 -0.34996269501E-01  0.35000000000E-01  0.51099999109E-03 0.  1.
       22    1    1    2    0    0 -0.26288867209E-06 -0.25171719589E-05  0.12722308891E-03  0.12724825978E-03  0.00000000000E+00 0.  1.
       22    1    1    2    0    0  0.31817337254E-01  0.13436182823E-01 -0.53280811186E-02  0.34946565028E-01  0.00000000000E+00 0. -1.
       22    1    1    2    0    0 -0.31817074366E-01 -0.13433665651E-01  0.52008580297E-02  0.34926186713E-01  0.00000000000E+00 0.  1.
</event>
<event>
 5   0  0.6221259E+05  0.9118800E+02  0.7546771E-02  0.1180000E+00
      -11   -1    0    0    0    0  0.00000000000E+00  0.00000000000E+00  0.34996269501E-01  0.35000000000E-01  0.51099999109E-03 0.  1.
       11   -1    0    0    0    0 -0.00000000000E+00 -0.00000000000E+00 -0.34996269501E-01  0.35000000000E-01  0.51099999109E-03 0. -1.
       22    1    1    2    0    0 -0.39651121808E-02 -0.54951275051E-02  0.34282637522E-01  0.34945926463E-01  0.00000000000E+00 0.  1.
       22    1    1    2    0    0 -0.99998502419E-06  0.75718135824E-06  0.54586353756E-04  0.54600762907E-04  0.00000000000E+00 0. -1.
       22    1    1    2    0    0  0.39661121658E-02  0.54943703238E-02 -0.34337223876E-01  0.34999472774E-01  0.00000000000E+00 0. -1.
</event>
<event>
 5   0  0.6221259E+05  0.9118800E+02  0.7546771E-02  0.1180000E+00
      -11   -1    0    0    0    0  0.00000000000E+00  0.00000000000E+00  0.34996269501E-01  0.35000000000E-01  0.51099999109E-03 0.  1.
       11   -1    0    0    0    0 -0.00000000000E+00 -0.00000000000E+00 -0.34996269501E-01  0.35000000000E-01  0.51099999109E-03 0. -1.
       22    1    1    2    0    0  0.10891211432E-02  0.13184585261E-03  0.32552767464E-01  0.32571248637E-01  0.00000000000E+00 0.  1.
       22    1    1    2    0    0 -0.78028478679E-03  0.12186835145E-03  0.23728625315E-02  0.25008344282E-02  0.00000000000E+00 0. -1.
       22    1    1    2    0    0 -0.30883635639E-03 -0.25371420406E-03 -0.34925629996E-01  0.34927916935E-01  0.00000000000E+00 0. -1.
</event>
<event>
 5   0  0.6221259E+05  0.9118800E+02  0.7546771E-02  0.1180000E+00
      -11   -1    0    0    0    0  0.00000000000E+00  0.00000000000E+00  0.34996269501E-01  0.35000000000E-01  0.51099999109E-03 0. -1.
       11   -1    0    0    0    0 -0.00000000000E+00 -0.00000000000E+00 -0.34996269501E-01  0.35000000000E-01  0.51099999109E-03 0.  1.
       22    1    1    2    0    0 -0.14366795835E-03  0.54930281793E-03 -0.34911831824E-01  0.34916448494E-01  0.00000000000E+00 0.  1.
       22    1    1    2    0    0  0.16439593583E-03 -0.63252312986E-03  0.34972432644E-01  0.34978538514E-01  0.00000000000E+00 0. -1.
       22    1    1    2    0    0 -0.20727977489E-04  0.83220311935E-04 -0.60600819300E-04  0.10501299286E-03  0.00000000000E+00 0. -1.
</event>
<event>
 5   0  0.6221259E+05  0.9118800E+02  0.7546771E-02  0.1180000E+00
      -11   -1    0    0    0    0  0.00000000000E+00  0.00000000000E+00  0.34996269501E-01  0.35000000000E-01  0.51099999109E-03 0. -1.
       11   -1    0    0    0    0 -0.00000000000E+00 -0.00000000000E+00 -0.34996269501E-01  0.35000000000E-01  0.51099999109E-03 0.  1.
       22    1    1    2    0    0 -0.17294587703E-02 -0.27788261688E-04  0.32259760080E-01  0.32306097261E-01  0.00000000000E+00 0. -1.
       22    1    1    2    0    0 -0.13676479864E-02 -0.15582174281E-02  0.22208296923E-02  0.30381881262E-02  0.00000000000E+00 0. -1.
       22    1    1    2    0    0  0.30971067566E-02  0.15860056898E-02 -0.34480589772E-01  0.34655714613E-01  0.00000000000E+00 0.  1.
</event>
<event>
 5   0  0.6221259E+05  0.9118800E+02  0.7546771E-02  0.1180000E+00
      -11   -1    0    0    0    0  0.00000000000E+00  0.00000000000E+00  0.34996269501E-01  0.35000000000E-01  0.51099999109E-03 0.  1.
       11   -1    0    0    0    0 -0.00000000000E+00 -0.00000000000E+00 -0.34996269501E-01  0.35000000000E-01  0.51099999109E-03 0. -1.
       22    1    1    2    0    0  0.57118551034E-09 -0.89752029973E-09  0.74796736594E-08  0.75549529202E-08  0.00000000000E+00 0.  1.
       22    1    1    2    0    0 -0.26381051317E-02  0.14509333194E-02  0.34870254822E-01  0.34999992537E-01  0.00000000000E+00 0.  1.
       22    1    1    2    0    0  0.26381045605E-02 -0.14509324218E-02 -0.34870262302E-01  0.34999999908E-01  0.00000000000E+00 0. -1.
</event>
<event>
 5   0  0.6221259E+05  0.9118800E+02  0.7546771E-02  0.1180000E+00
      -11   -1    0    0    0    0  0.00000000000E+00  0.00000000000E+00  0.34996269501E-01  0.35000000000E-01  0.51099999109E-03 0. -1.
       11   -1    0    0    0    0 -0.00000000000E+00 -0.00000000000E+00 -0.34996269501E-01  0.35000000000E-01  0.51099999109E-03 0.  1.
       22    1    1    2    0    0 -0.41997570875E-08  0.19470184737E-08  0.58009602048E-08  0.74215887672E-08  0.00000000000E+00 0.  1.
       22    1    1    2    0    0  0.69001035408E-03  0.24447544356E-02 -0.34907692595E-01  0.34999999155E-01  0.00000000000E+00 0.  1.
       22    1    1    2    0    0 -0.69000615432E-03 -0.24447563826E-02  0.34907686795E-01  0.34999993423E-01  0.00000000000E+00 0. -1.
</event>
<event>
 5   0  0.6221259E+05  0.9118800E+02  0.7546771E-02  0.1180000E+00
      -11   -1    0    0    0    0  0.00000000000E+00  0.00000000000E+00  0.34996269501E-01  0.35000000000E-01  0.51099999109E-03 0.  1.
       11   -1    0    0    0    0 -0.00000000000E+00 -0.00000000000E+00 -0.34996269501E-01  0.35000000000E-01  0.51099999109E-03 0. -1.
       22    1    1    2    0    0  0.88094671669E-09  0.55458800459E-09 -0.40766457980E-09  0.11179558945E-08  0.00000000000E+00 0.  1.
       22    1    1    2    0    0  0.29824131039E-02 -0.60985618224E-02  0.34335298621E-01  0.34999999652E-01  0.00000000000E+00 0.  1.
       22    1    1    2    0    0 -0.29824139848E-02  0.60985612678E-02 -0.34335298213E-01  0.34999999230E-01  0.00000000000E+00 0. -1.
</event>
<event>
 5   0  0.6221259E+05  0.9118800E+02  0.7546771E-02  0.1180000E+00
      -11   -1    0    0    0    0  0.00000000000E+00  0.00000000000E+00  0.34996269501E-01  0.35000000000E-01  0.51099999109E-03 0. -1.
       11   -1    0    0    0    0 -0.00000000000E+00 -0.00000000000E+00 -0.34996269501E-01  0.35000000000E-01  0.51099999109E-03 0. -1.
       22    1    1    2    0    0 -0.21971100359E-03  0.17959983401E-03  0.34985161039E-01  0.34986311922E-01  0.00000000000E+00 0. -1.
       22    1    1    2    0    0  0.34890688986E-03 -0.53630813820E-03 -0.78989048386E-02  0.79247750811E-02  0.00000000000E+00 0.  1.
       22    1    1    2    0    0 -0.12919588627E-03  0.35670830418E-03 -0.27086256200E-01  0.27088912997E-01  0.00000000000E+00 0. -1.
</event>
<event>
 5   0  0.6221259E+05  0.9118800E+02  0.7546771E-02  0.1180000E+00
      -11   -1    0    0    0    0  0.00000000000E+00  0.00000000000E+00  0.34996269501E-01  0.35000000000E-01  0.51099999109E-03 0. -1.
       11   -1    0    0    0    0 -0.00000000000E+00 -0.00000000000E+00 -0.34996269501E-01  0.35000000000E-01  0.51099999109E-03 0.  1.
       22    1    1    2    0    0 -0.20422424652E-01  0.25529933845E-01  0.32647563075E-02  0.32855921606E-01  0.00000000000E+00 0.  1.
       22    1    1    2    0    0  0.21767145386E-01 -0.27206073624E-01 -0.32686486059E-02  0.34995187155E-01  0.00000000000E+00 0. -1.
       22    1    1    2    0    0 -0.13447207335E-02  0.16761397791E-02  0.38922983487E-05  0.21488912397E-02  0.00000000000E+00 0.  1.
</event>
<event>
 5   0  0.6221259E+05  0.9118800E+02  0.7546771E-02  0.1180000E+00
      -11   -1    0    0    0    0  0.00000000000E+00  0.00000000000E+00  0.34996269501E-01  0.35000000000E-01  0.51099999109E-03 0.  1.
       11   -1    0    0    0    0 -0.00000000000E+00 -0.00000000000E+00 -0.34996269501E-01  0.35000000000E-01  0.51099999109E-03 0. -1.
       22    1    1    2    0    0 -0.30689889888E-02 -0.79069776164E-02  0.21848598205E-01  0.23437154946E-01  0.00000000000E+00 0.  1.
       22    1    1    2    0    0  0.58918981418E-03  0.49032927252E-03  0.11897656137E-01  0.11922323137E-01  0.00000000000E+00 0.  1.
       22    1    1    2    0    0  0.24797991746E-02  0.74166483439E-02 -0.33746254342E-01  0.34640521917E-01  0.00000000000E+00 0. -1.
</event>
<event>
 5   0  0.6221259E+05  0.9118800E+02  0.7546771E-02  0.1180000E+00
      -11   -1    0    0    0    0  0.00000000000E+00  0.00000000000E+00  0.34996269501E-01  0.35000000000E-01  0.51099999109E-03 0.  1.
       11   -1    0    0    0    0 -0.00000000000E+00 -0.00000000000E+00 -0.34996269501E-01  0.35000000000E-01  0.51099999109E-03 0. -1.
       22    1    1    2    0    0  0.43457768828E-04  0.43942258116E-03 -0.90556602717E-03  0.10074872764E-02  0.00000000000E+00 0. -1.
       22    1    1    2    0    0  0.50518375243E-03  0.50648243289E-03  0.34936595924E-01  0.34943918925E-01  0.00000000000E+00 0.  1.
       22    1    1    2    0    0 -0.54864152126E-03 -0.94590501405E-03 -0.34031029897E-01  0.34048593799E-01  0.00000000000E+00 0. -1.
</event>
<event>
 5   0  0.6221259E+05  0.9118800E+02  0.7546771E-02  0.1180000E+00
      -11   -1    0    0    0    0  0.00000000000E+00  0.00000000000E+00  0.34996269501E-01  0.35000000000E-01  0.51099999109E-03 0.  1.
       11   -1    0    0    0    0 -0.00000000000E+00 -0.00000000000E+00 -0.34996269501E-01  0.35000000000E-01  0.51099999109E-03 0. -1.
       22    1    1    2    0    0 -0.13460361619E-02 -0.49093756353E-02  0.33948566042E-01  0.34328106834E-01  0.00000000000E+00 0.  1.
       22    1    1    2    0    0  0.11018313379E-03 -0.40496970647E-04  0.66959816092E-03  0.67981028583E-03  0.00000000000E+00 0.  1.
       22    1    1    2    0    0  0.12358530281E-02  0.49498726059E-02 -0.34618164203E-01  0.34992082880E-01  0.00000000000E+00 0. -1.
</event>
<event>
 5   0  0.6221259E+05  0.9118800E+02  0.7546771E-02  0.1180000E+00
      -11   -1    0    0    0    0  0.00000000000E+00  0.00000000000E+00  0.34996269501E-01  0.35000000000E-01  0.51099999109E-03 0. -1.
       11   -1    0    0    0    0 -0.00000000000E+00 -0.00000000000E+00 -0.34996269501E-01  0.35000000000E-01  0.51099999109E-03 0.  1.
       22    1    1    2    0    0  0.17875896454E-02  0.18546107582E-02 -0.34904934258E-01  0.34999849905E-01  0.00000000000E+00 0.  1.
       22    1    1    2    0    0 -0.17858181958E-02 -0.18522000546E-02  0.34723437742E-01  0.34818628926E-01  0.00000000000E+00 0. -1.
       22    1    1    2    0    0 -0.17714496431E-05 -0.24107035159E-05  0.18149651577E-03  0.18152116891E-03  0.00000000000E+00 0.  1.
</event>
<event>
 5   0  0.6221259E+05  0.9118800E+02  0.7546771E-02  0.1180000E+00
      -11   -1    0    0    0    0  0.00000000000E+00  0.00000000000E+00  0.34996269501E-01  0.35000000000E-01  0.51099999109E-03 0. -1.
       11   -1    0    0    0    0 -0.00000000000E+00 -0.00000000000E+00 -0.34996269501E-01  0.35000000000E-01  0.51099999109E-03 0.  1.
       22    1    1    2    0    0  0.21134548889E-03 -0.12365453968E-01 -0.32742188071E-01  0.34999999978E-01  0.00000000000E+00 0.  1.
       22    1    1    2    0    0 -0.21134598024E-03  0.12365452163E-01  0.32742184232E-01  0.34999995752E-01  0.00000000000E+00 0. -1.
       22    1    1    2    0    0  0.49135110200E-09  0.18047590965E-08  0.38391059921E-08  0.42705170789E-08  0.00000000000E+00 0.  1.
</event>
<event>
 5   0  0.6221259E+05  0.9118800E+02  0.7546771E-02  0.1180000E+00
      -11   -1    0    0    0    0  0.00000000000E+00  0.00000000000E+00  0.34996269501E-01  0.35000000000E-01  0.51099999109E-03 0.  1.
       11   -1    0    0    0    0 -0.00000000000E+00 -0.00000000000E+00 -0.34996269501E-01  0.35000000000E-01  0.51099999109E-03 0. -1.
       22    1    1    2    0    0 -0.68126197041E-02  0.11250624086E-01  0.32434249863E-01  0.34999555622E-01  0.00000000000E+00 0.  1.
       22    1    1    2    0    0  0.68126224099E-02 -0.11250623201E-01 -0.32434711016E-01  0.34999983217E-01  0.00000000000E+00 0. -1.
       22    1    1    2    0    0 -0.27057633120E-08 -0.88551372625E-09  0.46115243013E-06  0.46116121812E-06  0.00000000000E+00 0.  1.
</event>
<event>
 5   0  0.6221259E+05  0.9118800E+02  0.7546771E-02  0.1180000E+00
      -11   -1    0    0    0    0  0.00000000000E+00  0.00000000000E+00  0.34996269501E-01  0.35000000000E-01  0.51099999109E-03 0.  1.
       11   -1    0    0    0    0 -0.00000000000E+00 -0.00000000000E+00 -0.34996269501E-01  0.35000000000E-01  0.51099999109E-03 0. -1.
       22    1    1    2    0    0 -0.69123830313E-04 -0.76201394338E-04 -0.12303555013E-03  0.16038236503E-03  0.00000000000E+00 0.  1.
       22    1    1    2    0    0 -0.15873178793E-01 -0.14524501791E-02 -0.30988665078E-01  0.34847737083E-01  0.00000000000E+00 0. -1.
       22    1    1    2    0    0  0.15942302624E-01  0.15286515734E-02  0.31111700628E-01  0.34991880552E-01  0.00000000000E+00 0.  1.
</event>
<event>
 5   0  0.6221259E+05  0.9118800E+02  0.7546771E-02  0.1180000E+00
      -11   -1    0    0    0    0  0.00000000000E+00  0.00000000000E+00  0.34996269501E-01  0.35000000000E-01  0.51099999109E-03 0.  1.
       11   -1    0    0    0    0 -0.00000000000E+00 -0.00000000000E+00 -0.34996269501E-01  0.35000000000E-01  0.51099999109E-03 0. -1.
       22    1    1    2    0    0  0.39828265772E-03 -0.72829173740E-02 -0.34231563090E-01  0.34999991802E-01  0.00000000000E+00 0. -1.
       22    1    1    2    0    0 -0.39830762392E-03  0.72829459287E-02  0.34231481407E-01  0.34999918138E-01  0.00000000000E+00 0.  1.
       22    1    1    2    0    0  0.24966198767E-07 -0.28554678179E-07  0.81683222365E-07  0.90060144030E-07  0.00000000000E+00 0. -1.
</event>
<event>
 5   0  0.6221259E+05  0.9118800E+02  0.7546771E-02  0.1180000E+00
      -11   -1    0    0    0    0  0.00000000000E+00  0.00000000000E+00  0.34996269501E-01  0.35000000000E-01  0.51099999109E-03 0. -1.
       11   -1    0    0    0    0 -0.00000000000E+00 -0.00000000000E+00 -0.34996269501E-01  0.35000000000E-01  0.51099999109E-03 0. -1.
       22    1    1    2    0    0 -0.73541584209E-08  0.27716161759E-08  0.77481103881E-07  0.77878668202E-07  0.00000000000E+00 0.  1.
       22    1    1    2    0    0  0.73547402600E-08 -0.27718354579E-08  0.35001729417E-01  0.34999922318E-01  0.00000000000E+00 0. -1.
       22    1    1    2    0    0 -0.58183919321E-12  0.21928204798E-12 -0.35001806898E-01  0.34999999803E-01  0.00000000000E+00 0. -1.
</event>
<event>
 5   0  0.6221259E+05  0.9118800E+02  0.7546771E-02  0.1180000E+00
      -11   -1    0    0    0    0  0.00000000000E+00  0.00000000000E+00  0.34996269501E-01  0.35000000000E-01  0.51099999109E-03 0. -1.
       11   -1    0    0    0    0 -0.00000000000E+00 -0.00000000000E+00 -0.34996269501E-01  0.35000000000E-01  0.51099999109E-03 0.  1.
       22    1    1    2    0    0  0.95676652358E-06 -0.23267952796E-05  0.16208770330E-05  0.29927614021E-05  0.00000000000E+00 0. -1.
       22    1    1    2    0    0 -0.89716034320E-03  0.33791173480E-02 -0.34824374914E-01  0.34999434551E-01  0.00000000000E+00 0.  1.
       22    1    1    2    0    0  0.89620357668E-03 -0.33767905527E-02  0.34822754037E-01  0.34997572688E-01  0.00000000000E+00 0. -1.
</event>
<event>
 5   0  0.6221259E+05  0.9118800E+02  0.7546771E-02  0.1180000E+00
      -11   -1    0    0    0    0  0.00000000000E+00  0.00000000000E+00  0.34996269501E-01  0.35000000000E-01  0.51099999109E-03 0. -1.
       11   -1    0    0    0    0 -0.00000000000E+00 -0.00000000000E+00 -0.34996269501E-01  0.35000000000E-01  0.51099999109E-03 0.  1.
       22    1    1    2    0    0 -0.15201533777E-02 -0.14838793094E-03 -0.34117630846E-01  0.34151802585E-01  0.00000000000E+00 0.  1.
       22    1    1    2    0    0  0.76796661514E-04  0.22150093072E-03 -0.83419219675E-03  0.86650851735E-03  0.00000000000E+00 0.  1.
       22    1    1    2    0    0  0.14433567162E-02 -0.73112999774E-04  0.34951823043E-01  0.34981688898E-01  0.00000000000E+00 0. -1.
</event>
<event>
 5   0  0.6221259E+05  0.9118800E+02  0.7546771E-02  0.1180000E+00
      -11   -1    0    0    0    0  0.00000000000E+00  0.00000000000E+00  0.34996269501E-01  0.35000000000E-01  0.51099999109E-03 0.  1.
       11   -1    0    0    0    0 -0.00000000000E+00 -0.00000000000E+00 -0.34996269501E-01  0.35000000000E-01  0.51099999109E-03 0. -1.
       22    1    1    2    0    0  0.29281810026E-09 -0.19067101261E-09  0.43347161054E-09  0.55677240596E-09  0.00000000000E+00 0. -1.
       22    1    1    2    0    0  0.89663089009E-02  0.13901347914E-01 -0.30844088976E-01  0.34999999913E-01  0.00000000000E+00 0. -1.
       22    1    1    2    0    0 -0.89663091937E-02 -0.13901347723E-01  0.30844088543E-01  0.34999999530E-01  0.00000000000E+00 0.  1.
</event>
<event>
 5   0  0.6221259E+05  0.9118800E+02  0.7546771E-02  0.1180000E+00
      -11   -1    0    0    0    0  0.00000000000E+00  0.00000000000E+00  0.34996269501E-01  0.35000000000E-01  0.51099999109E-03 0. -1.
       11   -1    0    0    0    0 -0.00000000000E+00 -0.00000000000E+00 -0.34996269501E-01  0.35000000000E-01  0.51099999109E-03 0.  1.
       22    1    1    2    0    0  0.75164299235E-02  0.39261983638E-02 -0.33950334774E-01  0.34993384855E-01  0.00000000000E+00 0.  1.
       22    1    1    2    0    0 -0.75201110331E-02 -0.39102965377E-02  0.33947996057E-01  0.34990126111E-01  0.00000000000E+00 0. -1.
       22    1    1    2    0    0  0.36811096871E-05 -0.15901826152E-04  0.23387164529E-05  0.16489033875E-04  0.00000000000E+00 0. -1.
</event>
<event>
 5   0  0.6221259E+05  0.9118800E+02  0.7546771E-02  0.1180000E+00
      -11   -1    0    0    0    0  0.00000000000E+00  0.00000000000E+00  0.34996269501E-01  0.35000000000E-01  0.51099999109E-03 0.  1.
       11   -1    0    0    0    0 -0.00000000000E+00 -0.00000000000E+00 -0.34996269501E-01  0.35000000000E-01  0.51099999109E-03 0. -1.
       22    1    1    2    0    0  0.51831983349E-04 -0.14154153688E-04  0.50324016504E-04  0.73616582382E-04  0.00000000000E+00 0. -1.
       22    1    1    2    0    0 -0.23412275620E-03  0.82542377767E-03  0.34927820626E-01  0.34938357024E-01  0.00000000000E+00 0.  1.
       22    1    1    2    0    0  0.18229077285E-03 -0.81126962398E-03 -0.34978144642E-01  0.34988026394E-01  0.00000000000E+00 0. -1.
</event>
<event>
 5   0  0.6221259E+05  0.9118800E+02  0.7546771E-02  0.1180000E+00
      -11   -1    0    0    0    0  0.00000000000E+00  0.00000000000E+00  0.34996269501E-01  0.35000000000E-01  0.51099999109E-03 0.  1.
       11   -1    0    0    0    0 -0.00000000000E+00 -0.00000000000E+00 -0.34996269501E-01  0.35000000000E-01  0.51099999109E-03 0. -1.
       22    1    1    2    0    0 -0.86558143829E-06  0.42838836057E-06  0.18016363968E-04  0.18042231526E-04  0.00000000000E+00 0.  1.
       22    1    1    2    0    0 -0.93337904101E-02 -0.69577031262E-04  0.33713922671E-01  0.34982182125E-01  0.00000000000E+00 0.  1.
       22    1    1    2    0    0  0.93346559915E-02  0.69148642901E-04 -0.33731939035E-01  0.34999775643E-01  0.00000000000E+00 0. -1.
</event>
<event>
 5   0  0.6221259E+05  0.9118800E+02  0.7546771E-02  0.1180000E+00
      -11   -1    0    0    0    0  0.00000000000E+00  0.00000000000E+00  0.34996269501E-01  0.35000000000E-01  0.51099999109E-03 0.  1.
       11   -1    0    0    0    0 -0.00000000000E+00 -0.00000000000E+00 -0.34996269501E-01  0.35000000000E-01  0.51099999109E-03 0. -1.
       22    1    1    2    0    0 -0.30411535538E-01  0.73946231289E-02 -0.15666847739E-01  0.34999886615E-01  0.00000000000E+00 0. -1.
       22    1    1    2    0    0  0.11953370421E-06 -0.11095321969E-06  0.60169366179E-06  0.62340531442E-06  0.00000000000E+00 0.  1.
       22    1    1    2    0    0  0.30411416004E-01 -0.73945121756E-02  0.15666246046E-01  0.34999489980E-01  0.00000000000E+00 0.  1.
</event>
<event>
 5   0  0.6221259E+05  0.9118800E+02  0.7546771E-02  0.1180000E+00
      -11   -1    0    0    0    0  0.00000000000E+00  0.00000000000E+00  0.34996269501E-01  0.35000000000E-01  0.51099999109E-03 0.  1.
       11   -1    0    0    0    0 -0.00000000000E+00 -0.00000000000E+00 -0.34996269501E-01  0.35000000000E-01  0.51099999109E-03 0. -1.
       22    1    1    2    0    0  0.16117238861E-02 -0.37851799981E-02 -0.34757368419E-01  0.34999998585E-01  0.00000000000E+00 0. -1.
       22    1    1    2    0    0 -0.16117251668E-02  0.37851910404E-02  0.34757191084E-01  0.34999823732E-01  0.00000000000E+00 0.  1.
       22    1    1    2    0    0  0.12807053132E-08 -0.11042285786E-07  0.17733521720E-06  0.17768328999E-06  0.00000000000E+00 0.  1.
</event>
<event>
 5   0  0.6221259E+05  0.9118800E+02  0.7546771E-02  0.1180000E+00
      -11   -1    0    0    0    0  0.00000000000E+00  0.00000000000E+00  0.34996269501E-01  0.35000000000E-01  0.51099999109E-03 0. -1.
       11   -1    0    0    0    0 -0.00000000000E+00 -0.00000000000E+00 -0.34996269501E-01  0.35000000000E-01  0.51099999109E-03 0.  1.
       22    1    1    2    0    0  0.60316809153E-06  0.48405810974E-07  0.85457346151E-05  0.85671310823E-05  0.00000000000E+00 0. -1.
       22    1    1    2    0    0 -0.30216008918E-02  0.83183777578E-02  0.33853903496E-01  0.34991602741E-01  0.00000000000E+00 0. -1.
       22    1    1    2    0    0  0.30209977237E-02 -0.83184261636E-02 -0.33862449231E-01  0.34999830128E-01  0.00000000000E+00 0.  1.
</event>
<event>
 5   0  0.6221259E+05  0.9118800E+02  0.7546771E-02  0.1180000E+00
      -11   -1    0    0    0    0  0.00000000000E+00  0.00000000000E+00  0.34996269501E-01  0.35000000000E-01  0.51099999109E-03 0.  1.
       11   -1    0    0    0    0 -0.00000000000E+00 -0.00000000000E+00 -0.34996269501E-01  0.35000000000E-01  0.51099999109E-03 0. -1.
       22    1    1    2    0    0 -0.11832293282E-02 -0.11656407278E-02 -0.34840505193E-01  0.34880073854E-01  0.00000000000E+00 0. -1.
       22    1    1    2    0    0 -0.52238242768E-03 -0.20226005491E-04  0.27113849100E-01  0.27118888353E-01  0.00000000000E+00 0.  1.
       22    1    1    2    0    0  0.17056117559E-02  0.11858667333E-02  0.77266560936E-02  0.80010377927E-02  0.00000000000E+00 0.  1.
</event>
<event>
 5   0  0.6221259E+05  0.9118800E+02  0.7546771E-02  0.1180000E+00
      -11   -1    0    0    0    0  0.00000000000E+00  0.00000000000E+00  0.34996269501E-01  0.35000000000E-01  0.51099999109E-03 0.  1.
       11   -1    0    0    0    0 -0.00000000000E+00 -0.00000000000E+00 -0.34996269501E-01  0.35000000000E-01  0.51099999109E-03 0. -1.
       22    1    1    2    0    0 -0.10746368105E-02  0.29984123588E-02 -0.34831217733E-01  0.34976549997E-01  0.00000000000E+00 0. -1.
       22    1    1    2    0    0  0.10790763238E-02 -0.29241697129E-02  0.34805453340E-01  0.34944738608E-01  0.00000000000E+00 0.  1.
       22    1    1    2    0    0 -0.44395133061E-05 -0.74242645910E-04  0.25764392971E-04  0.78711394952E-04  0.00000000000E+00 0.  1.
</event>
<event>
 5   0  0.6221259E+05  0.9118800E+02  0.7546771E-02  0.1180000E+00
      -11   -1    0    0    0    0  0.00000000000E+00  0.00000000000E+00  0.34996269501E-01  0.35000000000E-01  0.51099999109E-03 0. -1.
       11   -1    0    0    0    0 -0.00000000000E+00 -0.00000000000E+00 -0.34996269501E-01  0.35000000000E-01  0.51099999109E-03 0.  1.
       22    1    1    2    0    0 -0.53852587205E-02  0.30478245062E-01  0.16320944610E-01  0.34989965226E-01  0.00000000000E+00 0. -1.
       22    1    1    2    0    0  0.53869260992E-02 -0.30476003503E-01 -0.16335605108E-01  0.34995110467E-01  0.00000000000E+00 0.  1.
       22    1    1    2    0    0 -0.16673787080E-05 -0.22415592652E-05  0.14660498005E-04  0.14924307067E-04  0.00000000000E+00 0.  1.
</event>
<event>
 5   0  0.6221259E+05  0.9118800E+02  0.7546771E-02  0.1180000E+00
      -11   -1    0    0    0    0  0.00000000000E+00  0.00000000000E+00  0.34996269501E-01  0.35000000000E-01  0.51099999109E-03 0.  1.
       11   -1    0    0    0    0 -0.00000000000E+00 -0.00000000000E+00 -0.34996269501E-01  0.35000000000E-01  0.51099999109E-03 0. -1.
       22    1    1    2    0    0 -0.21745185698E-02 -0.13096326603E-03  0.34708618093E-01  0.34776915509E-01  0.00000000000E+00 0.  1.
       22    1    1    2    0    0  0.21724256111E-02  0.14622625216E-03 -0.34931689324E-01  0.34999481913E-01  0.00000000000E+00 0. -1.
       22    1    1    2    0    0  0.20929586979E-05 -0.15262986130E-04  0.22307123082E-03  0.22360257879E-03  0.00000000000E+00 0. -1.
</event>
<event>
 5   0  0.6221259E+05  0.9118800E+02  0.7546771E-02  0.1180000E+00
      -11   -1    0    0    0    0  0.00000000000E+00  0.00000000000E+00  0.34996269501E-01  0.35000000000E-01  0.51099999109E-03 0. -1.
       11   -1    0    0    0    0 -0.00000000000E+00 -0.00000000000E+00 -0.34996269501E-01  0.35000000000E-01  0.51099999109E-03 0.  1.
       22    1    1    2    0    0 -0.13193869769E-03 -0.10058083204E-02  0.34985293019E-01  0.34999996941E-01  0.00000000000E+00 0. -1.
       22    1    1    2    0    0  0.13194087969E-03  0.10058122608E-02 -0.34985294327E-01  0.34999998369E-01  0.00000000000E+00 0.  1.
       22    1    1    2    0    0 -0.21819998193E-08 -0.39404137657E-08  0.13076726894E-08  0.46902016715E-08  0.00000000000E+00 0. -1.
</event>
<event>
 5   0  0.6221259E+05  0.9118800E+02  0.7546771E-02  0.1180000E+00
      -11   -1    0    0    0    0  0.00000000000E+00  0.00000000000E+00  0.34996269501E-01  0.35000000000E-01  0.51099999109E-03 0.  1.
       11   -1    0    0    0    0 -0.00000000000E+00 -0.00000000000E+00 -0.34996269501E-01  0.35000000000E-01  0.51099999109E-03 0. -1.
       22    1    1    2    0    0  0.43628105075E-02  0.45860602895E-02  0.34281973208E-01  0.34861436453E-01  0.00000000000E+00 0.  1.
       22    1    1    2    0    0  0.40145131607E-03 -0.75631740566E-04 -0.93163282080E-02  0.93252804032E-02  0.00000000000E+00 0. -1.
       22    1    1    2    0    0 -0.47642618236E-02 -0.45104285489E-02 -0.24965645000E-01  0.25813283144E-01  0.00000000000E+00 0. -1.
</event>
<event>
 5   0  0.6221259E+05  0.9118800E+02  0.7546771E-02  0.1180000E+00
      -11   -1    0    0    0    0  0.00000000000E+00  0.00000000000E+00  0.34996269501E-01  0.35000000000E-01  0.51099999109E-03 0.  1.
       11   -1    0    0    0    0 -0.00000000000E+00 -0.00000000000E+00 -0.34996269501E-01  0.35000000000E-01  0.51099999109E-03 0.  1.
       22    1    1    2    0    0  0.19821463858E-08  0.75209705595E-08  0.80351864291E-08  0.11182938943E-07  0.00000000000E+00 0. -1.
       22    1    1    2    0    0 -0.65149847658E-03 -0.10088614154E-02  0.34979380852E-01  0.34999990520E-01  0.00000000000E+00 0.  1.
       22    1    1    2    0    0  0.65149649444E-03  0.10088538944E-02 -0.34979388887E-01  0.34999998297E-01  0.00000000000E+00 0.  1.
</event>
<event>
 5   0  0.6221259E+05  0.9118800E+02  0.7546771E-02  0.1180000E+00
      -11   -1    0    0    0    0  0.00000000000E+00  0.00000000000E+00  0.34996269501E-01  0.35000000000E-01  0.51099999109E-03 0.  1.
       11   -1    0    0    0    0 -0.00000000000E+00 -0.00000000000E+00 -0.34996269501E-01  0.35000000000E-01  0.51099999109E-03 0. -1.
       22    1    1    2    0    0  0.25124758054E-01  0.12782181409E-03  0.23715490452E-01  0.34549881231E-01  0.00000000000E+00 0.  1.
       22    1    1    2    0    0 -0.90931883860E-03 -0.78547710524E-03  0.40211738321E-03  0.12670964537E-02  0.00000000000E+00 0. -1.
       22    1    1    2    0    0 -0.24215439215E-01  0.65765529115E-03 -0.24117607836E-01  0.34183022315E-01  0.00000000000E+00 0. -1.
</event>
<event>
 5   0  0.6221259E+05  0.9118800E+02  0.7546771E-02  0.1180000E+00
      -11   -1    0    0    0    0  0.00000000000E+00  0.00000000000E+00  0.34996269501E-01  0.35000000000E-01  0.51099999109E-03 0. -1.
       11   -1    0    0    0    0 -0.00000000000E+00 -0.00000000000E+00 -0.34996269501E-01  0.35000000000E-01  0.51099999109E-03 0.  1.
       22    1    1    2    0    0  0.82667326665E-04  0.17333032359E-03 -0.47454373685E-02  0.47493213312E-02  0.00000000000E+00 0.  1.
       22    1    1    2    0    0  0.21478102693E-02  0.58319109347E-02  0.34377150401E-01  0.34934406304E-01  0.00000000000E+00 0. -1.
       22    1    1    2    0    0 -0.22304775960E-02 -0.60052412583E-02 -0.29631713032E-01  0.30316272365E-01  0.00000000000E+00 0.  1.
</event>
<event>
 5   0  0.6221259E+05  0.9118800E+02  0.7546771E-02  0.1180000E+00
      -11   -1    0    0    0    0  0.00000000000E+00  0.00000000000E+00  0.34996269501E-01  0.35000000000E-01  0.51099999109E-03 0. -1.
       11   -1    0    0    0    0 -0.00000000000E+00 -0.00000000000E+00 -0.34996269501E-01  0.35000000000E-01  0.51099999109E-03 0. -1.
       22    1    1    2    0    0 -0.24572439010E-03 -0.77373547194E-04  0.33647910607E-01  0.33648896792E-01  0.00000000000E+00 0. -1.
       22    1    1    2    0    0  0.22475010912E-02  0.87433005166E-03  0.21368652490E-03  0.24210279068E-02  0.00000000000E+00 0.  1.
       22    1    1    2    0    0 -0.20017767011E-02 -0.79695650447E-03 -0.33861597132E-01  0.33930075301E-01  0.00000000000E+00 0. -1.
</event>
<event>
 5   0  0.6221259E+05  0.9118800E+02  0.7546771E-02  0.1180000E+00
      -11   -1    0    0    0    0  0.00000000000E+00  0.00000000000E+00  0.34996269501E-01  0.35000000000E-01  0.51099999109E-03 0.  1.
       11   -1    0    0    0    0 -0.00000000000E+00 -0.00000000000E+00 -0.34996269501E-01  0.35000000000E-01  0.51099999109E-03 0. -1.
       22    1    1    2    0    0 -0.15302280231E-01 -0.11468663834E-01 -0.29312171983E-01  0.34998477920E-01  0.00000000000E+00 0. -1.
       22    1    1    2    0    0  0.15299002805E-01  0.11464495469E-01  0.29278802777E-01  0.34967734202E-01  0.00000000000E+00 0.  1.
       22    1    1    2    0    0  0.32774261580E-05  0.41683655329E-05  0.33369205462E-04  0.33787877509E-04  0.00000000000E+00 0. -1.
</event>
<event>
 5   0  0.6221259E+05  0.9118800E+02  0.7546771E-02  0.1180000E+00
      -11   -1    0    0    0    0  0.00000000000E+00  0.00000000000E+00  0.34996269501E-01  0.35000000000E-01  0.51099999109E-03 0.  1.
       11   -1    0    0    0    0 -0.00000000000E+00 -0.00000000000E+00 -0.34996269501E-01  0.35000000000E-01  0.51099999109E-03 0. -1.
       22    1    1    2    0    0 -0.21339882016E-02  0.17602092752E-02  0.34018870595E-01  0.34131155839E-01  0.00000000000E+00 0.  1.
       22    1    1    2    0    0  0.22753821095E-04 -0.30192194419E-04  0.87127451961E-03  0.87209437190E-03  0.00000000000E+00 0.  1.
       22    1    1    2    0    0  0.21112343805E-02 -0.17300170808E-02 -0.34890145114E-01  0.34996749789E-01  0.00000000000E+00 0. -1.
</event>
<event>
 5   0  0.6221259E+05  0.9118800E+02  0.7546771E-02  0.1180000E+00
      -11   -1    0    0    0    0  0.00000000000E+00  0.00000000000E+00  0.34996269501E-01  0.35000000000E-01  0.51099999109E-03 0.  1.
       11   -1    0    0    0    0 -0.00000000000E+00 -0.00000000000E+00 -0.34996269501E-01  0.35000000000E-01  0.51099999109E-03 0. -1.
       22    1    1    2    0    0 -0.42980653049E-03 -0.25367958780E-02  0.34370349486E-01  0.34466519853E-01  0.00000000000E+00 0.  1.
       22    1    1    2    0    0  0.50825027212E-03  0.25284000696E-02 -0.34901423572E-01  0.34996578299E-01  0.00000000000E+00 0. -1.
       22    1    1    2    0    0 -0.78443741623E-04  0.83958083625E-05  0.53107408587E-03  0.53690184846E-03  0.00000000000E+00 0. -1.
</event>
<event>
 5   0  0.6221259E+05  0.9118800E+02  0.7546771E-02  0.1180000E+00
      -11   -1    0    0    0    0  0.00000000000E+00  0.00000000000E+00  0.34996269501E-01  0.35000000000E-01  0.51099999109E-03 0. -1.
       11   -1    0    0    0    0 -0.00000000000E+00 -0.00000000000E+00 -0.34996269501E-01  0.35000000000E-01  0.51099999109E-03 0. -1.
       22    1    1    2    0    0 -0.54115610409E-03  0.12784217356E-02  0.34885973810E-01  0.34913584472E-01  0.00000000000E+00 0. -1.
       22    1    1    2    0    0 -0.97452997213E-05 -0.31029918059E-03 -0.17266057303E-03  0.35523545125E-03  0.00000000000E+00 0.  1.
       22    1    1    2    0    0  0.55090140381E-03 -0.96812255502E-03 -0.34713313237E-01  0.34731180076E-01  0.00000000000E+00 0. -1.
</event>
<event>
 5   0  0.6221259E+05  0.9118800E+02  0.7546771E-02  0.1180000E+00
      -11   -1    0    0    0    0  0.00000000000E+00  0.00000000000E+00  0.34996269501E-01  0.35000000000E-01  0.51099999109E-03 0.  1.
       11   -1    0    0    0    0 -0.00000000000E+00 -0.00000000000E+00 -0.34996269501E-01  0.35000000000E-01  0.51099999109E-03 0. -1.
       22    1    1    2    0    0 -0.81523515501E-02  0.22989833414E-01 -0.24779979598E-01  0.34771262057E-01  0.00000000000E+00 0. -1.
       22    1    1    2    0    0 -0.44136885267E-04  0.28840258160E-03  0.59161531908E-04  0.29769817025E-03  0.00000000000E+00 0. -1.
       22    1    1    2    0    0  0.81964884354E-02 -0.23278235995E-01  0.24720818066E-01  0.34931039772E-01  0.00000000000E+00 0.  1.
</event>
<event>
 5   0  0.6221259E+05  0.9118800E+02  0.7546771E-02  0.1180000E+00
      -11   -1    0    0    0    0  0.00000000000E+00  0.00000000000E+00  0.34996269501E-01  0.35000000000E-01  0.51099999109E-03 0.  1.
       11   -1    0    0    0    0 -0.00000000000E+00 -0.00000000000E+00 -0.34996269501E-01  0.35000000000E-01  0.51099999109E-03 0. -1.
       22    1    1    2    0    0  0.83523593056E-06  0.55729383991E-06  0.23164822068E-05  0.25247346985E-05  0.00000000000E+00 0. -1.
       22    1    1    2    0    0 -0.53249964679E-03 -0.17194584050E-02  0.34951280089E-01  0.34997600960E-01  0.00000000000E+00 0.  1.
       22    1    1    2    0    0  0.53166441086E-03  0.17189011111E-02 -0.34953596572E-01  0.34999874305E-01  0.00000000000E+00 0. -1.
</event>
<event>
 5   0  0.6221259E+05  0.9118800E+02  0.7546771E-02  0.1180000E+00
      -11   -1    0    0    0    0  0.00000000000E+00  0.00000000000E+00  0.34996269501E-01  0.35000000000E-01  0.51099999109E-03 0. -1.
       11   -1    0    0    0    0 -0.00000000000E+00 -0.00000000000E+00 -0.34996269501E-01  0.35000000000E-01  0.51099999109E-03 0.  1.
       22    1    1    2    0    0  0.13096914762E-02  0.12507875327E-01 -0.32662473512E-01  0.34999991613E-01  0.00000000000E+00 0.  1.
       22    1    1    2    0    0 -0.13097433115E-02 -0.12507381582E-01  0.32660556206E-01  0.34998027848E-01  0.00000000000E+00 0. -1.
       22    1    1    2    0    0  0.51835307422E-07 -0.49374570013E-06  0.19173063472E-05  0.19805391550E-05  0.00000000000E+00 0. -1.
</event>
<event>
 5   0  0.6221259E+05  0.9118800E+02  0.7546771E-02  0.1180000E+00
      -11   -1    0    0    0    0  0.00000000000E+00  0.00000000000E+00  0.34996269501E-01  0.35000000000E-01  0.51099999109E-03 0. -1.
       11   -1    0    0    0    0 -0.00000000000E+00 -0.00000000000E+00 -0.34996269501E-01  0.35000000000E-01  0.51099999109E-03 0.  1.
       22    1    1    2    0    0  0.15964365217E-02 -0.43288575640E-02 -0.34694558156E-01  0.34999999758E-01  0.00000000000E+00 0.  1.
       22    1    1    2    0    0 -0.15964395552E-02  0.43288543348E-02  0.34694488909E-01  0.34999930854E-01  0.00000000000E+00 0. -1.
       22    1    1    2    0    0  0.30335564533E-08  0.32292180820E-08  0.69247246113E-07  0.69388842103E-07  0.00000000000E+00 0.  1.
</event>
<event>
 5   0  0.6221259E+05  0.9118800E+02  0.7546771E-02  0.1180000E+00
      -11   -1    0    0    0    0  0.00000000000E+00  0.00000000000E+00  0.34996269501E-01  0.35000000000E-01  0.51099999109E-03 0.  1.
       11   -1    0    0    0    0 -0.00000000000E+00 -0.00000000000E+00 -0.34996269501E-01  0.35000000000E-01  0.51099999109E-03 0. -1.
       22    1    1    2    0    0 -0.24228894088E-01 -0.22328998627E-01 -0.11805766402E-01  0.34999994410E-01  0.00000000000E+00 0.  1.
       22    1    1    2    0    0  0.11088523414E-06  0.11378649104E-06 -0.46939229816E-08  0.15894946872E-06  0.00000000000E+00 0.  1.
       22    1    1    2    0    0  0.24228783203E-01  0.22328884840E-01  0.11805771096E-01  0.34999846640E-01  0.00000000000E+00 0. -1.
</event>
<event>
 5   0  0.6221259E+05  0.9118800E+02  0.7546771E-02  0.1180000E+00
      -11   -1    0    0    0    0  0.00000000000E+00  0.00000000000E+00  0.34996269501E-01  0.35000000000E-01  0.51099999109E-03 0. -1.
       11   -1    0    0    0    0 -0.00000000000E+00 -0.00000000000E+00 -0.34996269501E-01  0.35000000000E-01  0.51099999109E-03 0.  1.
       22    1    1    2    0    0 -0.23006449168E-01  0.17156859249E-01 -0.54249335357E-02  0.29207609051E-01  0.00000000000E+00 0. -1.
       22    1    1    2    0    0  0.11445245230E-01 -0.93195364384E-02  0.17099521720E-01  0.22588515685E-01  0.00000000000E+00 0. -1.
       22    1    1    2    0    0  0.11561203939E-01 -0.78373228103E-02 -0.11674588185E-01  0.18203875264E-01  0.00000000000E+00 0.  1.
</event>
<event>
 5   0  0.6221259E+05  0.9118800E+02  0.7546771E-02  0.1180000E+00
      -11   -1    0    0    0    0  0.00000000000E+00  0.00000000000E+00  0.34996269501E-01  0.35000000000E-01  0.51099999109E-03 0.  1.
       11   -1    0    0    0    0 -0.00000000000E+00 -0.00000000000E+00 -0.34996269501E-01  0.35000000000E-01  0.51099999109E-03 0. -1.
       22    1    1    2    0    0 -0.39299653124E-02 -0.45413602275E-02  0.31603379354E-01  0.32168962785E-01  0.00000000000E+00 0.  1.
       22    1    1    2    0    0  0.38886062531E-02  0.44781413670E-02 -0.34463409218E-01  0.34970009774E-01  0.00000000000E+00 0. -1.
       22    1    1    2    0    0  0.41359059304E-04  0.63218860568E-04  0.28600298637E-02  0.28610274408E-02  0.00000000000E+00 0.  1.
</event>
<event>
 5   0  0.6221259E+05  0.9118800E+02  0.7546771E-02  0.1180000E+00
      -11   -1    0    0    0    0  0.00000000000E+00  0.00000000000E+00  0.34996269501E-01  0.35000000000E-01  0.51099999109E-03 0.  1.
       11   -1    0    0    0    0 -0.00000000000E+00 -0.00000000000E+00 -0.34996269501E-01  0.35000000000E-01  0.51099999109E-03 0. -1.
       22    1    1    2    0    0  0.13420361617E-01 -0.10787381330E-01  0.15000725385E-01  0.22836275177E-01  0.00000000000E+00 0.  1.
       22    1    1    2    0    0 -0.11283125137E-01  0.11610632599E-01 -0.28873700685E-01  0.33102965025E-01  0.00000000000E+00 0. -1.
       22    1    1    2    0    0 -0.21372364799E-02 -0.82325126944E-03  0.13872975300E-01  0.14060759798E-01  0.00000000000E+00 0.  1.
</event>
<event>
 5   0  0.6221259E+05  0.9118800E+02  0.7546771E-02  0.1180000E+00
      -11   -1    0    0    0    0  0.00000000000E+00  0.00000000000E+00  0.34996269501E-01  0.35000000000E-01  0.51099999109E-03 0.  1.
       11   -1    0    0    0    0 -0.00000000000E+00 -0.00000000000E+00 -0.34996269501E-01  0.35000000000E-01  0.51099999109E-03 0. -1.
       22    1    1    2    0    0 -0.14789801366E-04 -0.90240922231E-05  0.49392276567E-07  0.17325556398E-04  0.00000000000E+00 0.  1.
       22    1    1    2    0    0  0.62317960703E-03  0.17139018740E-02 -0.34944157269E-01  0.34991712443E-01  0.00000000000E+00 0. -1.
       22    1    1    2    0    0 -0.60838980566E-03 -0.17048777817E-02  0.34944107877E-01  0.34990962000E-01  0.00000000000E+00 0.  1.
</event>
<event>
 5   0  0.6221259E+05  0.9118800E+02  0.7546771E-02  0.1180000E+00
      -11   -1    0    0    0    0  0.00000000000E+00  0.00000000000E+00  0.34996269501E-01  0.35000000000E-01  0.51099999109E-03 0.  1.
       11   -1    0    0    0    0 -0.00000000000E+00 -0.00000000000E+00 -0.34996269501E-01  0.35000000000E-01  0.51099999109E-03 0. -1.
       22    1    1    2    0    0 -0.26633588552E-04  0.18137070467E-03  0.10970062526E-02  0.11122173343E-02  0.00000000000E+00 0.  1.
       22    1    1    2    0    0  0.18880751018E-02 -0.91072975866E-03  0.33834368230E-01  0.33899243794E-01  0.00000000000E+00 0.  1.
       22    1    1    2    0    0 -0.18614415133E-02  0.72935905400E-03 -0.34931374483E-01  0.34988538872E-01  0.00000000000E+00 0. -1.
</event>
<event>
 5   0  0.6221259E+05  0.9118800E+02  0.7546771E-02  0.1180000E+00
      -11   -1    0    0    0    0  0.00000000000E+00  0.00000000000E+00  0.34996269501E-01  0.35000000000E-01  0.51099999109E-03 0.  1.
       11   -1    0    0    0    0 -0.00000000000E+00 -0.00000000000E+00 -0.34996269501E-01  0.35000000000E-01  0.51099999109E-03 0. -1.
       22    1    1    2    0    0  0.36637289504E-03  0.92948239297E-04 -0.15017688987E-02  0.15486052753E-02  0.00000000000E+00 0.  1.
       22    1    1    2    0    0 -0.86395138671E-04  0.64215182995E-03  0.34968959173E-01  0.34974961454E-01  0.00000000000E+00 0.  1.
       22    1    1    2    0    0 -0.27997775637E-03 -0.73510006925E-03 -0.33467190274E-01  0.33476433270E-01  0.00000000000E+00 0. -1.
</event>
<event>
 5   0  0.6221259E+05  0.9118800E+02  0.7546771E-02  0.1180000E+00
      -11   -1    0    0    0    0  0.00000000000E+00  0.00000000000E+00  0.34996269501E-01  0.35000000000E-01  0.51099999109E-03 0.  1.
       11   -1    0    0    0    0 -0.00000000000E+00 -0.00000000000E+00 -0.34996269501E-01  0.35000000000E-01  0.51099999109E-03 0. -1.
       22    1    1    2    0    0 -0.77913002222E-08 -0.86898819451E-08  0.30932006045E-07  0.33060662506E-07  0.00000000000E+00 0.  1.
       22    1    1    2    0    0  0.23499867637E-02  0.22248459447E-02  0.34850041969E-01  0.34999968608E-01  0.00000000000E+00 0.  1.
       22    1    1    2    0    0 -0.23499789724E-02 -0.22248372549E-02 -0.34850072901E-01  0.34999998332E-01  0.00000000000E+00 0. -1.
</event>
<event>
 5   0  0.6221259E+05  0.9118800E+02  0.7546771E-02  0.1180000E+00
      -11   -1    0    0    0    0  0.00000000000E+00  0.00000000000E+00  0.34996269501E-01  0.35000000000E-01  0.51099999109E-03 0. -1.
       11   -1    0    0    0    0 -0.00000000000E+00 -0.00000000000E+00 -0.34996269501E-01  0.35000000000E-01  0.51099999109E-03 0.  1.
       22    1    1    2    0    0  0.58192291362E-04  0.27695530333E-05  0.13086617650E-01  0.13086747324E-01  0.00000000000E+00 0. -1.
       22    1    1    2    0    0  0.22529582264E-02 -0.17434467746E-02  0.21760523269E-01  0.21946202413E-01  0.00000000000E+00 0. -1.
       22    1    1    2    0    0 -0.23111505178E-02  0.17406772216E-02 -0.34847140918E-01  0.34967050263E-01  0.00000000000E+00 0.  1.
</event>
<event>
 5   0  0.6221259E+05  0.9118800E+02  0.7546771E-02  0.1180000E+00
      -11   -1    0    0    0    0  0.00000000000E+00  0.00000000000E+00  0.34996269501E-01  0.35000000000E-01  0.51099999109E-03 0.  1.
       11   -1    0    0    0    0 -0.00000000000E+00 -0.00000000000E+00 -0.34996269501E-01  0.35000000000E-01  0.51099999109E-03 0. -1.
       22    1    1    2    0    0 -0.39558352181E-03  0.69893478749E-04 -0.41314601531E-02  0.41509437984E-02  0.00000000000E+00 0.  1.
       22    1    1    2    0    0 -0.62604604481E-02  0.12883945078E-01  0.31635309057E-01  0.34727254210E-01  0.00000000000E+00 0.  1.
       22    1    1    2    0    0  0.66560439699E-02 -0.12953838556E-01 -0.27503848904E-01  0.31121801992E-01  0.00000000000E+00 0. -1.
</event>
<event>
 5   0  0.6221259E+05  0.9118800E+02  0.7546771E-02  0.1180000E+00
      -11   -1    0    0    0    0  0.00000000000E+00  0.00000000000E+00  0.34996269501E-01  0.35000000000E-01  0.51099999109E-03 0. -1.
       11   -1    0    0    0    0 -0.00000000000E+00 -0.00000000000E+00 -0.34996269501E-01  0.35000000000E-01  0.51099999109E-03 0. -1.
       22    1    1    2    0    0 -0.62913834952E-04  0.84618752053E-03 -0.34847651908E-01  0.34857980936E-01  0.00000000000E+00 0. -1.
       22    1    1    2    0    0  0.35075095588E-04 -0.11932813418E-02  0.22898594487E-02  0.25823645982E-02  0.00000000000E+00 0.  1.
       22    1    1    2    0    0  0.27838739364E-04  0.34709382126E-03  0.32557792459E-01  0.32559654466E-01  0.00000000000E+00 0. -1.
</event>
<event>
 5   0  0.6221259E+05  0.9118800E+02  0.7546771E-02  0.1180000E+00
      -11   -1    0    0    0    0  0.00000000000E+00  0.00000000000E+00  0.34996269501E-01  0.35000000000E-01  0.51099999109E-03 0. -1.
       11   -1    0    0    0    0 -0.00000000000E+00 -0.00000000000E+00 -0.34996269501E-01  0.35000000000E-01  0.51099999109E-03 0.  1.
       22    1    1    2    0    0  0.58095924237E-02  0.99763424597E-02 -0.33041116930E-01  0.34999916871E-01  0.00000000000E+00 0.  1.
       22    1    1    2    0    0 -0.58075443311E-02 -0.99755808377E-02  0.33034286878E-01  0.34992912050E-01  0.00000000000E+00 0. -1.
       22    1    1    2    0    0 -0.20480926093E-05 -0.76162204292E-06  0.68300527454E-05  0.71710788573E-05  0.00000000000E+00 0. -1.
</event>
<event>
 5   0  0.6221259E+05  0.9118800E+02  0.7546771E-02  0.1180000E+00
      -11   -1    0    0    0    0  0.00000000000E+00  0.00000000000E+00  0.34996269501E-01  0.35000000000E-01  0.51099999109E-03 0.  1.
       11   -1    0    0    0    0 -0.00000000000E+00 -0.00000000000E+00 -0.34996269501E-01  0.35000000000E-01  0.51099999109E-03 0. -1.
       22    1    1    2    0    0  0.14843186388E-03  0.21194398858E-03  0.34998561982E-01  0.34999518469E-01  0.00000000000E+00 0.  1.
       22    1    1    2    0    0  0.37216481021E-06 -0.91770862334E-06 -0.23555571635E-07  0.99058095493E-06  0.00000000000E+00 0. -1.
       22    1    1    2    0    0 -0.14880402869E-03 -0.21102627995E-03 -0.34998538427E-01  0.34999490950E-01  0.00000000000E+00 0. -1.
</event>
<event>
 5   0  0.6221259E+05  0.9118800E+02  0.7546771E-02  0.1180000E+00
      -11   -1    0    0    0    0  0.00000000000E+00  0.00000000000E+00  0.34996269501E-01  0.35000000000E-01  0.51099999109E-03 0. -1.
       11   -1    0    0    0    0 -0.00000000000E+00 -0.00000000000E+00 -0.34996269501E-01  0.35000000000E-01  0.51099999109E-03 0.  1.
       22    1    1    2    0    0  0.18137155633E-08  0.76184929055E-08  0.74209011193E-08  0.10788918932E-07  0.00000000000E+00 0. -1.
       22    1    1    2    0    0  0.14720335573E-01  0.18397974095E-01  0.25880987873E-01  0.34999989478E-01  0.00000000000E+00 0. -1.
       22    1    1    2    0    0 -0.14720337386E-01 -0.18397981713E-01 -0.25880995294E-01  0.34999999733E-01  0.00000000000E+00 0.  1.
</event>
<event>
 5   0  0.6221259E+05  0.9118800E+02  0.7546771E-02  0.1180000E+00
      -11   -1    0    0    0    0  0.00000000000E+00  0.00000000000E+00  0.34996269501E-01  0.35000000000E-01  0.51099999109E-03 0. -1.
       11   -1    0    0    0    0 -0.00000000000E+00 -0.00000000000E+00 -0.34996269501E-01  0.35000000000E-01  0.51099999109E-03 0.  1.
       22    1    1    2    0    0 -0.26293850662E-04 -0.29079106940E-03  0.22327101698E-02  0.22517205677E-02  0.00000000000E+00 0.  1.
       22    1    1    2    0    0 -0.79286243769E-02  0.11363023976E-02 -0.34030110235E-01  0.34960015307E-01  0.00000000000E+00 0.  1.
       22    1    1    2    0    0  0.79549182276E-02 -0.84551132822E-03  0.31797400066E-01  0.32788264125E-01  0.00000000000E+00 0. -1.
</event>
<event>
 5   0  0.6221259E+05  0.9118800E+02  0.7546771E-02  0.1180000E+00
      -11   -1    0    0    0    0  0.00000000000E+00  0.00000000000E+00  0.34996269501E-01  0.35000000000E-01  0.51099999109E-03 0. -1.
       11   -1    0    0    0    0 -0.00000000000E+00 -0.00000000000E+00 -0.34996269501E-01  0.35000000000E-01  0.51099999109E-03 0.  1.
       22    1    1    2    0    0 -0.43202893977E-02 -0.10295591384E-01  0.33170315282E-01  0.34999055963E-01  0.00000000000E+00 0. -1.
       22    1    1    2    0    0  0.43201473642E-02  0.10295571044E-01 -0.33171291330E-01  0.34999957498E-01  0.00000000000E+00 0.  1.
       22    1    1    2    0    0  0.14203347429E-06  0.20339671600E-07  0.97604853283E-06  0.98653836646E-06  0.00000000000E+00 0. -1.
</event>
<event>
 5   0  0.6221259E+05  0.9118800E+02  0.7546771E-02  0.1180000E+00
      -11   -1    0    0    0    0  0.00000000000E+00  0.00000000000E+00  0.34996269501E-01  0.35000000000E-01  0.51099999109E-03 0. -1.
       11   -1    0    0    0    0 -0.00000000000E+00 -0.00000000000E+00 -0.34996269501E-01  0.35000000000E-01  0.51099999109E-03 0.  1.
       22    1    1    2    0    0 -0.53590525562E-04  0.27356858230E-04 -0.28405644810E-03  0.29035910151E-03  0.00000000000E+00 0. -1.
       22    1    1    2    0    0 -0.70947807620E-02 -0.12623069004E-01 -0.31561925500E-01  0.34725105132E-01  0.00000000000E+00 0.  1.
       22    1    1    2    0    0  0.71483712876E-02  0.12595712146E-01  0.31845981948E-01  0.34984535766E-01  0.00000000000E+00 0. -1.
</event>
<event>
 5   0  0.6221259E+05  0.9118800E+02  0.7546771E-02  0.1180000E+00
      -11   -1    0    0    0    0  0.00000000000E+00  0.00000000000E+00  0.34996269501E-01  0.35000000000E-01  0.51099999109E-03 0. -1.
       11   -1    0    0    0    0 -0.00000000000E+00 -0.00000000000E+00 -0.34996269501E-01  0.35000000000E-01  0.51099999109E-03 0.  1.
       22    1    1    2    0    0 -0.10222707569E-04 -0.32718359955E-05 -0.54696598065E-03  0.54707128662E-03  0.00000000000E+00 0. -1.
       22    1    1    2    0    0 -0.38266858123E-02  0.13687479501E-01 -0.31411367418E-01  0.34477015858E-01  0.00000000000E+00 0.  1.
       22    1    1    2    0    0  0.38369085198E-02 -0.13684207665E-01  0.31958333399E-01  0.34975912855E-01  0.00000000000E+00 0. -1.
</event>
<event>
 5   0  0.6221259E+05  0.9118800E+02  0.7546771E-02  0.1180000E+00
      -11   -1    0    0    0    0  0.00000000000E+00  0.00000000000E+00  0.34996269501E-01  0.35000000000E-01  0.51099999109E-03 0. -1.
       11   -1    0    0    0    0 -0.00000000000E+00 -0.00000000000E+00 -0.34996269501E-01  0.35000000000E-01  0.51099999109E-03 0.  1.
       22    1    1    2    0    0 -0.25989013092E-02  0.43742436858E-02  0.34628188603E-01  0.34999996311E-01  0.00000000000E+00 0. -1.
       22    1    1    2    0    0  0.25989008055E-02 -0.43742429342E-02 -0.34628192323E-01  0.34999999860E-01  0.00000000000E+00 0.  1.
       22    1    1    2    0    0  0.50369661750E-09 -0.75160017616E-09  0.37202207901E-08  0.38286624079E-08  0.00000000000E+00 0.  1.
</event>
<event>
 5   0  0.6221259E+05  0.9118800E+02  0.7546771E-02  0.1180000E+00
      -11   -1    0    0    0    0  0.00000000000E+00  0.00000000000E+00  0.34996269501E-01  0.35000000000E-01  0.51099999109E-03 0.  1.
       11   -1    0    0    0    0 -0.00000000000E+00 -0.00000000000E+00 -0.34996269501E-01  0.35000000000E-01  0.51099999109E-03 0. -1.
       22    1    1    2    0    0  0.13700234829E-01  0.14113534304E-01  0.28936440873E-01  0.34988653808E-01  0.00000000000E+00 0.  1.
       22    1    1    2    0    0 -0.68500030663E-06 -0.14460538185E-06  0.12588049237E-04  0.12607502517E-04  0.00000000000E+00 0. -1.
       22    1    1    2    0    0 -0.13699549829E-01 -0.14113389699E-01 -0.28949028922E-01  0.34998738689E-01  0.00000000000E+00 0. -1.
</event>
<event>
 5   0  0.6221259E+05  0.9118800E+02  0.7546771E-02  0.1180000E+00
      -11   -1    0    0    0    0  0.00000000000E+00  0.00000000000E+00  0.34996269501E-01  0.35000000000E-01  0.51099999109E-03 0. -1.
       11   -1    0    0    0    0 -0.00000000000E+00 -0.00000000000E+00 -0.34996269501E-01  0.35000000000E-01  0.51099999109E-03 0.  1.
       22    1    1    2    0    0  0.14628418054E-01 -0.14353092418E-01  0.28262385910E-01  0.34910805405E-01  0.00000000000E+00 0. -1.
       22    1    1    2    0    0  0.28756686622E-05  0.14057273054E-05  0.98180681423E-04  0.98232844529E-04  0.00000000000E+00 0.  1.
       22    1    1    2    0    0 -0.14631293723E-01  0.14351686690E-01 -0.28360566591E-01  0.34990961751E-01  0.00000000000E+00 0.  1.
</event>
<event>
 5   0  0.6221259E+05  0.9118800E+02  0.7546771E-02  0.1180000E+00
      -11   -1    0    0    0    0  0.00000000000E+00  0.00000000000E+00  0.34996269501E-01  0.35000000000E-01  0.51099999109E-03 0. -1.
       11   -1    0    0    0    0 -0.00000000000E+00 -0.00000000000E+00 -0.34996269501E-01  0.35000000000E-01  0.51099999109E-03 0.  1.
       22    1    1    2    0    0  0.79539208723E-03 -0.26972417081E-02  0.31250095792E-01  0.31376364487E-01  0.00000000000E+00 0. -1.
       22    1    1    2    0    0 -0.13212061574E-03  0.46713110468E-03  0.36318651045E-02  0.36641658618E-02  0.00000000000E+00 0.  1.
       22    1    1    2    0    0 -0.66327147150E-03  0.22301106035E-02 -0.34881960896E-01  0.34959469652E-01  0.00000000000E+00 0.  1.
</event>
<event>
 5   0  0.6221259E+05  0.9118800E+02  0.7546771E-02  0.1180000E+00
      -11   -1    0    0    0    0  0.00000000000E+00  0.00000000000E+00  0.34996269501E-01  0.35000000000E-01  0.51099999109E-03 0.  1.
       11   -1    0    0    0    0 -0.00000000000E+00 -0.00000000000E+00 -0.34996269501E-01  0.35000000000E-01  0.51099999109E-03 0. -1.
       22    1    1    2    0    0  0.19290240973E-04  0.26153817755E-04  0.60152400775E-03  0.60240125123E-03  0.00000000000E+00 0. -1.
       22    1    1    2    0    0  0.24936492397E-01 -0.14183231756E-03  0.23816373525E-01  0.34482871362E-01  0.00000000000E+00 0.  1.
       22    1    1    2    0    0 -0.24955782638E-01  0.11567849980E-03 -0.24417897533E-01  0.34914727387E-01  0.00000000000E+00 0. -1.
</event>
<event>
 5   0  0.6221259E+05  0.9118800E+02  0.7546771E-02  0.1180000E+00
      -11   -1    0    0    0    0  0.00000000000E+00  0.00000000000E+00  0.34996269501E-01  0.35000000000E-01  0.51099999109E-03 0. -1.
       11   -1    0    0    0    0 -0.00000000000E+00 -0.00000000000E+00 -0.34996269501E-01  0.35000000000E-01  0.51099999109E-03 0.  1.
       22    1    1    2    0    0  0.56658490580E-03 -0.15808981734E-03 -0.34652860202E-01  0.34657852372E-01  0.00000000000E+00 0.  1.
       22    1    1    2    0    0  0.15993441989E-03  0.51407698392E-04 -0.32008642961E-03  0.36149286651E-03  0.00000000000E+00 0. -1.
       22    1    1    2    0    0 -0.72651932569E-03  0.10668211895E-03  0.34972946632E-01  0.34980654761E-01  0.00000000000E+00 0. -1.
</event>
<event>
 5   0  0.6221259E+05  0.9118800E+02  0.7546771E-02  0.1180000E+00
      -11   -1    0    0    0    0  0.00000000000E+00  0.00000000000E+00  0.34996269501E-01  0.35000000000E-01  0.51099999109E-03 0. -1.
       11   -1    0    0    0    0 -0.00000000000E+00 -0.00000000000E+00 -0.34996269501E-01  0.35000000000E-01  0.51099999109E-03 0. -1.
       22    1    1    2    0    0  0.41419730108E-03  0.71956445024E-03  0.51370031909E-02  0.52036654567E-02  0.00000000000E+00 0.  1.
       22    1    1    2    0    0 -0.43531598002E-03 -0.78964598512E-03  0.29822813328E-01  0.29836441402E-01  0.00000000000E+00 0. -1.
       22    1    1    2    0    0  0.21118678935E-04  0.70081534880E-04 -0.34959816518E-01  0.34959893141E-01  0.00000000000E+00 0. -1.
</event>
<event>
 5   0  0.6221259E+05  0.9118800E+02  0.7546771E-02  0.1180000E+00
      -11   -1    0    0    0    0  0.00000000000E+00  0.00000000000E+00  0.34996269501E-01  0.35000000000E-01  0.51099999109E-03 0. -1.
       11   -1    0    0    0    0 -0.00000000000E+00 -0.00000000000E+00 -0.34996269501E-01  0.35000000000E-01  0.51099999109E-03 0.  1.
       22    1    1    2    0    0  0.25563977882E-01  0.11245752914E-01 -0.20832204607E-01  0.34841995817E-01  0.00000000000E+00 0. -1.
       22    1    1    2    0    0 -0.25546191447E-01 -0.11260485507E-01  0.21034079338E-01  0.34954812614E-01  0.00000000000E+00 0.  1.
       22    1    1    2    0    0 -0.17786434703E-04  0.14732593238E-04 -0.20187473069E-03  0.20319156836E-03  0.00000000000E+00 0. -1.
</event>
<event>
 5   0  0.6221259E+05  0.9118800E+02  0.7546771E-02  0.1180000E+00
      -11   -1    0    0    0    0  0.00000000000E+00  0.00000000000E+00  0.34996269501E-01  0.35000000000E-01  0.51099999109E-03 0.  1.
       11   -1    0    0    0    0 -0.00000000000E+00 -0.00000000000E+00 -0.34996269501E-01  0.35000000000E-01  0.51099999109E-03 0. -1.
       22    1    1    2    0    0  0.62093662115E-03  0.11265500599E-03 -0.44309609337E-02  0.44756751707E-02  0.00000000000E+00 0. -1.
       22    1    1    2    0    0 -0.72202303493E-02  0.53371595462E-02 -0.29341356592E-01  0.30684396767E-01  0.00000000000E+00 0. -1.
       22    1    1    2    0    0  0.65992937282E-02 -0.54498145522E-02  0.33772317525E-01  0.34839928062E-01  0.00000000000E+00 0.  1.
</event>
<event>
 5   0  0.6221259E+05  0.9118800E+02  0.7546771E-02  0.1180000E+00
      -11   -1    0    0    0    0  0.00000000000E+00  0.00000000000E+00  0.34996269501E-01  0.35000000000E-01  0.51099999109E-03 0.  1.
       11   -1    0    0    0    0 -0.00000000000E+00 -0.00000000000E+00 -0.34996269501E-01  0.35000000000E-01  0.51099999109E-03 0. -1.
       22    1    1    2    0    0 -0.40067193755E-06 -0.15724619039E-06  0.45867094635E-05  0.46068609778E-05  0.00000000000E+00 0.  1.
       22    1    1    2    0    0 -0.11580526938E-02 -0.15111719803E-02 -0.34948156294E-01  0.34999976502E-01  0.00000000000E+00 0. -1.
       22    1    1    2    0    0  0.11584533657E-02  0.15113292265E-02  0.34943569585E-01  0.34995416637E-01  0.00000000000E+00 0.  1.
</event>
<event>
 5   0  0.6221259E+05  0.9118800E+02  0.7546771E-02  0.1180000E+00
      -11   -1    0    0    0    0  0.00000000000E+00  0.00000000000E+00  0.34996269501E-01  0.35000000000E-01  0.51099999109E-03 0.  1.
       11   -1    0    0    0    0 -0.00000000000E+00 -0.00000000000E+00 -0.34996269501E-01  0.35000000000E-01  0.51099999109E-03 0.  1.
       22    1    1    2    0    0 -0.19588994593E-04  0.15266299542E-03 -0.34999659384E-01  0.34999997810E-01  0.00000000000E+00 0.  1.
       22    1    1    2    0    0 -0.57030637482E-07 -0.39015372302E-07  0.52675591729E-06  0.53126875429E-06  0.00000000000E+00 0.  1.
       22    1    1    2    0    0  0.19646025231E-04 -0.15262398005E-03  0.34999132628E-01  0.34999470921E-01  0.00000000000E+00 0.  1.
</event>
<event>
 5   0  0.6221259E+05  0.9118800E+02  0.7546771E-02  0.1180000E+00
      -11   -1    0    0    0    0  0.00000000000E+00  0.00000000000E+00  0.34996269501E-01  0.35000000000E-01  0.51099999109E-03 0. -1.
       11   -1    0    0    0    0 -0.00000000000E+00 -0.00000000000E+00 -0.34996269501E-01  0.35000000000E-01  0.51099999109E-03 0.  1.
       22    1    1    2    0    0 -0.10750251802E-01 -0.25934757883E-01  0.20867911968E-01  0.34980699395E-01  0.00000000000E+00 0. -1.
       22    1    1    2    0    0  0.38076766205E-06  0.42432834652E-07  0.24265484285E-04  0.24268508651E-04  0.00000000000E+00 0. -1.
       22    1    1    2    0    0  0.10749871034E-01  0.25934715450E-01 -0.20892177452E-01  0.34995032096E-01  0.00000000000E+00 0.  1.
</event>
<event>
 5   0  0.6221259E+05  0.9118800E+02  0.7546771E-02  0.1180000E+00
      -11   -1    0    0    0    0  0.00000000000E+00  0.00000000000E+00  0.34996269501E-01  0.35000000000E-01  0.51099999109E-03 0. -1.
       11   -1    0    0    0    0 -0.00000000000E+00 -0.00000000000E+00 -0.34996269501E-01  0.35000000000E-01  0.51099999109E-03 0.  1.
       22    1    1    2    0    0 -0.25707607366E-02 -0.12460029758E-02 -0.34787255077E-01  0.34904361475E-01  0.00000000000E+00 0.  1.
       22    1    1    2    0    0  0.25721170171E-02  0.13715780660E-02  0.34838330494E-01  0.34960066990E-01  0.00000000000E+00 0. -1.
       22    1    1    2    0    0 -0.13562804454E-05 -0.12557509021E-03 -0.51075417693E-04  0.13557153488E-03  0.00000000000E+00 0.  1.
</event>
<event>
 5   0  0.6221259E+05  0.9118800E+02  0.7546771E-02  0.1180000E+00
      -11   -1    0    0    0    0  0.00000000000E+00  0.00000000000E+00  0.34996269501E-01  0.35000000000E-01  0.51099999109E-03 0. -1.
       11   -1    0    0    0    0 -0.00000000000E+00 -0.00000000000E+00 -0.34996269501E-01  0.35000000000E-01  0.51099999109E-03 0.  1.
       22    1    1    2    0    0 -0.69212874793E-02 -0.13482921774E-02 -0.34282102299E-01  0.34999780716E-01  0.00000000000E+00 0.  1.
       22    1    1    2    0    0  0.21008538243E-05 -0.26038863681E-05  0.98840158360E-05  0.10434921181E-04  0.00000000000E+00 0.  1.
       22    1    1    2    0    0  0.69191866255E-02  0.13508960638E-02  0.34272218283E-01  0.34989784363E-01  0.00000000000E+00 0. -1.
</event>
<event>
 5   0  0.6221259E+05  0.9118800E+02  0.7546771E-02  0.1180000E+00
      -11   -1    0    0    0    0  0.00000000000E+00  0.00000000000E+00  0.34996269501E-01  0.35000000000E-01  0.51099999109E-03 0.  1.
       11   -1    0    0    0    0 -0.00000000000E+00 -0.00000000000E+00 -0.34996269501E-01  0.35000000000E-01  0.51099999109E-03 0. -1.
       22    1    1    2    0    0  0.14444055025E-02 -0.72042648201E-02 -0.34219385774E-01  0.34999344302E-01  0.00000000000E+00 0. -1.
       22    1    1    2    0    0 -0.19708939607E-04  0.14911704100E-04  0.11772872382E-03  0.12029486120E-03  0.00000000000E+00 0. -1.
       22    1    1    2    0    0 -0.14246965629E-02  0.71893531160E-02  0.34101657050E-01  0.34880360836E-01  0.00000000000E+00 0.  1.
</event>
<event>
 5   0  0.6221259E+05  0.9118800E+02  0.7546771E-02  0.1180000E+00
      -11   -1    0    0    0    0  0.00000000000E+00  0.00000000000E+00  0.34996269501E-01  0.35000000000E-01  0.51099999109E-03 0.  1.
       11   -1    0    0    0    0 -0.00000000000E+00 -0.00000000000E+00 -0.34996269501E-01  0.35000000000E-01  0.51099999109E-03 0. -1.
       22    1    1    2    0    0  0.15693454245E-06  0.22239639398E-06  0.12152762363E-05  0.12453854573E-05  0.00000000000E+00 0.  1.
       22    1    1    2    0    0 -0.19540531281E-02  0.14608760715E-02 -0.34914844148E-01  0.34999983206E-01  0.00000000000E+00 0. -1.
       22    1    1    2    0    0  0.19538961936E-02 -0.14610984679E-02  0.34913628872E-01  0.34998771408E-01  0.00000000000E+00 0.  1.
</event>
<event>
 5   0  0.6221259E+05  0.9118800E+02  0.7546771E-02  0.1180000E+00
      -11   -1    0    0    0    0  0.00000000000E+00  0.00000000000E+00  0.34996269501E-01  0.35000000000E-01  0.51099999109E-03 0. -1.
       11   -1    0    0    0    0 -0.00000000000E+00 -0.00000000000E+00 -0.34996269501E-01  0.35000000000E-01  0.51099999109E-03 0.  1.
       22    1    1    2    0    0  0.13475054251E-03  0.39857063575E-03 -0.34997470942E-01  0.34999999837E-01  0.00000000000E+00 0.  1.
       22    1    1    2    0    0 -0.40855207223E-08 -0.58420789185E-09  0.24339381544E-07  0.24686803608E-07  0.00000000000E+00 0. -1.
       22    1    1    2    0    0 -0.13474645699E-03 -0.39857005154E-03  0.34997446602E-01  0.34999975477E-01  0.00000000000E+00 0. -1.
</event>
<event>
 5   0  0.6221259E+05  0.9118800E+02  0.7546771E-02  0.1180000E+00
      -11   -1    0    0    0    0  0.00000000000E+00  0.00000000000E+00  0.34996269501E-01  0.35000000000E-01  0.51099999109E-03 0. -1.
       11   -1    0    0    0    0 -0.00000000000E+00 -0.00000000000E+00 -0.34996269501E-01  0.35000000000E-01  0.51099999109E-03 0.  1.
       22    1    1    2    0    0  0.88833917289E-02  0.63963077810E-02  0.33006725385E-01  0.34774578682E-01  0.00000000000E+00 0. -1.
       22    1    1    2    0    0 -0.91214824309E-02 -0.66528578226E-02 -0.27773176329E-01  0.29980181493E-01  0.00000000000E+00 0.  1.
       22    1    1    2    0    0  0.23809070207E-03  0.25655004164E-03 -0.52335490555E-02  0.52452398251E-02  0.00000000000E+00 0.  1.
</event>
<event>
 5   0  0.6221259E+05  0.9118800E+02  0.7546771E-02  0.1180000E+00
      -11   -1    0    0    0    0  0.00000000000E+00  0.00000000000E+00  0.34996269501E-01  0.35000000000E-01  0.51099999109E-03 0. -1.
       11   -1    0    0    0    0 -0.00000000000E+00 -0.00000000000E+00 -0.34996269501E-01  0.35000000000E-01  0.51099999109E-03 0. -1.
       22    1    1    2    0    0  0.15339014434E-03  0.15433414294E-04 -0.34999660291E-01  0.34999999817E-01  0.00000000000E+00 0. -1.
       22    1    1    2    0    0 -0.15340110847E-03 -0.15447051201E-04  0.34999162407E-01  0.34999501993E-01  0.00000000000E+00 0. -1.
       22    1    1    2    0    0  0.10964131814E-07  0.13636907145E-07  0.49788304508E-06  0.49819042946E-06  0.00000000000E+00 0. -1.
</event>
<event>
 5   0  0.6221259E+05  0.9118800E+02  0.7546771E-02  0.1180000E+00
      -11   -1    0    0    0    0  0.00000000000E+00  0.00000000000E+00  0.34996269501E-01  0.35000000000E-01  0.51099999109E-03 0.  1.
       11   -1    0    0    0    0 -0.00000000000E+00 -0.00000000000E+00 -0.34996269501E-01  0.35000000000E-01  0.51099999109E-03 0. -1.
       22    1    1    2    0    0 -0.62558676814E-03 -0.33344116543E-01  0.10611598173E-01  0.34997535379E-01  0.00000000000E+00 0. -1.
       22    1    1    2    0    0 -0.69291808032E-06  0.10108686166E-06  0.37975060345E-05  0.38615289850E-05  0.00000000000E+00 0. -1.
       22    1    1    2    0    0  0.62627968622E-03  0.33344015456E-01 -0.10615395679E-01  0.34998603092E-01  0.00000000000E+00 0.  1.
</event>
<event>
 5   0  0.6221259E+05  0.9118800E+02  0.7546771E-02  0.1180000E+00
      -11   -1    0    0    0    0  0.00000000000E+00  0.00000000000E+00  0.34996269501E-01  0.35000000000E-01  0.51099999109E-03 0. -1.
       11   -1    0    0    0    0 -0.00000000000E+00 -0.00000000000E+00 -0.34996269501E-01  0.35000000000E-01  0.51099999109E-03 0.  1.
       22    1    1    2    0    0  0.93988680227E-03 -0.15077495039E-02 -0.34954681439E-01  0.34999806432E-01  0.00000000000E+00 0.  1.
       22    1    1    2    0    0 -0.93603773396E-03  0.15073309718E-02  0.34939595304E-01  0.34984618525E-01  0.00000000000E+00 0. -1.
       22    1    1    2    0    0 -0.38490683103E-05  0.41853210110E-06  0.15086135027E-04  0.15575043050E-04  0.00000000000E+00 0.  1.
</event>
<event>
 5   0  0.6221259E+05  0.9118800E+02  0.7546771E-02  0.1180000E+00
      -11   -1    0    0    0    0  0.00000000000E+00  0.00000000000E+00  0.34996269501E-01  0.35000000000E-01  0.51099999109E-03 0.  1.
       11   -1    0    0    0    0 -0.00000000000E+00 -0.00000000000E+00 -0.34996269501E-01  0.35000000000E-01  0.51099999109E-03 0. -1.
       22    1    1    2    0    0 -0.77267286688E-02  0.19890006703E-01  0.27291230117E-01  0.34642833947E-01  0.00000000000E+00 0.  1.
       22    1    1    2    0    0  0.76541253615E-02 -0.19873494719E-01 -0.27700716026E-01  0.34940965867E-01  0.00000000000E+00 0. -1.
       22    1    1    2    0    0  0.72603307341E-04 -0.16511983863E-04  0.40948590854E-03  0.41620018638E-03  0.00000000000E+00 0.  1.
</event>
<event>
 5   0  0.6221259E+05  0.9118800E+02  0.7546771E-02  0.1180000E+00
      -11   -1    0    0    0    0  0.00000000000E+00  0.00000000000E+00  0.34996269501E-01  0.35000000000E-01  0.51099999109E-03 0.  1.
       11   -1    0    0    0    0 -0.00000000000E+00 -0.00000000000E+00 -0.34996269501E-01  0.35000000000E-01  0.51099999109E-03 0. -1.
       22    1    1    2    0    0 -0.40246343771E-02 -0.13840036142E-02 -0.34740264581E-01  0.34999987586E-01  0.00000000000E+00 0. -1.
       22    1    1    2    0    0  0.40246684526E-02  0.13840235083E-02  0.34740235429E-01  0.34999963355E-01  0.00000000000E+00 0.  1.
       22    1    1    2    0    0 -0.34075423716E-07 -0.19894143712E-07  0.29152131577E-07  0.49058722272E-07  0.00000000000E+00 0.  1.
</event>
<event>
 5   0  0.6221259E+05  0.9118800E+02  0.7546771E-02  0.1180000E+00
      -11   -1    0    0    0    0  0.00000000000E+00  0.00000000000E+00  0.34996269501E-01  0.35000000000E-01  0.51099999109E-03 0. -1.
       11   -1    0    0    0    0 -0.00000000000E+00 -0.00000000000E+00 -0.34996269501E-01  0.35000000000E-01  0.51099999109E-03 0.  1.
       22    1    1    2    0    0  0.64008422437E-02  0.29494877293E-01 -0.16423083568E-01  0.34360387685E-01  0.00000000000E+00 0.  1.
       22    1    1    2    0    0 -0.63583604269E-02 -0.29528779651E-01  0.17267884003E-01  0.34793065299E-01  0.00000000000E+00 0. -1.
       22    1    1    2    0    0 -0.42481816735E-04  0.33902357213E-04 -0.84480043532E-03  0.84654701588E-03  0.00000000000E+00 0.  1.
</event>
<event>
 5   0  0.6221259E+05  0.9118800E+02  0.7546771E-02  0.1180000E+00
      -11   -1    0    0    0    0  0.00000000000E+00  0.00000000000E+00  0.34996269501E-01  0.35000000000E-01  0.51099999109E-03 0.  1.
       11   -1    0    0    0    0 -0.00000000000E+00 -0.00000000000E+00 -0.34996269501E-01  0.35000000000E-01  0.51099999109E-03 0. -1.
       22    1    1    2    0    0 -0.29510418552E-02  0.36256105805E-02  0.34685852074E-01  0.34999457627E-01  0.00000000000E+00 0.  1.
       22    1    1    2    0    0 -0.50323247455E-07  0.22441402342E-07  0.54010703965E-06  0.54291036097E-06  0.00000000000E+00 0. -1.
       22    1    1    2    0    0  0.29510921784E-02 -0.36256330219E-02 -0.34686392181E-01  0.34999999462E-01  0.00000000000E+00 0. -1.
</event>
<event>
 5   0  0.6221259E+05  0.9118800E+02  0.7546771E-02  0.1180000E+00
      -11   -1    0    0    0    0  0.00000000000E+00  0.00000000000E+00  0.34996269501E-01  0.35000000000E-01  0.51099999109E-03 0. -1.
       11   -1    0    0    0    0 -0.00000000000E+00 -0.00000000000E+00 -0.34996269501E-01  0.35000000000E-01  0.51099999109E-03 0. -1.
       22    1    1    2    0    0 -0.25669370762E-03 -0.51819647850E-03  0.34935827944E-01  0.34940613810E-01  0.00000000000E+00 0. -1.
       22    1    1    2    0    0  0.20798556975E-03  0.64412169894E-03 -0.17964816147E-02  0.19197648169E-02  0.00000000000E+00 0. -1.
       22    1    1    2    0    0  0.48708137875E-04 -0.12592522044E-03 -0.33139346329E-01  0.33139621374E-01  0.00000000000E+00 0. -1.
</event>
<event>
 5   0  0.6221259E+05  0.9118800E+02  0.7546771E-02  0.1180000E+00
      -11   -1    0    0    0    0  0.00000000000E+00  0.00000000000E+00  0.34996269501E-01  0.35000000000E-01  0.51099999109E-03 0.  1.
       11   -1    0    0    0    0 -0.00000000000E+00 -0.00000000000E+00 -0.34996269501E-01  0.35000000000E-01  0.51099999109E-03 0. -1.
       22    1    1    2    0    0  0.74895801565E-06  0.87364694659E-05 -0.11857603013E-02  0.11857927218E-02  0.00000000000E+00 0. -1.
       22    1    1    2    0    0 -0.47527112795E-02  0.10675032452E-01  0.32952923771E-01  0.34963406118E-01  0.00000000000E+00 0.  1.
       22    1    1    2    0    0  0.47519623215E-02 -0.10683768922E-01 -0.31767163469E-01  0.33850801160E-01  0.00000000000E+00 0. -1.
</event>
<event>
 5   0  0.6221259E+05  0.9118800E+02  0.7546771E-02  0.1180000E+00
      -11   -1    0    0    0    0  0.00000000000E+00  0.00000000000E+00  0.34996269501E-01  0.35000000000E-01  0.51099999109E-03 0. -1.
       11   -1    0    0    0    0 -0.00000000000E+00 -0.00000000000E+00 -0.34996269501E-01  0.35000000000E-01  0.51099999109E-03 0.  1.
       22    1    1    2    0    0  0.30530835556E-01  0.11588297782E-02  0.17070609695E-01  0.34998293123E-01  0.00000000000E+00 0. -1.
       22    1    1    2    0    0 -0.12211528443E-05  0.46094650812E-07  0.28402759649E-05  0.30920068795E-05  0.00000000000E+00 0. -1.
       22    1    1    2    0    0 -0.30529614403E-01 -0.11588758728E-02 -0.17073449971E-01  0.34998614870E-01  0.00000000000E+00 0.  1.
</event>
<event>
 5   0  0.6221259E+05  0.9118800E+02  0.7546771E-02  0.1180000E+00
      -11   -1    0    0    0    0  0.00000000000E+00  0.00000000000E+00  0.34996269501E-01  0.35000000000E-01  0.51099999109E-03 0. -1.
       11   -1    0    0    0    0 -0.00000000000E+00 -0.00000000000E+00 -0.34996269501E-01  0.35000000000E-01  0.51099999109E-03 0.  1.
       22    1    1    2    0    0 -0.35118924287E-07 -0.37467532397E-06  0.22145345854E-05  0.22462810081E-05  0.00000000000E+00 0.  1.
       22    1    1    2    0    0 -0.24495184382E-02 -0.56126254867E-03 -0.34909643885E-01  0.34999977034E-01  0.00000000000E+00 0.  1.
       22    1    1    2    0    0  0.24495535571E-02  0.56163722400E-03  0.34907429351E-01  0.34997776685E-01  0.00000000000E+00 0. -1.
</event>
<event>
 5   0  0.6221259E+05  0.9118800E+02  0.7546771E-02  0.1180000E+00
      -11   -1    0    0    0    0  0.00000000000E+00  0.00000000000E+00  0.34996269501E-01  0.35000000000E-01  0.51099999109E-03 0. -1.
       11   -1    0    0    0    0 -0.00000000000E+00 -0.00000000000E+00 -0.34996269501E-01  0.35000000000E-01  0.51099999109E-03 0. -1.
       22    1    1    2    0    0  0.53333012846E-02  0.57793468473E-02  0.72508591375E-02  0.10696724303E-01  0.00000000000E+00 0.  1.
       22    1    1    2    0    0  0.34812050562E-03  0.68720516409E-03  0.25463634842E-01  0.25475284850E-01  0.00000000000E+00 0. -1.
       22    1    1    2    0    0 -0.56814217902E-02 -0.64665520114E-02 -0.32714493979E-01  0.33827990848E-01  0.00000000000E+00 0. -1.
</event>
<event>
 5   0  0.6221259E+05  0.9118800E+02  0.7546771E-02  0.1180000E+00
      -11   -1    0    0    0    0  0.00000000000E+00  0.00000000000E+00  0.34996269501E-01  0.35000000000E-01  0.51099999109E-03 0. -1.
       11   -1    0    0    0    0 -0.00000000000E+00 -0.00000000000E+00 -0.34996269501E-01  0.35000000000E-01  0.51099999109E-03 0. -1.
       22    1    1    2    0    0  0.10896223230E-02 -0.17764726961E-02  0.34606208686E-01  0.34668902661E-01  0.00000000000E+00 0. -1.
       22    1    1    2    0    0 -0.10748983028E-02  0.10282134743E-02 -0.34548461378E-01  0.34580468662E-01  0.00000000000E+00 0. -1.
       22    1    1    2    0    0 -0.14724020281E-04  0.74825922177E-03 -0.57747308639E-04  0.75062867744E-03  0.00000000000E+00 0. -1.
</event>
<event>
 5   0  0.6221259E+05  0.9118800E+02  0.7546771E-02  0.1180000E+00
      -11   -1    0    0    0    0  0.00000000000E+00  0.00000000000E+00  0.34996269501E-01  0.35000000000E-01  0.51099999109E-03 0.  1.
       11   -1    0    0    0    0 -0.00000000000E+00 -0.00000000000E+00 -0.34996269501E-01  0.35000000000E-01  0.51099999109E-03 0.  1.
       22    1    1    2    0    0 -0.92044804043E-07  0.90020273569E-07  0.40278751497E-06  0.42286366340E-06  0.00000000000E+00 0. -1.
       22    1    1    2    0    0  0.92054457371E-07 -0.90029714571E-07  0.35003197176E-01  0.34999587154E-01  0.00000000000E+00 0.  1.
       22    1    1    2    0    0 -0.96533281475E-11  0.94410026696E-11 -0.35003599963E-01  0.34999989983E-01  0.00000000000E+00 0.  1.
</event>
<event>
 5   0  0.6221259E+05  0.9118800E+02  0.7546771E-02  0.1180000E+00
      -11   -1    0    0    0    0  0.00000000000E+00  0.00000000000E+00  0.34996269501E-01  0.35000000000E-01  0.51099999109E-03 0.  1.
       11   -1    0    0    0    0 -0.00000000000E+00 -0.00000000000E+00 -0.34996269501E-01  0.35000000000E-01  0.51099999109E-03 0. -1.
       22    1    1    2    0    0 -0.24960120937E-07 -0.66098211380E-07  0.26304180305E-06  0.27236551055E-06  0.00000000000E+00 0. -1.
       22    1    1    2    0    0  0.15014675273E-01 -0.83830168493E-02 -0.30484141146E-01  0.34999975807E-01  0.00000000000E+00 0. -1.
       22    1    1    2    0    0 -0.15014650313E-01  0.83830829475E-02  0.30483878104E-01  0.34999751828E-01  0.00000000000E+00 0.  1.
</event>
<event>
 5   0  0.6221259E+05  0.9118800E+02  0.7546771E-02  0.1180000E+00
      -11   -1    0    0    0    0  0.00000000000E+00  0.00000000000E+00  0.34996269501E-01  0.35000000000E-01  0.51099999109E-03 0.  1.
       11   -1    0    0    0    0 -0.00000000000E+00 -0.00000000000E+00 -0.34996269501E-01  0.35000000000E-01  0.51099999109E-03 0. -1.
       22    1    1    2    0    0 -0.24711345126E-04  0.33273355561E-04  0.16433528325E-03  0.16948112606E-03  0.00000000000E+00 0.  1.
       22    1    1    2    0    0  0.67312423383E-03 -0.28169829437E-02 -0.34878669926E-01  0.34998715762E-01  0.00000000000E+00 0. -1.
       22    1    1    2    0    0 -0.64841288871E-03  0.27837095882E-02  0.34714334643E-01  0.34831803112E-01  0.00000000000E+00 0.  1.
</event>
<event>
 5   0  0.6221259E+05  0.9118800E+02  0.7546771E-02  0.1180000E+00
      -11   -1    0    0    0    0  0.00000000000E+00  0.00000000000E+00  0.34996269501E-01  0.35000000000E-01  0.51099999109E-03 0. -1.
       11   -1    0    0    0    0 -0.00000000000E+00 -0.00000000000E+00 -0.34996269501E-01  0.35000000000E-01  0.51099999109E-03 0.  1.
       22    1    1    2    0    0 -0.89964952017E-07  0.60824041402E-07  0.14401723648E-05  0.14442609518E-05  0.00000000000E+00 0.  1.
       22    1    1    2    0    0  0.61974757779E-03 -0.42155225018E-02  0.34738235662E-01  0.34998567599E-01  0.00000000000E+00 0. -1.
       22    1    1    2    0    0 -0.61965761284E-03  0.42154616778E-02 -0.34739675835E-01  0.34999988140E-01  0.00000000000E+00 0.  1.
</event>
<event>
 5   0  0.6221259E+05  0.9118800E+02  0.7546771E-02  0.1180000E+00
      -11   -1    0    0    0    0  0.00000000000E+00  0.00000000000E+00  0.34996269501E-01  0.35000000000E-01  0.51099999109E-03 0.  1.
       11   -1    0    0    0    0 -0.00000000000E+00 -0.00000000000E+00 -0.34996269501E-01  0.35000000000E-01  0.51099999109E-03 0. -1.
       22    1    1    2    0    0  0.59540869623E-02  0.89955579250E-02  0.33296077259E-01  0.34999999640E-01  0.00000000000E+00 0.  1.
       22    1    1    2    0    0 -0.13384461263E-09 -0.18613191170E-09  0.37215160285E-09  0.43709985631E-09  0.00000000000E+00 0.  1.
       22    1    1    2    0    0 -0.59540868284E-02 -0.89955577388E-02 -0.33296077631E-01  0.34999999923E-01  0.00000000000E+00 0. -1.
</event>
<event>
 5   0  0.6221259E+05  0.9118800E+02  0.7546771E-02  0.1180000E+00
      -11   -1    0    0    0    0  0.00000000000E+00  0.00000000000E+00  0.34996269501E-01  0.35000000000E-01  0.51099999109E-03 0.  1.
       11   -1    0    0    0    0 -0.00000000000E+00 -0.00000000000E+00 -0.34996269501E-01  0.35000000000E-01  0.51099999109E-03 0. -1.
       22    1    1    2    0    0 -0.88901727726E-03  0.85084727464E-03 -0.34978301945E-01  0.34999941425E-01  0.00000000000E+00 0. -1.
       22    1    1    2    0    0  0.88959654995E-03 -0.85036909768E-03  0.34975851431E-01  0.34997495524E-01  0.00000000000E+00 0.  1.
       22    1    1    2    0    0 -0.57927269320E-06 -0.47817696037E-06  0.24505145713E-05  0.25630512525E-05  0.00000000000E+00 0.  1.
</event>
<event>
 5   0  0.6221259E+05  0.9118800E+02  0.7546771E-02  0.1180000E+00
      -11   -1    0    0    0    0  0.00000000000E+00  0.00000000000E+00  0.34996269501E-01  0.35000000000E-01  0.51099999109E-03 0.  1.
       11   -1    0    0    0    0 -0.00000000000E+00 -0.00000000000E+00 -0.34996269501E-01  0.35000000000E-01  0.51099999109E-03 0. -1.
       22    1    1    2    0    0 -0.73082623158E-02 -0.15658472267E-02 -0.31573135527E-01  0.32445731039E-01  0.00000000000E+00 0. -1.
       22    1    1    2    0    0  0.53713282623E-02  0.52998000764E-02  0.21697920339E-02  0.78515632598E-02  0.00000000000E+00 0.  1.
       22    1    1    2    0    0  0.19369340534E-02 -0.37339528497E-02  0.29403343493E-01  0.29702705702E-01  0.00000000000E+00 0.  1.
</event>
<event>
 5   0  0.6221259E+05  0.9118800E+02  0.7546771E-02  0.1180000E+00
      -11   -1    0    0    0    0  0.00000000000E+00  0.00000000000E+00  0.34996269501E-01  0.35000000000E-01  0.51099999109E-03 0. -1.
       11   -1    0    0    0    0 -0.00000000000E+00 -0.00000000000E+00 -0.34996269501E-01  0.35000000000E-01  0.51099999109E-03 0.  1.
       22    1    1    2    0    0  0.50647948882E-02  0.21991330840E-01 -0.26753061391E-01  0.34999958188E-01  0.00000000000E+00 0.  1.
       22    1    1    2    0    0 -0.50647494122E-02 -0.21991391350E-01  0.26752921003E-01  0.34999882318E-01  0.00000000000E+00 0. -1.
       22    1    1    2    0    0 -0.45476058182E-07  0.60510133610E-07  0.14038789927E-06  0.15949391963E-06  0.00000000000E+00 0. -1.
</event>
<event>
 5   0  0.6221259E+05  0.9118800E+02  0.7546771E-02  0.1180000E+00
      -11   -1    0    0    0    0  0.00000000000E+00  0.00000000000E+00  0.34996269501E-01  0.35000000000E-01  0.51099999109E-03 0. -1.
       11   -1    0    0    0    0 -0.00000000000E+00 -0.00000000000E+00 -0.34996269501E-01  0.35000000000E-01  0.51099999109E-03 0.  1.
       22    1    1    2    0    0  0.30785602479E-03  0.17220680284E-02 -0.34955978939E-01  0.34999725102E-01  0.00000000000E+00 0.  1.
       22    1    1    2    0    0 -0.30762659124E-03 -0.17226249017E-02  0.34955895160E-01  0.34999666814E-01  0.00000000000E+00 0. -1.
       22    1    1    2    0    0 -0.22943354856E-06  0.55687337628E-06  0.83778725518E-07  0.60808435703E-06  0.00000000000E+00 0.  1.
</event>
<event>
 5   0  0.6221259E+05  0.9118800E+02  0.7546771E-02  0.1180000E+00
      -11   -1    0    0    0    0  0.00000000000E+00  0.00000000000E+00  0.34996269501E-01  0.35000000000E-01  0.51099999109E-03 0. -1.
       11   -1    0    0    0    0 -0.00000000000E+00 -0.00000000000E+00 -0.34996269501E-01  0.35000000000E-01  0.51099999109E-03 0. -1.
       22    1    1    2    0    0  0.27764961679E-07 -0.52419985934E-07  0.34998288780E-01  0.34998129083E-01  0.00000000000E+00 0. -1.
       22    1    1    2    0    0 -0.15431741863E-11  0.29134983175E-11 -0.35000159223E-01  0.34999999534E-01  0.00000000000E+00 0. -1.
       22    1    1    2    0    0 -0.27763418505E-07  0.52417072436E-07  0.18704427160E-05  0.18713829941E-05  0.00000000000E+00 0. -1.
</event>
<event>
 5   0  0.6221259E+05  0.9118800E+02  0.7546771E-02  0.1180000E+00
      -11   -1    0    0    0    0  0.00000000000E+00  0.00000000000E+00  0.34996269501E-01  0.35000000000E-01  0.51099999109E-03 0. -1.
       11   -1    0    0    0    0 -0.00000000000E+00 -0.00000000000E+00 -0.34996269501E-01  0.35000000000E-01  0.51099999109E-03 0.  1.
       22    1    1    2    0    0 -0.31589511835E-02 -0.11944049079E-02  0.34434514889E-01  0.34599731087E-01  0.00000000000E+00 0. -1.
       22    1    1    2    0    0 -0.77451177596E-03 -0.32861804607E-03 -0.14676772574E-03  0.85404863832E-03  0.00000000000E+00 0. -1.
       22    1    1    2    0    0  0.39334629595E-02  0.15230229539E-02 -0.34287747163E-01  0.34546220275E-01  0.00000000000E+00 0.  1.
</event>
<event>
 5   0  0.6221259E+05  0.9118800E+02  0.7546771E-02  0.1180000E+00
      -11   -1    0    0    0    0  0.00000000000E+00  0.00000000000E+00  0.34996269501E-01  0.35000000000E-01  0.51099999109E-03 0.  1.
       11   -1    0    0    0    0 -0.00000000000E+00 -0.00000000000E+00 -0.34996269501E-01  0.35000000000E-01  0.51099999109E-03 0. -1.
       22    1    1    2    0    0  0.51514230432E-07  0.53966819041E-07  0.36457883975E-06  0.37213420145E-06  0.00000000000E+00 0. -1.
       22    1    1    2    0    0 -0.12451518144E-01  0.32639552535E-01 -0.21461462996E-02  0.34999809109E-01  0.00000000000E+00 0.  1.
       22    1    1    2    0    0  0.12451466629E-01 -0.32639606502E-01  0.21457817207E-02  0.34999818757E-01  0.00000000000E+00 0. -1.
</event>
<event>
 5   0  0.6221259E+05  0.9118800E+02  0.7546771E-02  0.1180000E+00
      -11   -1    0    0    0    0  0.00000000000E+00  0.00000000000E+00  0.34996269501E-01  0.35000000000E-01  0.51099999109E-03 0. -1.
       11   -1    0    0    0    0 -0.00000000000E+00 -0.00000000000E+00 -0.34996269501E-01  0.35000000000E-01  0.51099999109E-03 0.  1.
       22    1    1    2    0    0 -0.80981045856E-07 -0.68682700742E-07  0.31185813408E-07  0.11066977061E-06  0.00000000000E+00 0.  1.
       22    1    1    2    0    0 -0.24208208750E-02 -0.20236376726E-02  0.34857412717E-01  0.34999924349E-01  0.00000000000E+00 0. -1.
       22    1    1    2    0    0  0.24209018561E-02  0.20237063553E-02 -0.34857443903E-01  0.34999964981E-01  0.00000000000E+00 0.  1.
</event>
<event>
 5   0  0.6221259E+05  0.9118800E+02  0.7546771E-02  0.1180000E+00
      -11   -1    0    0    0    0  0.00000000000E+00  0.00000000000E+00  0.34996269501E-01  0.35000000000E-01  0.51099999109E-03 0. -1.
       11   -1    0    0    0    0 -0.00000000000E+00 -0.00000000000E+00 -0.34996269501E-01  0.35000000000E-01  0.51099999109E-03 0.  1.
       22    1    1    2    0    0 -0.37459716766E-03  0.26427214913E-02 -0.34898032763E-01  0.34999957009E-01  0.00000000000E+00 0.  1.
       22    1    1    2    0    0  0.37470128288E-03 -0.26428118239E-02  0.34897949564E-01  0.34999881987E-01  0.00000000000E+00 0. -1.
       22    1    1    2    0    0 -0.10411522649E-06  0.90332525199E-07  0.83199304524E-07  0.16100332223E-06  0.00000000000E+00 0. -1.
</event>
<event>
 5   0  0.6221259E+05  0.9118800E+02  0.7546771E-02  0.1180000E+00
      -11   -1    0    0    0    0  0.00000000000E+00  0.00000000000E+00  0.34996269501E-01  0.35000000000E-01  0.51099999109E-03 0.  1.
       11   -1    0    0    0    0 -0.00000000000E+00 -0.00000000000E+00 -0.34996269501E-01  0.35000000000E-01  0.51099999109E-03 0. -1.
       22    1    1    2    0    0 -0.48138498400E-02 -0.10860414038E-02  0.34639076547E-01  0.34988830507E-01  0.00000000000E+00 0.  1.
       22    1    1    2    0    0  0.48333364785E-02  0.11583954643E-02 -0.34466615394E-01  0.34823133091E-01  0.00000000000E+00 0. -1.
       22    1    1    2    0    0 -0.19486638538E-04 -0.72354060575E-04 -0.17246115297E-03  0.18803640192E-03  0.00000000000E+00 0.  1.
</event>
<event>
 5   0  0.6221259E+05  0.9118800E+02  0.7546771E-02  0.1180000E+00
      -11   -1    0    0    0    0  0.00000000000E+00  0.00000000000E+00  0.34996269501E-01  0.35000000000E-01  0.51099999109E-03 0. -1.
       11   -1    0    0    0    0 -0.00000000000E+00 -0.00000000000E+00 -0.34996269501E-01  0.35000000000E-01  0.51099999109E-03 0.  1.
       22    1    1    2    0    0  0.91031148620E-03 -0.24572285392E-01 -0.24588465613E-01  0.34773819427E-01  0.00000000000E+00 0.  1.
       22    1    1    2    0    0 -0.92562596676E-03  0.24617971977E-01  0.24831371781E-01  0.34978541311E-01  0.00000000000E+00 0. -1.
       22    1    1    2    0    0  0.15314480566E-04 -0.45686585370E-04 -0.24290616846E-03  0.24763926198E-03  0.00000000000E+00 0. -1.
</event>
<event>
 5   0  0.6221259E+05  0.9118800E+02  0.7546771E-02  0.1180000E+00
      -11   -1    0    0    0    0  0.00000000000E+00  0.00000000000E+00  0.34996269501E-01  0.35000000000E-01  0.51099999109E-03 0. -1.
       11   -1    0    0    0    0 -0.00000000000E+00 -0.00000000000E+00 -0.34996269501E-01  0.35000000000E-01  0.51099999109E-03 0. -1.
       22    1    1    2    0    0 -0.44543354215E-03 -0.82877581348E-03  0.34967165003E-01  0.34979821451E-01  0.00000000000E+00 0. -1.
       22    1    1    2    0    0 -0.20562557530E-04  0.14601691694E-04  0.12353762245E-04  0.28082799257E-04  0.00000000000E+00 0. -1.
       22    1    1    2    0    0  0.46599609968E-03  0.81417412178E-03 -0.34979518766E-01  0.34992095749E-01  0.00000000000E+00 0. -1.
</event>
<event>
 5   0  0.6221259E+05  0.9118800E+02  0.7546771E-02  0.1180000E+00
      -11   -1    0    0    0    0  0.00000000000E+00  0.00000000000E+00  0.34996269501E-01  0.35000000000E-01  0.51099999109E-03 0.  1.
       11   -1    0    0    0    0 -0.00000000000E+00 -0.00000000000E+00 -0.34996269501E-01  0.35000000000E-01  0.51099999109E-03 0. -1.
       22    1    1    2    0    0 -0.16725488786E-01  0.40352373387E-02 -0.30475630646E-01  0.34996988138E-01  0.00000000000E+00 0. -1.
       22    1    1    2    0    0  0.42508502669E-05 -0.13031907398E-04  0.63981752407E-05  0.15127358819E-04  0.00000000000E+00 0.  1.
       22    1    1    2    0    0  0.16721237936E-01 -0.40222054313E-02  0.30469232470E-01  0.34987884503E-01  0.00000000000E+00 0.  1.
</event>
<event>
 5   0  0.6221259E+05  0.9118800E+02  0.7546771E-02  0.1180000E+00
      -11   -1    0    0    0    0  0.00000000000E+00  0.00000000000E+00  0.34996269501E-01  0.35000000000E-01  0.51099999109E-03 0. -1.
       11   -1    0    0    0    0 -0.00000000000E+00 -0.00000000000E+00 -0.34996269501E-01  0.35000000000E-01  0.51099999109E-03 0.  1.
       22    1    1    2    0    0 -0.21964302716E-02 -0.19934563242E-02 -0.27573721097E-01  0.27732801322E-01  0.00000000000E+00 0.  1.
       22    1    1    2    0    0  0.23044658202E-03  0.22930677999E-03 -0.72931611022E-02  0.73004031456E-02  0.00000000000E+00 0.  1.
       22    1    1    2    0    0  0.19659836896E-02  0.17641495442E-02  0.34866882199E-01  0.34966795532E-01  0.00000000000E+00 0. -1.
</event>
<event>
 5   0  0.6221259E+05  0.9118800E+02  0.7546771E-02  0.1180000E+00
      -11   -1    0    0    0    0  0.00000000000E+00  0.00000000000E+00  0.34996269501E-01  0.35000000000E-01  0.51099999109E-03 0.  1.
       11   -1    0    0    0    0 -0.00000000000E+00 -0.00000000000E+00 -0.34996269501E-01  0.35000000000E-01  0.51099999109E-03 0. -1.
       22    1    1    2    0    0 -0.36049885576E-02 -0.31913557197E-01 -0.13911465987E-01  0.34999999449E-01  0.00000000000E+00 0. -1.
       22    1    1    2    0    0 -0.49455626668E-09  0.37983224738E-09  0.21744428302E-08  0.22620919651E-08  0.00000000000E+00 0.  1.
       22    1    1    2    0    0  0.36049890521E-02  0.31913556818E-01  0.13911463813E-01  0.34999998289E-01  0.00000000000E+00 0.  1.
</event>
<event>
 5   0  0.6221259E+05  0.9118800E+02  0.7546771E-02  0.1180000E+00
      -11   -1    0    0    0    0  0.00000000000E+00  0.00000000000E+00  0.34996269501E-01  0.35000000000E-01  0.51099999109E-03 0. -1.
       11   -1    0    0    0    0 -0.00000000000E+00 -0.00000000000E+00 -0.34996269501E-01  0.35000000000E-01  0.51099999109E-03 0.  1.
       22    1    1    2    0    0  0.17212026950E-07 -0.13435083899E-08  0.12193742466E-07  0.21136372486E-07  0.00000000000E+00 0.  1.
       22    1    1    2    0    0  0.67125310264E-03  0.52773885147E-02 -0.34593326919E-01  0.34999995394E-01  0.00000000000E+00 0.  1.
       22    1    1    2    0    0 -0.67127031467E-03 -0.52773871712E-02  0.34593314725E-01  0.34999983470E-01  0.00000000000E+00 0. -1.
</event>
<event>
 5   0  0.6221259E+05  0.9118800E+02  0.7546771E-02  0.1180000E+00
      -11   -1    0    0    0    0  0.00000000000E+00  0.00000000000E+00  0.34996269501E-01  0.35000000000E-01  0.51099999109E-03 0.  1.
       11   -1    0    0    0    0 -0.00000000000E+00 -0.00000000000E+00 -0.34996269501E-01  0.35000000000E-01  0.51099999109E-03 0. -1.
       22    1    1    2    0    0 -0.16627534133E-01  0.23621925989E-02  0.30707354587E-01  0.34999949585E-01  0.00000000000E+00 0.  1.
       22    1    1    2    0    0  0.77843255116E-08 -0.11886236969E-07  0.55146421634E-07  0.56947398290E-07  0.00000000000E+00 0.  1.
       22    1    1    2    0    0  0.16627526349E-01 -0.23621807126E-02 -0.30707409733E-01  0.34999993468E-01  0.00000000000E+00 0. -1.
</event>
<event>
 5   0  0.6221259E+05  0.9118800E+02  0.7546771E-02  0.1180000E+00
      -11   -1    0    0    0    0  0.00000000000E+00  0.00000000000E+00  0.34996269501E-01  0.35000000000E-01  0.51099999109E-03 0. -1.
       11   -1    0    0    0    0 -0.00000000000E+00 -0.00000000000E+00 -0.34996269501E-01  0.35000000000E-01  0.51099999109E-03 0.  1.
       22    1    1    2    0    0 -0.17115340158E-01  0.26215038524E-01  0.10308825938E-01  0.32961113539E-01  0.00000000000E+00 0. -1.
       22    1    1    2    0    0  0.16161256902E-01 -0.25200932794E-01 -0.14032551264E-01  0.33063359377E-01  0.00000000000E+00 0.  1.
       22    1    1    2    0    0  0.95408325582E-03 -0.10141057299E-02  0.37237253264E-02  0.39755270841E-02  0.00000000000E+00 0.  1.
</event>
<event>
 5   0  0.6221259E+05  0.9118800E+02  0.7546771E-02  0.1180000E+00
      -11   -1    0    0    0    0  0.00000000000E+00  0.00000000000E+00  0.34996269501E-01  0.35000000000E-01  0.51099999109E-03 0.  1.
       11   -1    0    0    0    0 -0.00000000000E+00 -0.00000000000E+00 -0.34996269501E-01  0.35000000000E-01  0.51099999109E-03 0. -1.
       22    1    1    2    0    0 -0.12687350405E-03 -0.15125512461E-03  0.88925613725E-02  0.88947525408E-02  0.00000000000E+00 0.  1.
       22    1    1    2    0    0 -0.10320505148E-02  0.64315918029E-03  0.26080848860E-01  0.26109183427E-01  0.00000000000E+00 0.  1.
       22    1    1    2    0    0  0.11589240189E-02 -0.49190405568E-03 -0.34973410232E-01  0.34996064032E-01  0.00000000000E+00 0. -1.
</event>
<event>
 5   0  0.6221259E+05  0.9118800E+02  0.7546771E-02  0.1180000E+00
      -11   -1    0    0    0    0  0.00000000000E+00  0.00000000000E+00  0.34996269501E-01  0.35000000000E-01  0.51099999109E-03 0.  1.
       11   -1    0    0    0    0 -0.00000000000E+00 -0.00000000000E+00 -0.34996269501E-01  0.35000000000E-01  0.51099999109E-03 0. -1.
       22    1    1    2    0    0 -0.57121166735E-03  0.30265377113E-04 -0.34995324838E-01  0.34999999418E-01  0.00000000000E+00 0. -1.
       22    1    1    2    0    0 -0.33320011738E-07  0.14763528147E-07  0.27107676725E-05  0.27110126446E-05  0.00000000000E+00 0.  1.
       22    1    1    2    0    0  0.57124498736E-03 -0.30280140641E-04  0.34992614070E-01  0.34997289569E-01  0.00000000000E+00 0.  1.
</event>
<event>
 5   0  0.6221259E+05  0.9118800E+02  0.7546771E-02  0.1180000E+00
      -11   -1    0    0    0    0  0.00000000000E+00  0.00000000000E+00  0.34996269501E-01  0.35000000000E-01  0.51099999109E-03 0. -1.
       11   -1    0    0    0    0 -0.00000000000E+00 -0.00000000000E+00 -0.34996269501E-01  0.35000000000E-01  0.51099999109E-03 0.  1.
       22    1    1    2    0    0  0.68592767276E-03 -0.15590417066E-02 -0.34953094310E-01  0.34994569716E-01  0.00000000000E+00 0.  1.
       22    1    1    2    0    0 -0.35721693151E-04 -0.11293714915E-03  0.24626586844E-02  0.24655057565E-02  0.00000000000E+00 0.  1.
       22    1    1    2    0    0 -0.65020597961E-03  0.16719788558E-02  0.32490435625E-01  0.32539924527E-01  0.00000000000E+00 0. -1.
</event>
<event>
 5   0  0.6221259E+05  0.9118800E+02  0.7546771E-02  0.1180000E+00
      -11   -1    0    0    0    0  0.00000000000E+00  0.00000000000E+00  0.34996269501E-01  0.35000000000E-01  0.51099999109E-03 0.  1.
       11   -1    0    0    0    0 -0.00000000000E+00 -0.00000000000E+00 -0.34996269501E-01  0.35000000000E-01  0.51099999109E-03 0.  1.
       22    1    1    2    0    0  0.31986150443E-04  0.13161658761E-04  0.74267499062E-05  0.35376541601E-04  0.00000000000E+00 0.  1.
       22    1    1    2    0    0  0.54713917563E-05 -0.44487732296E-04 -0.34985993706E-01  0.34986022419E-01  0.00000000000E+00 0.  1.
       22    1    1    2    0    0 -0.37457542199E-04  0.31326073535E-04  0.34978566956E-01  0.34978601040E-01  0.00000000000E+00 0.  1.
</event>
<event>
 5   0  0.6221259E+05  0.9118800E+02  0.7546771E-02  0.1180000E+00
      -11   -1    0    0    0    0  0.00000000000E+00  0.00000000000E+00  0.34996269501E-01  0.35000000000E-01  0.51099999109E-03 0.  1.
       11   -1    0    0    0    0 -0.00000000000E+00 -0.00000000000E+00 -0.34996269501E-01  0.35000000000E-01  0.51099999109E-03 0. -1.
       22    1    1    2    0    0  0.20492890250E-07 -0.71469848480E-07  0.44351443293E-05  0.44357674781E-05  0.00000000000E+00 0. -1.
       22    1    1    2    0    0  0.13520333170E-01  0.12581337972E-01  0.29725814646E-01  0.34995907340E-01  0.00000000000E+00 0.  1.
       22    1    1    2    0    0 -0.13520353663E-01 -0.12581266502E-01 -0.29730249791E-01  0.34999656892E-01  0.00000000000E+00 0. -1.
</event>
<event>
 5   0  0.6221259E+05  0.9118800E+02  0.7546771E-02  0.1180000E+00
      -11   -1    0    0    0    0  0.00000000000E+00  0.00000000000E+00  0.34996269501E-01  0.35000000000E-01  0.51099999109E-03 0.  1.
       11   -1    0    0    0    0 -0.00000000000E+00 -0.00000000000E+00 -0.34996269501E-01  0.35000000000E-01  0.51099999109E-03 0. -1.
       22    1    1    2    0    0  0.11784104159E-02  0.36720752647E-02 -0.34727031809E-01  0.34940514108E-01  0.00000000000E+00 0. -1.
       22    1    1    2    0    0 -0.87395430192E-03  0.10731280639E-05  0.31811402118E-02  0.32990074751E-02  0.00000000000E+00 0.  1.
       22    1    1    2    0    0 -0.30445611398E-03 -0.36731483927E-02  0.31545891597E-01  0.31760478417E-01  0.00000000000E+00 0.  1.
</event>
<event>
 5   0  0.6221259E+05  0.9118800E+02  0.7546771E-02  0.1180000E+00
      -11   -1    0    0    0    0  0.00000000000E+00  0.00000000000E+00  0.34996269501E-01  0.35000000000E-01  0.51099999109E-03 0. -1.
       11   -1    0    0    0    0 -0.00000000000E+00 -0.00000000000E+00 -0.34996269501E-01  0.35000000000E-01  0.51099999109E-03 0.  1.
       22    1    1    2    0    0  0.49768148120E-08  0.52389931539E-09  0.53033174690E-08  0.72916618368E-08  0.00000000000E+00 0.  1.
       22    1    1    2    0    0  0.38402219471E-03  0.66328010331E-03 -0.34991606344E-01  0.34999998973E-01  0.00000000000E+00 0.  1.
       22    1    1    2    0    0 -0.38402717152E-03 -0.66328062721E-03  0.34991601041E-01  0.34999993735E-01  0.00000000000E+00 0. -1.
</event>
<event>
 5   0  0.6221259E+05  0.9118800E+02  0.7546771E-02  0.1180000E+00
      -11   -1    0    0    0    0  0.00000000000E+00  0.00000000000E+00  0.34996269501E-01  0.35000000000E-01  0.51099999109E-03 0. -1.
       11   -1    0    0    0    0 -0.00000000000E+00 -0.00000000000E+00 -0.34996269501E-01  0.35000000000E-01  0.51099999109E-03 0.  1.
       22    1    1    2    0    0  0.22963869369E-02  0.63929445799E-02 -0.64393158086E-03  0.68233262597E-02  0.00000000000E+00 0.  1.
       22    1    1    2    0    0 -0.27149120771E-05 -0.69082587613E-02  0.31491161476E-01  0.32239995310E-01  0.00000000000E+00 0. -1.
       22    1    1    2    0    0 -0.22936720248E-02  0.51531418137E-03 -0.30847229895E-01  0.30936678430E-01  0.00000000000E+00 0.  1.
</event>
<event>
 5   0  0.6221259E+05  0.9118800E+02  0.7546771E-02  0.1180000E+00
      -11   -1    0    0    0    0  0.00000000000E+00  0.00000000000E+00  0.34996269501E-01  0.35000000000E-01  0.51099999109E-03 0.  1.
       11   -1    0    0    0    0 -0.00000000000E+00 -0.00000000000E+00 -0.34996269501E-01  0.35000000000E-01  0.51099999109E-03 0.  1.
       22    1    1    2    0    0  0.16329991299E-06  0.50739548575E-06  0.17917043663E-04  0.17924970590E-04  0.00000000000E+00 0.  1.
       22    1    1    2    0    0  0.10145215218E-02 -0.78476787985E-04  0.34967278666E-01  0.34982080982E-01  0.00000000000E+00 0.  1.
       22    1    1    2    0    0 -0.10146848217E-02  0.77969392500E-04 -0.34985195709E-01  0.34999994048E-01  0.00000000000E+00 0.  1.
</event>
<event>
 5   0  0.6221259E+05  0.9118800E+02  0.7546771E-02  0.1180000E+00
      -11   -1    0    0    0    0  0.00000000000E+00  0.00000000000E+00  0.34996269501E-01  0.35000000000E-01  0.51099999109E-03 0. -1.
       11   -1    0    0    0    0 -0.00000000000E+00 -0.00000000000E+00 -0.34996269501E-01  0.35000000000E-01  0.51099999109E-03 0.  1.
       22    1    1    2    0    0  0.10434400203E-02 -0.10478631354E-02  0.34927893392E-01  0.34959183644E-01  0.00000000000E+00 0. -1.
       22    1    1    2    0    0 -0.17075331014E-02  0.29800581184E-03 -0.25791503077E-01  0.25849682932E-01  0.00000000000E+00 0.  1.
       22    1    1    2    0    0  0.66409308114E-03  0.74985732353E-03 -0.91363903152E-02  0.91911334240E-02  0.00000000000E+00 0.  1.
</event>
<event>
 5   0  0.6221259E+05  0.9118800E+02  0.7546771E-02  0.1180000E+00
      -11   -1    0    0    0    0  0.00000000000E+00  0.00000000000E+00  0.34996269501E-01  0.35000000000E-01  0.51099999109E-03 0.  1.
       11   -1    0    0    0    0 -0.00000000000E+00 -0.00000000000E+00 -0.34996269501E-01  0.35000000000E-01  0.51099999109E-03 0.  1.
       22    1    1    2    0    0  0.75567755174E-02 -0.49569602806E-02 -0.16390613248E-02  0.91849242495E-02  0.00000000000E+00 0. -1.
       22    1    1    2    0    0 -0.00000000000E+00 -0.00000000000E+00  0.30538267895E-01  0.30535702378E-01  0.00000000000E+00 0.  1.
       22    1    1    2    0    0 -0.75567755174E-02  0.49569602806E-02 -0.28899206570E-01  0.30279373372E-01  0.00000000000E+00 0.  1.
</event>
<event>
 5   0  0.6221259E+05  0.9118800E+02  0.7546771E-02  0.1180000E+00
      -11   -1    0    0    0    0  0.00000000000E+00  0.00000000000E+00  0.34996269501E-01  0.35000000000E-01  0.51099999109E-03 0.  1.
       11   -1    0    0    0    0 -0.00000000000E+00 -0.00000000000E+00 -0.34996269501E-01  0.35000000000E-01  0.51099999109E-03 0. -1.
       22    1    1    2    0    0 -0.61039121796E-04  0.66322135634E-04  0.74391337665E-02  0.74396798047E-02  0.00000000000E+00 0.  1.
       22    1    1    2    0    0  0.27821958744E-02  0.10922443060E-02 -0.34856242006E-01  0.34984156675E-01  0.00000000000E+00 0. -1.
       22    1    1    2    0    0 -0.27211567526E-02 -0.11585664416E-02  0.27417108239E-01  0.27576163520E-01  0.00000000000E+00 0.  1.
</event>
<event>
 5   0  0.6221259E+05  0.9118800E+02  0.7546771E-02  0.1180000E+00
      -11   -1    0    0    0    0  0.00000000000E+00  0.00000000000E+00  0.34996269501E-01  0.35000000000E-01  0.51099999109E-03 0.  1.
       11   -1    0    0    0    0 -0.00000000000E+00 -0.00000000000E+00 -0.34996269501E-01  0.35000000000E-01  0.51099999109E-03 0. -1.
       22    1    1    2    0    0  0.11294353825E-04 -0.11807913076E-04 -0.46403580595E-04  0.49196356894E-04  0.00000000000E+00 0. -1.
       22    1    1    2    0    0 -0.30650215428E-01 -0.12657877653E-01  0.11150524174E-01  0.34985593632E-01  0.00000000000E+00 0.  1.
       22    1    1    2    0    0  0.30638921074E-01  0.12669685566E-01 -0.11104120593E-01  0.34965210011E-01  0.00000000000E+00 0. -1.
</event>
<event>
 5   0  0.6221259E+05  0.9118800E+02  0.7546771E-02  0.1180000E+00
      -11   -1    0    0    0    0  0.00000000000E+00  0.00000000000E+00  0.34996269501E-01  0.35000000000E-01  0.51099999109E-03 0. -1.
       11   -1    0    0    0    0 -0.00000000000E+00 -0.00000000000E+00 -0.34996269501E-01  0.35000000000E-01  0.51099999109E-03 0.  1.
       22    1    1    2    0    0  0.31584187237E-02 -0.28498059369E-02 -0.34498562675E-01  0.34759859456E-01  0.00000000000E+00 0.  1.
       22    1    1    2    0    0 -0.57557487483E-03 -0.95361940658E-04  0.67906057902E-04  0.58735982921E-03  0.00000000000E+00 0. -1.
       22    1    1    2    0    0 -0.25828438489E-02  0.29451678776E-02  0.34430656618E-01  0.34652780715E-01  0.00000000000E+00 0. -1.
</event>
<event>
 5   0  0.6221259E+05  0.9118800E+02  0.7546771E-02  0.1180000E+00
      -11   -1    0    0    0    0  0.00000000000E+00  0.00000000000E+00  0.34996269501E-01  0.35000000000E-01  0.51099999109E-03 0.  1.
       11   -1    0    0    0    0 -0.00000000000E+00 -0.00000000000E+00 -0.34996269501E-01  0.35000000000E-01  0.51099999109E-03 0.  1.
       22    1    1    2    0    0 -0.00000000000E+00  0.00000000000E+00  0.34992911863E-01  0.34992030847E-01  0.00000000000E+00 0.  1.
       22    1    1    2    0    0 -0.73655925251E-04 -0.10989344773E-03 -0.34409156244E-01  0.34409410562E-01  0.00000000000E+00 0.  1.
       22    1    1    2    0    0  0.73655925251E-04  0.10989344773E-03 -0.58375561901E-03  0.59855859187E-03  0.00000000000E+00 0. -1.
</event>
<event>
 5   0  0.6221259E+05  0.9118800E+02  0.7546771E-02  0.1180000E+00
      -11   -1    0    0    0    0  0.00000000000E+00  0.00000000000E+00  0.34996269501E-01  0.35000000000E-01  0.51099999109E-03 0.  1.
       11   -1    0    0    0    0 -0.00000000000E+00 -0.00000000000E+00 -0.34996269501E-01  0.35000000000E-01  0.51099999109E-03 0. -1.
       22    1    1    2    0    0  0.27629369329E-02  0.28177837872E-02  0.89943535427E-03  0.40475560433E-02  0.00000000000E+00 0. -1.
       22    1    1    2    0    0  0.72663935801E-03  0.30758591193E-02 -0.32989005782E-01  0.33140057582E-01  0.00000000000E+00 0. -1.
       22    1    1    2    0    0 -0.34895762910E-02 -0.58936429066E-02  0.32089570427E-01  0.32812386375E-01  0.00000000000E+00 0.  1.
</event>
<event>
 5   0  0.6221259E+05  0.9118800E+02  0.7546771E-02  0.1180000E+00
      -11   -1    0    0    0    0  0.00000000000E+00  0.00000000000E+00  0.34996269501E-01  0.35000000000E-01  0.51099999109E-03 0.  1.
       11   -1    0    0    0    0 -0.00000000000E+00 -0.00000000000E+00 -0.34996269501E-01  0.35000000000E-01  0.51099999109E-03 0.  1.
       22    1    1    2    0    0 -0.60009035854E-10 -0.97279999576E-11 -0.35002541238E-01  0.34999984141E-01  0.00000000000E+00 0.  1.
       22    1    1    2    0    0  0.66793588967E-06  0.10827836532E-06  0.34995455597E-01  0.34992897989E-01  0.00000000000E+00 0.  1.
       22    1    1    2    0    0 -0.66787588064E-06 -0.10826863732E-06  0.70856402655E-05  0.71178703460E-05  0.00000000000E+00 0. -1.
</event>
<event>
 5   0  0.6221259E+05  0.9118800E+02  0.7546771E-02  0.1180000E+00
      -11   -1    0    0    0    0  0.00000000000E+00  0.00000000000E+00  0.34996269501E-01  0.35000000000E-01  0.51099999109E-03 0. -1.
       11   -1    0    0    0    0 -0.00000000000E+00 -0.00000000000E+00 -0.34996269501E-01  0.35000000000E-01  0.51099999109E-03 0.  1.
       22    1    1    2    0    0 -0.94315228022E-02  0.27162591858E-01 -0.19953628495E-01  0.34998675817E-01  0.00000000000E+00 0.  1.
       22    1    1    2    0    0 -0.12470918801E-05  0.10308267618E-05  0.23453413811E-05  0.28492925726E-05  0.00000000000E+00 0. -1.
       22    1    1    2    0    0  0.94327698941E-02 -0.27163622684E-01  0.19951283154E-01  0.34998474891E-01  0.00000000000E+00 0. -1.
</event>
<event>
 5   0  0.6221259E+05  0.9118800E+02  0.7546771E-02  0.1180000E+00
      -11   -1    0    0    0    0  0.00000000000E+00  0.00000000000E+00  0.34996269501E-01  0.35000000000E-01  0.51099999109E-03 0.  1.
       11   -1    0    0    0    0 -0.00000000000E+00 -0.00000000000E+00 -0.34996269501E-01  0.35000000000E-01  0.51099999109E-03 0. -1.
       22    1    1    2    0    0 -0.52686814719E-03  0.24623211722E-03  0.34974612563E-01  0.34979447454E-01  0.00000000000E+00 0.  1.
       22    1    1    2    0    0  0.18954942026E-06 -0.79144918866E-06  0.20550116945E-04  0.20566225401E-04  0.00000000000E+00 0. -1.
       22    1    1    2    0    0  0.52667859777E-03 -0.24544066803E-03 -0.34995162679E-01  0.34999986320E-01  0.00000000000E+00 0. -1.
</event>
<event>
 5   0  0.6221259E+05  0.9118800E+02  0.7546771E-02  0.1180000E+00
      -11   -1    0    0    0    0  0.00000000000E+00  0.00000000000E+00  0.34996269501E-01  0.35000000000E-01  0.51099999109E-03 0. -1.
       11   -1    0    0    0    0 -0.00000000000E+00 -0.00000000000E+00 -0.34996269501E-01  0.35000000000E-01  0.51099999109E-03 0. -1.
       22    1    1    2    0    0  0.21713965677E-07  0.13269271194E-07  0.34998493372E-01  0.34997850445E-01  0.00000000000E+00 0. -1.
       22    1    1    2    0    0 -0.13567653540E-11 -0.82911098311E-12 -0.35000642832E-01  0.34999999944E-01  0.00000000000E+00 0. -1.
       22    1    1    2    0    0 -0.21712608911E-07 -0.13268442083E-07  0.21494601796E-05  0.21496107909E-05  0.00000000000E+00 0.  1.
</event>
<event>
 5   0  0.6221259E+05  0.9118800E+02  0.7546771E-02  0.1180000E+00
      -11   -1    0    0    0    0  0.00000000000E+00  0.00000000000E+00  0.34996269501E-01  0.35000000000E-01  0.51099999109E-03 0. -1.
       11   -1    0    0    0    0 -0.00000000000E+00 -0.00000000000E+00 -0.34996269501E-01  0.35000000000E-01  0.51099999109E-03 0.  1.
       22    1    1    2    0    0 -0.46035417634E-07 -0.50847244226E-07  0.33338363911E-07  0.76263677005E-07  0.00000000000E+00 0. -1.
       22    1    1    2    0    0  0.99214218919E-02 -0.14439327776E-01  0.30299624489E-01  0.34999943474E-01  0.00000000000E+00 0. -1.
       22    1    1    2    0    0 -0.99213758564E-02  0.14439378623E-01 -0.30299657828E-01  0.34999980263E-01  0.00000000000E+00 0.  1.
</event>
<event>
 5   0  0.6221259E+05  0.9118800E+02  0.7546771E-02  0.1180000E+00
      -11   -1    0    0    0    0  0.00000000000E+00  0.00000000000E+00  0.34996269501E-01  0.35000000000E-01  0.51099999109E-03 0. -1.
       11   -1    0    0    0    0 -0.00000000000E+00 -0.00000000000E+00 -0.34996269501E-01  0.35000000000E-01  0.51099999109E-03 0.  1.
       22    1    1    2    0    0  0.12035969469E-03  0.23398947289E-03  0.45211433905E-02  0.45287939992E-02  0.00000000000E+00 0.  1.
       22    1    1    2    0    0  0.12371443457E-03  0.22982809509E-02 -0.34905115941E-01  0.34980916504E-01  0.00000000000E+00 0.  1.
       22    1    1    2    0    0 -0.24407412926E-03 -0.25322704238E-02  0.30383972550E-01  0.30490289497E-01  0.00000000000E+00 0. -1.
</event>
<event>
 5   0  0.6221259E+05  0.9118800E+02  0.7546771E-02  0.1180000E+00
      -11   -1    0    0    0    0  0.00000000000E+00  0.00000000000E+00  0.34996269501E-01  0.35000000000E-01  0.51099999109E-03 0.  1.
       11   -1    0    0    0    0 -0.00000000000E+00 -0.00000000000E+00 -0.34996269501E-01  0.35000000000E-01  0.51099999109E-03 0.  1.
       22    1    1    2    0    0 -0.11168749147E-03 -0.53237047686E-04  0.34998259858E-01  0.34998478557E-01  0.00000000000E+00 0.  1.
       22    1    1    2    0    0  0.11165048121E-03  0.53196652310E-04 -0.34999780901E-01  0.34999999412E-01  0.00000000000E+00 0.  1.
       22    1    1    2    0    0  0.37010254920E-07  0.40395376402E-07  0.15210439343E-05  0.15220302873E-05  0.00000000000E+00 0.  1.
</event>
<event>
 5   0  0.6221259E+05  0.9118800E+02  0.7546771E-02  0.1180000E+00
      -11   -1    0    0    0    0  0.00000000000E+00  0.00000000000E+00  0.34996269501E-01  0.35000000000E-01  0.51099999109E-03 0.  1.
       11   -1    0    0    0    0 -0.00000000000E+00 -0.00000000000E+00 -0.34996269501E-01  0.35000000000E-01  0.51099999109E-03 0. -1.
       22    1    1    2    0    0  0.14237768168E-01 -0.93374215748E-02 -0.30579368547E-01  0.34999989497E-01  0.00000000000E+00 0. -1.
       22    1    1    2    0    0  0.23701268288E-07  0.49975446955E-08  0.26887328147E-07  0.36189141829E-07  0.00000000000E+00 0. -1.
       22    1    1    2    0    0 -0.14237791869E-01  0.93374165773E-02  0.30579341659E-01  0.34999974314E-01  0.00000000000E+00 0.  1.
</event>
<event>
 5   0  0.6221259E+05  0.9118800E+02  0.7546771E-02  0.1180000E+00
      -11   -1    0    0    0    0  0.00000000000E+00  0.00000000000E+00  0.34996269501E-01  0.35000000000E-01  0.51099999109E-03 0. -1.
       11   -1    0    0    0    0 -0.00000000000E+00 -0.00000000000E+00 -0.34996269501E-01  0.35000000000E-01  0.51099999109E-03 0. -1.
       22    1    1    2    0    0 -0.15184820242E-03  0.41160977147E-03 -0.34996936387E-01  0.34999686241E-01  0.00000000000E+00 0. -1.
       22    1    1    2    0    0  0.15379758946E-03 -0.40684464833E-03  0.34977586830E-01  0.34980290975E-01  0.00000000000E+00 0. -1.
       22    1    1    2    0    0 -0.19493870388E-05 -0.47651231449E-05  0.19349557194E-04  0.20022783823E-04  0.00000000000E+00 0. -1.
</event>
<event>
 5   0  0.6221259E+05  0.9118800E+02  0.7546771E-02  0.1180000E+00
      -11   -1    0    0    0    0  0.00000000000E+00  0.00000000000E+00  0.34996269501E-01  0.35000000000E-01  0.51099999109E-03 0.  1.
       11   -1    0    0    0    0 -0.00000000000E+00 -0.00000000000E+00 -0.34996269501E-01  0.35000000000E-01  0.51099999109E-03 0. -1.
       22    1    1    2    0    0 -0.55921148047E-04 -0.46728096075E-03 -0.34995842066E-01  0.34999006280E-01  0.00000000000E+00 0. -1.
       22    1    1    2    0    0  0.92353214856E-06 -0.22835718529E-05  0.57006845698E-06  0.25283571905E-05  0.00000000000E+00 0.  1.
       22    1    1    2    0    0  0.54997615898E-04  0.46956453261E-03  0.34995271997E-01  0.34998465363E-01  0.00000000000E+00 0.  1.
</event>
<event>
 5   0  0.6221259E+05  0.9118800E+02  0.7546771E-02  0.1180000E+00
      -11   -1    0    0    0    0  0.00000000000E+00  0.00000000000E+00  0.34996269501E-01  0.35000000000E-01  0.51099999109E-03 0.  1.
       11   -1    0    0    0    0 -0.00000000000E+00 -0.00000000000E+00 -0.34996269501E-01  0.35000000000E-01  0.51099999109E-03 0. -1.
       22    1    1    2    0    0 -0.12598162764E-02 -0.24865938622E-02 -0.34888789240E-01  0.34999970011E-01  0.00000000000E+00 0. -1.
       22    1    1    2    0    0  0.58644195805E-06 -0.33283433472E-06  0.12227252307E-04  0.12245831611E-04  0.00000000000E+00 0.  1.
       22    1    1    2    0    0  0.12592298344E-02  0.24869266965E-02  0.34876561988E-01  0.34987784158E-01  0.00000000000E+00 0.  1.
</event>
<event>
 5   0  0.6221259E+05  0.9118800E+02  0.7546771E-02  0.1180000E+00
      -11   -1    0    0    0    0  0.00000000000E+00  0.00000000000E+00  0.34996269501E-01  0.35000000000E-01  0.51099999109E-03 0.  1.
       11   -1    0    0    0    0 -0.00000000000E+00 -0.00000000000E+00 -0.34996269501E-01  0.35000000000E-01  0.51099999109E-03 0. -1.
       22    1    1    2    0    0 -0.70426403934E-02  0.72090588549E-02 -0.33517434384E-01  0.34999824584E-01  0.00000000000E+00 0. -1.
       22    1    1    2    0    0  0.70429463141E-02 -0.72086624511E-02  0.33509030584E-01  0.34991756712E-01  0.00000000000E+00 0.  1.
       22    1    1    2    0    0 -0.30592066519E-06 -0.39640379039E-06  0.84037991341E-05  0.84187031843E-05  0.00000000000E+00 0.  1.
</event>
<event>
 5   0  0.6221259E+05  0.9118800E+02  0.7546771E-02  0.1180000E+00
      -11   -1    0    0    0    0  0.00000000000E+00  0.00000000000E+00  0.34996269501E-01  0.35000000000E-01  0.51099999109E-03 0. -1.
       11   -1    0    0    0    0 -0.00000000000E+00 -0.00000000000E+00 -0.34996269501E-01  0.35000000000E-01  0.51099999109E-03 0.  1.
       22    1    1    2    0    0  0.91000057804E-02 -0.45380634915E-02  0.33482139253E-01  0.34992253063E-01  0.00000000000E+00 0. -1.
       22    1    1    2    0    0  0.22705204858E-04  0.27035990442E-04 -0.24155057663E-03  0.24411708703E-03  0.00000000000E+00 0.  1.
       22    1    1    2    0    0 -0.91227109853E-02  0.45110275010E-02 -0.33240588676E-01  0.34763629850E-01  0.00000000000E+00 0.  1.
</event>
<event>
 5   0  0.6221259E+05  0.9118800E+02  0.7546771E-02  0.1180000E+00
      -11   -1    0    0    0    0  0.00000000000E+00  0.00000000000E+00  0.34996269501E-01  0.35000000000E-01  0.51099999109E-03 0.  1.
       11   -1    0    0    0    0 -0.00000000000E+00 -0.00000000000E+00 -0.34996269501E-01  0.35000000000E-01  0.51099999109E-03 0.  1.
       22    1    1    2    0    0 -0.73951617045E-08  0.10127675148E-07  0.35002498872E-01  0.34999663752E-01  0.00000000000E+00 0.  1.
       22    1    1    2    0    0  0.73944680659E-08 -0.10126725210E-07  0.33611746371E-06  0.33635127193E-06  0.00000000000E+00 0. -1.
       22    1    1    2    0    0  0.69363855792E-12 -0.94993811707E-12 -0.35002834989E-01  0.34999999897E-01  0.00000000000E+00 0.  1.
</event>
<event>
 5   0  0.6221259E+05  0.9118800E+02  0.7546771E-02  0.1180000E+00
      -11   -1    0    0    0    0  0.00000000000E+00  0.00000000000E+00  0.34996269501E-01  0.35000000000E-01  0.51099999109E-03 0. -1.
       11   -1    0    0    0    0 -0.00000000000E+00 -0.00000000000E+00 -0.34996269501E-01  0.35000000000E-01  0.51099999109E-03 0.  1.
       22    1    1    2    0    0 -0.54701330283E-09 -0.32021300688E-09  0.36149803743E-07  0.36155360192E-07  0.00000000000E+00 0. -1.
       22    1    1    2    0    0  0.59613537731E-03 -0.96981023231E-03 -0.34981482099E-01  0.34999999988E-01  0.00000000000E+00 0.  1.
       22    1    1    2    0    0 -0.59613483029E-03  0.96981055252E-03  0.34981445950E-01  0.34999963857E-01  0.00000000000E+00 0. -1.
</event>
<event>
 5   0  0.6221259E+05  0.9118800E+02  0.7546771E-02  0.1180000E+00
      -11   -1    0    0    0    0  0.00000000000E+00  0.00000000000E+00  0.34996269501E-01  0.35000000000E-01  0.51099999109E-03 0. -1.
       11   -1    0    0    0    0 -0.00000000000E+00 -0.00000000000E+00 -0.34996269501E-01  0.35000000000E-01  0.51099999109E-03 0. -1.
       22    1    1    2    0    0  0.45288755029E-03 -0.53705640753E-04  0.26178558860E-02  0.26572844915E-02  0.00000000000E+00 0. -1.
       22    1    1    2    0    0 -0.52881986247E-04  0.92541187294E-03 -0.34967036566E-01  0.34979320031E-01  0.00000000000E+00 0. -1.
       22    1    1    2    0    0 -0.40000556404E-03 -0.87170623218E-03  0.32349180680E-01  0.32363395478E-01  0.00000000000E+00 0. -1.
</event>
<event>
 5   0  0.6221259E+05  0.9118800E+02  0.7546771E-02  0.1180000E+00
      -11   -1    0    0    0    0  0.00000000000E+00  0.00000000000E+00  0.34996269501E-01  0.35000000000E-01  0.51099999109E-03 0.  1.
       11   -1    0    0    0    0 -0.00000000000E+00 -0.00000000000E+00 -0.34996269501E-01  0.35000000000E-01  0.51099999109E-03 0. -1.
       22    1    1    2    0    0  0.92748017584E-02 -0.11367294307E-01  0.31695442269E-01  0.34926184849E-01  0.00000000000E+00 0.  1.
       22    1    1    2    0    0 -0.82569760423E-05  0.45438631471E-05  0.79013143698E-04  0.79573244390E-04  0.00000000000E+00 0.  1.
       22    1    1    2    0    0 -0.92665447824E-02  0.11362750443E-01 -0.31774455412E-01  0.34994241906E-01  0.00000000000E+00 0. -1.
</event>
<event>
 5   0  0.6221259E+05  0.9118800E+02  0.7546771E-02  0.1180000E+00
      -11   -1    0    0    0    0  0.00000000000E+00  0.00000000000E+00  0.34996269501E-01  0.35000000000E-01  0.51099999109E-03 0.  1.
       11   -1    0    0    0    0 -0.00000000000E+00 -0.00000000000E+00 -0.34996269501E-01  0.35000000000E-01  0.51099999109E-03 0. -1.
       22    1    1    2    0    0 -0.24720709937E-03 -0.38778233886E-04  0.11022373280E-03  0.27343074567E-03  0.00000000000E+00 0.  1.
       22    1    1    2    0    0  0.16527307052E-01  0.22219072568E-01 -0.21351434111E-01  0.34967453478E-01  0.00000000000E+00 0. -1.
       22    1    1    2    0    0 -0.16280099952E-01 -0.22180294334E-01  0.21241210378E-01  0.34759115776E-01  0.00000000000E+00 0.  1.
</event>
<event>
 5   0  0.6221259E+05  0.9118800E+02  0.7546771E-02  0.1180000E+00
      -11   -1    0    0    0    0  0.00000000000E+00  0.00000000000E+00  0.34996269501E-01  0.35000000000E-01  0.51099999109E-03 0. -1.
       11   -1    0    0    0    0 -0.00000000000E+00 -0.00000000000E+00 -0.34996269501E-01  0.35000000000E-01  0.51099999109E-03 0. -1.
       22    1    1    2    0    0 -0.21221944190E-11 -0.39979988762E-12 -0.35001811564E-01  0.34999997462E-01  0.00000000000E+00 0. -1.
       22    1    1    2    0    0  0.26791697445E-07  0.50472838548E-08  0.35001740951E-01  0.34999926845E-01  0.00000000000E+00 0. -1.
       22    1    1    2    0    0 -0.26789575251E-07 -0.50468840549E-08  0.70613125356E-07  0.75692574625E-07  0.00000000000E+00 0. -1.
</event>
<event>
 5   0  0.6221259E+05  0.9118800E+02  0.7546771E-02  0.1180000E+00
      -11   -1    0    0    0    0  0.00000000000E+00  0.00000000000E+00  0.34996269501E-01  0.35000000000E-01  0.51099999109E-03 0. -1.
       11   -1    0    0    0    0 -0.00000000000E+00 -0.00000000000E+00 -0.34996269501E-01  0.35000000000E-01  0.51099999109E-03 0.  1.
       22    1    1    2    0    0  0.25594467349E-09 -0.78266575708E-09  0.65353140078E-09  0.10512738249E-08  0.00000000000E+00 0. -1.
       22    1    1    2    0    0  0.91259933968E-03  0.98736178210E-03 -0.34974165691E-01  0.34999999809E-01  0.00000000000E+00 0.  1.
       22    1    1    2    0    0 -0.91259959563E-03 -0.98736099943E-03  0.34974165037E-01  0.34999999140E-01  0.00000000000E+00 0. -1.
</event>
<event>
 5   0  0.6221259E+05  0.9118800E+02  0.7546771E-02  0.1180000E+00
      -11   -1    0    0    0    0  0.00000000000E+00  0.00000000000E+00  0.34996269501E-01  0.35000000000E-01  0.51099999109E-03 0. -1.
       11   -1    0    0    0    0 -0.00000000000E+00 -0.00000000000E+00 -0.34996269501E-01  0.35000000000E-01  0.51099999109E-03 0.  1.
       22    1    1    2    0    0  0.26109157385E-02  0.30155470625E-02 -0.34771759469E-01  0.34999795166E-01  0.00000000000E+00 0.  1.
       22    1    1    2    0    0 -0.26110079310E-02 -0.30151793722E-02  0.34771811633E-01  0.34999822190E-01  0.00000000000E+00 0. -1.
       22    1    1    2    0    0  0.92192417385E-07 -0.36769025706E-06 -0.52163856194E-07  0.38264426672E-06  0.00000000000E+00 0. -1.
</event>
<event>
 5   0  0.6221259E+05  0.9118800E+02  0.7546771E-02  0.1180000E+00
      -11   -1    0    0    0    0  0.00000000000E+00  0.00000000000E+00  0.34996269501E-01  0.35000000000E-01  0.51099999109E-03 0.  1.
       11   -1    0    0    0    0 -0.00000000000E+00 -0.00000000000E+00 -0.34996269501E-01  0.35000000000E-01  0.51099999109E-03 0. -1.
       22    1    1    2    0    0  0.10303454389E-02  0.18693298119E-02  0.26362293763E-01  0.26448564008E-01  0.00000000000E+00 0.  1.
       22    1    1    2    0    0  0.61899794328E-03  0.26714468792E-03  0.85291504424E-02  0.85557543214E-02  0.00000000000E+00 0.  1.
       22    1    1    2    0    0 -0.16493433822E-02 -0.21364744998E-02 -0.34891444205E-01  0.34995681671E-01  0.00000000000E+00 0. -1.
</event>
<event>
 5   0  0.6221259E+05  0.9118800E+02  0.7546771E-02  0.1180000E+00
      -11   -1    0    0    0    0  0.00000000000E+00  0.00000000000E+00  0.34996269501E-01  0.35000000000E-01  0.51099999109E-03 0. -1.
       11   -1    0    0    0    0 -0.00000000000E+00 -0.00000000000E+00 -0.34996269501E-01  0.35000000000E-01  0.51099999109E-03 0. -1.
       22    1    1    2    0    0 -0.53893777395E-03 -0.46614456942E-03 -0.34949310113E-01  0.34956573374E-01  0.00000000000E+00 0. -1.
       22    1    1    2    0    0  0.46952452657E-03  0.34577055456E-03  0.17650158760E-02  0.18588414671E-02  0.00000000000E+00 0.  1.
       22    1    1    2    0    0  0.69413247374E-04  0.12037401486E-03  0.33184294237E-01  0.33184585158E-01  0.00000000000E+00 0. -1.
</event>
<event>
 5   0  0.6221259E+05  0.9118800E+02  0.7546771E-02  0.1180000E+00
      -11   -1    0    0    0    0  0.00000000000E+00  0.00000000000E+00  0.34996269501E-01  0.35000000000E-01  0.51099999109E-03 0. -1.
       11   -1    0    0    0    0 -0.00000000000E+00 -0.00000000000E+00 -0.34996269501E-01  0.35000000000E-01  0.51099999109E-03 0. -1.
       22    1    1    2    0    0  0.98795112015E-07  0.13243350653E-06  0.24116659777E-06  0.29233616897E-06  0.00000000000E+00 0.  1.
       22    1    1    2    0    0 -0.49548248555E-03 -0.32417996510E-03  0.34994725674E-01  0.34999734578E-01  0.00000000000E+00 0. -1.
       22    1    1    2    0    0  0.49538369044E-03  0.32404753159E-03 -0.34994966841E-01  0.34999973086E-01  0.00000000000E+00 0. -1.
</event>
<event>
 5   0  0.6221259E+05  0.9118800E+02  0.7546771E-02  0.1180000E+00
      -11   -1    0    0    0    0  0.00000000000E+00  0.00000000000E+00  0.34996269501E-01  0.35000000000E-01  0.51099999109E-03 0.  1.
       11   -1    0    0    0    0 -0.00000000000E+00 -0.00000000000E+00 -0.34996269501E-01  0.35000000000E-01  0.51099999109E-03 0. -1.
       22    1    1    2    0    0 -0.88069191080E-03 -0.34161067365E-03  0.82211224539E-02  0.82752142266E-02  0.00000000000E+00 0.  1.
       22    1    1    2    0    0  0.26003294608E-02  0.67378134764E-03 -0.34892609586E-01  0.34995855445E-01  0.00000000000E+00 0. -1.
       22    1    1    2    0    0 -0.17196375500E-02 -0.33217067399E-03  0.26671487132E-01  0.26728930328E-01  0.00000000000E+00 0.  1.
</event>
<event>
 5   0  0.6221259E+05  0.9118800E+02  0.7546771E-02  0.1180000E+00
      -11   -1    0    0    0    0  0.00000000000E+00  0.00000000000E+00  0.34996269501E-01  0.35000000000E-01  0.51099999109E-03 0.  1.
       11   -1    0    0    0    0 -0.00000000000E+00 -0.00000000000E+00 -0.34996269501E-01  0.35000000000E-01  0.51099999109E-03 0. -1.
       22    1    1    2    0    0 -0.79038490697E-03  0.10940709210E-03  0.34907957272E-01  0.34917075466E-01  0.00000000000E+00 0.  1.
       22    1    1    2    0    0  0.85610346063E-03  0.51975045085E-04 -0.34897843126E-01  0.34908381077E-01  0.00000000000E+00 0. -1.
       22    1    1    2    0    0 -0.65718553660E-04 -0.16138213718E-03 -0.10114145127E-04  0.17454345714E-03  0.00000000000E+00 0.  1.
</event>
<event>
 5   0  0.6221259E+05  0.9118800E+02  0.7546771E-02  0.1180000E+00
      -11   -1    0    0    0    0  0.00000000000E+00  0.00000000000E+00  0.34996269501E-01  0.35000000000E-01  0.51099999109E-03 0. -1.
       11   -1    0    0    0    0 -0.00000000000E+00 -0.00000000000E+00 -0.34996269501E-01  0.35000000000E-01  0.51099999109E-03 0.  1.
       22    1    1    2    0    0 -0.12959127515E-01  0.10645132651E-01  0.30720386131E-01  0.34999999417E-01  0.00000000000E+00 0. -1.
       22    1    1    2    0    0  0.12959127823E-01 -0.10645132614E-01 -0.30720386652E-01  0.34999999977E-01  0.00000000000E+00 0.  1.
       22    1    1    2    0    0 -0.30856200676E-09 -0.36779033915E-10  0.52097506148E-09  0.60661208695E-09  0.00000000000E+00 0. -1.
</event>
<event>
 5   0  0.6221259E+05  0.9118800E+02  0.7546771E-02  0.1180000E+00
      -11   -1    0    0    0    0  0.00000000000E+00  0.00000000000E+00  0.34996269501E-01  0.35000000000E-01  0.51099999109E-03 0. -1.
       11   -1    0    0    0    0 -0.00000000000E+00 -0.00000000000E+00 -0.34996269501E-01  0.35000000000E-01  0.51099999109E-03 0.  1.
       22    1    1    2    0    0 -0.25626810460E-02  0.59284211930E-02  0.19550975050E-01  0.20590146609E-01  0.00000000000E+00 0. -1.
       22    1    1    2    0    0 -0.17506766966E-02 -0.10601683418E-02  0.14550450854E-01  0.14693687279E-01  0.00000000000E+00 0. -1.
       22    1    1    2    0    0  0.43133577426E-02 -0.48682528512E-02 -0.34101425904E-01  0.34716166112E-01  0.00000000000E+00 0.  1.
</event>
<event>
 5   0  0.6221259E+05  0.9118800E+02  0.7546771E-02  0.1180000E+00
      -11   -1    0    0    0    0  0.00000000000E+00  0.00000000000E+00  0.34996269501E-01  0.35000000000E-01  0.51099999109E-03 0. -1.
       11   -1    0    0    0    0 -0.00000000000E+00 -0.00000000000E+00 -0.34996269501E-01  0.35000000000E-01  0.51099999109E-03 0.  1.
       22    1    1    2    0    0 -0.53354241794E-03 -0.40770842987E-02  0.31402997457E-01  0.31671051975E-01  0.00000000000E+00 0. -1.
       22    1    1    2    0    0  0.65441979604E-03  0.46014361526E-02 -0.34689102953E-01  0.34999076325E-01  0.00000000000E+00 0.  1.
       22    1    1    2    0    0 -0.12087737810E-03 -0.52435185381E-03  0.32861054960E-02  0.33298716999E-02  0.00000000000E+00 0.  1.
</event>
<event>
 5   0  0.6221259E+05  0.9118800E+02  0.7546771E-02  0.1180000E+00
      -11   -1    0    0    0    0  0.00000000000E+00  0.00000000000E+00  0.34996269501E-01  0.35000000000E-01  0.51099999109E-03 0.  1.
       11   -1    0    0    0    0 -0.00000000000E+00 -0.00000000000E+00 -0.34996269501E-01  0.35000000000E-01  0.51099999109E-03 0.  1.
       22    1    1    2    0    0  0.30680817624E-08 -0.90629122716E-08  0.35002341810E-01  0.34999935355E-01  0.00000000000E+00 0.  1.
       22    1    1    2    0    0 -0.26898669987E-12  0.79456906690E-12 -0.35002406098E-01  0.34999999648E-01  0.00000000000E+00 0.  1.
       22    1    1    2    0    0 -0.30678127757E-08  0.90621177026E-08  0.64288686203E-07  0.64996681655E-07  0.00000000000E+00 0. -1.
</event>
<event>
 5   0  0.6221259E+05  0.9118800E+02  0.7546771E-02  0.1180000E+00
      -11   -1    0    0    0    0  0.00000000000E+00  0.00000000000E+00  0.34996269501E-01  0.35000000000E-01  0.51099999109E-03 0.  1.
       11   -1    0    0    0    0 -0.00000000000E+00 -0.00000000000E+00 -0.34996269501E-01  0.35000000000E-01  0.51099999109E-03 0. -1.
       22    1    1    2    0    0  0.13761653149E-02  0.90188165623E-03 -0.34840779617E-01  0.34879609313E-01  0.00000000000E+00 0. -1.
       22    1    1    2    0    0 -0.80371264421E-03 -0.78477937712E-03  0.34317923354E-01  0.34336302888E-01  0.00000000000E+00 0.  1.
       22    1    1    2    0    0 -0.57245267066E-03 -0.11710227910E-03  0.52285626330E-03  0.78408779865E-03  0.00000000000E+00 0.  1.
</event>
<event>
 5   0  0.6221259E+05  0.9118800E+02  0.7546771E-02  0.1180000E+00
      -11   -1    0    0    0    0  0.00000000000E+00  0.00000000000E+00  0.34996269501E-01  0.35000000000E-01  0.51099999109E-03 0. -1.
       11   -1    0    0    0    0 -0.00000000000E+00 -0.00000000000E+00 -0.34996269501E-01  0.35000000000E-01  0.51099999109E-03 0.  1.
       22    1    1    2    0    0 -0.49168062254E-08 -0.41092870735E-09  0.68016907567E-07  0.68195627138E-07  0.00000000000E+00 0. -1.
       22    1    1    2    0    0 -0.61411048882E-02  0.62772328031E-02  0.33880355078E-01  0.34999932587E-01  0.00000000000E+00 0. -1.
       22    1    1    2    0    0  0.61411098050E-02 -0.62772323922E-02 -0.33880423095E-01  0.34999999217E-01  0.00000000000E+00 0.  1.
</event>
<event>
 5   0  0.6221259E+05  0.9118800E+02  0.7546771E-02  0.1180000E+00
      -11   -1    0    0    0    0  0.00000000000E+00  0.00000000000E+00  0.34996269501E-01  0.35000000000E-01  0.51099999109E-03 0. -1.
       11   -1    0    0    0    0 -0.00000000000E+00 -0.00000000000E+00 -0.34996269501E-01  0.35000000000E-01  0.51099999109E-03 0.  1.
       22    1    1    2    0    0 -0.29606364733E-02  0.16543472550E-02  0.31712059679E-01  0.31892898304E-01  0.00000000000E+00 0. -1.
       22    1    1    2    0    0  0.27485970128E-02 -0.16623796832E-02 -0.34832076468E-01  0.34979877684E-01  0.00000000000E+00 0.  1.
       22    1    1    2    0    0  0.21203946049E-03  0.80324281466E-05  0.31200167891E-02  0.31272240114E-02  0.00000000000E+00 0.  1.
</event>
<event>
 5   0  0.6221259E+05  0.9118800E+02  0.7546771E-02  0.1180000E+00
      -11   -1    0    0    0    0  0.00000000000E+00  0.00000000000E+00  0.34996269501E-01  0.35000000000E-01  0.51099999109E-03 0.  1.
       11   -1    0    0    0    0 -0.00000000000E+00 -0.00000000000E+00 -0.34996269501E-01  0.35000000000E-01  0.51099999109E-03 0. -1.
       22    1    1    2    0    0 -0.11559452936E-06 -0.23281975048E-06  0.50917730177E-05  0.50984036320E-05  0.00000000000E+00 0.  1.
       22    1    1    2    0    0  0.20523752007E-01  0.16785368714E-02  0.28295553708E-01  0.34995431733E-01  0.00000000000E+00 0.  1.
       22    1    1    2    0    0 -0.20523636413E-01 -0.16783040517E-02 -0.28300645481E-01  0.34999469864E-01  0.00000000000E+00 0. -1.
</event>
<event>
 5   0  0.6221259E+05  0.9118800E+02  0.7546771E-02  0.1180000E+00
      -11   -1    0    0    0    0  0.00000000000E+00  0.00000000000E+00  0.34996269501E-01  0.35000000000E-01  0.51099999109E-03 0. -1.
       11   -1    0    0    0    0 -0.00000000000E+00 -0.00000000000E+00 -0.34996269501E-01  0.35000000000E-01  0.51099999109E-03 0.  1.
       22    1    1    2    0    0  0.60025747739E-04  0.76739592556E-04 -0.12568732975E-03  0.15902628813E-03  0.00000000000E+00 0.  1.
       22    1    1    2    0    0  0.27653273997E-01  0.73228396277E-02 -0.19909309543E-01  0.34852663449E-01  0.00000000000E+00 0.  1.
       22    1    1    2    0    0 -0.27713299745E-01 -0.73995792202E-02  0.20034996873E-01  0.34988310263E-01  0.00000000000E+00 0. -1.
</event>
<event>
 5   0  0.6221259E+05  0.9118800E+02  0.7546771E-02  0.1180000E+00
      -11   -1    0    0    0    0  0.00000000000E+00  0.00000000000E+00  0.34996269501E-01  0.35000000000E-01  0.51099999109E-03 0. -1.
       11   -1    0    0    0    0 -0.00000000000E+00 -0.00000000000E+00 -0.34996269501E-01  0.35000000000E-01  0.51099999109E-03 0.  1.
       22    1    1    2    0    0 -0.29786183832E-06 -0.94341986984E-07  0.42338563129E-05  0.42453694025E-05  0.00000000000E+00 0. -1.
       22    1    1    2    0    0  0.81811559332E-03 -0.42478349199E-03  0.34983621109E-01  0.34995764030E-01  0.00000000000E+00 0. -1.
       22    1    1    2    0    0 -0.81781773148E-03  0.42487783398E-03 -0.34987854965E-01  0.34999990601E-01  0.00000000000E+00 0.  1.
</event>
<event>
 5   0  0.6221259E+05  0.9118800E+02  0.7546771E-02  0.1180000E+00
      -11   -1    0    0    0    0  0.00000000000E+00  0.00000000000E+00  0.34996269501E-01  0.35000000000E-01  0.51099999109E-03 0.  1.
       11   -1    0    0    0    0 -0.00000000000E+00 -0.00000000000E+00 -0.34996269501E-01  0.35000000000E-01  0.51099999109E-03 0. -1.
       22    1    1    2    0    0 -0.69018999259E-03  0.74068393836E-03  0.34666142129E-01  0.34680922494E-01  0.00000000000E+00 0.  1.
       22    1    1    2    0    0  0.61006962557E-03 -0.75627098000E-03 -0.34980654197E-01  0.34994146636E-01  0.00000000000E+00 0. -1.
       22    1    1    2    0    0  0.80120367015E-04  0.15587041641E-04  0.31451206812E-03  0.32493086968E-03  0.00000000000E+00 0.  1.
</event>
<event>
 5   0  0.6221259E+05  0.9118800E+02  0.7546771E-02  0.1180000E+00
      -11   -1    0    0    0    0  0.00000000000E+00  0.00000000000E+00  0.34996269501E-01  0.35000000000E-01  0.51099999109E-03 0.  1.
       11   -1    0    0    0    0 -0.00000000000E+00 -0.00000000000E+00 -0.34996269501E-01  0.35000000000E-01  0.51099999109E-03 0. -1.
       22    1    1    2    0    0 -0.94725176003E-02  0.21804207879E-01  0.25675604503E-01  0.34991266590E-01  0.00000000000E+00 0.  1.
       22    1    1    2    0    0 -0.62015658662E-05 -0.46459199273E-06  0.80483667778E-05  0.10171109708E-04  0.00000000000E+00 0. -1.
       22    1    1    2    0    0  0.94787191662E-02 -0.21803743287E-01 -0.25683652870E-01  0.34998562301E-01  0.00000000000E+00 0. -1.
</event>
<event>
 5   0  0.6221259E+05  0.9118800E+02  0.7546771E-02  0.1180000E+00
      -11   -1    0    0    0    0  0.00000000000E+00  0.00000000000E+00  0.34996269501E-01  0.35000000000E-01  0.51099999109E-03 0.  1.
       11   -1    0    0    0    0 -0.00000000000E+00 -0.00000000000E+00 -0.34996269501E-01  0.35000000000E-01  0.51099999109E-03 0.  1.
       22    1    1    2    0    0  0.33465283469E-12  0.85952380332E-13 -0.35003716643E-01  0.34999999918E-01  0.00000000000E+00 0.  1.
       22    1    1    2    0    0  0.31452165227E-08  0.80781878639E-09  0.31294575360E-07  0.31462603280E-07  0.00000000000E+00 0.  1.
       22    1    1    2    0    0 -0.31455511755E-08 -0.80790473877E-09  0.35003685349E-01  0.34999968620E-01  0.00000000000E+00 0.  1.
</event>
<event>
 5   0  0.6221259E+05  0.9118800E+02  0.7546771E-02  0.1180000E+00
      -11   -1    0    0    0    0  0.00000000000E+00  0.00000000000E+00  0.34996269501E-01  0.35000000000E-01  0.51099999109E-03 0. -1.
       11   -1    0    0    0    0 -0.00000000000E+00 -0.00000000000E+00 -0.34996269501E-01  0.35000000000E-01  0.51099999109E-03 0.  1.
       22    1    1    2    0    0  0.18703573642E-08 -0.12402941105E-06  0.96014638369E-07  0.15686173473E-06  0.00000000000E+00 0.  1.
       22    1    1    2    0    0 -0.43109993018E-03 -0.10118744277E-02 -0.34982681529E-01  0.34999967771E-01  0.00000000000E+00 0.  1.
       22    1    1    2    0    0  0.43109805982E-03  0.10119984571E-02  0.34982585515E-01  0.34999875367E-01  0.00000000000E+00 0. -1.
</event>
<event>
 5   0  0.6221259E+05  0.9118800E+02  0.7546771E-02  0.1180000E+00
      -11   -1    0    0    0    0  0.00000000000E+00  0.00000000000E+00  0.34996269501E-01  0.35000000000E-01  0.51099999109E-03 0. -1.
       11   -1    0    0    0    0 -0.00000000000E+00 -0.00000000000E+00 -0.34996269501E-01  0.35000000000E-01  0.51099999109E-03 0.  1.
       22    1    1    2    0    0 -0.79653122298E-02 -0.62317516017E-04  0.34063532300E-01  0.34982485835E-01  0.00000000000E+00 0. -1.
       22    1    1    2    0    0  0.79171237116E-02  0.24282350889E-03 -0.33505670699E-01  0.34429199528E-01  0.00000000000E+00 0.  1.
       22    1    1    2    0    0  0.48188518170E-04 -0.18050599287E-03 -0.55786160130E-03  0.58831463772E-03  0.00000000000E+00 0.  1.
</event>
<event>
 5   0  0.6221259E+05  0.9118800E+02  0.7546771E-02  0.1180000E+00
      -11   -1    0    0    0    0  0.00000000000E+00  0.00000000000E+00  0.34996269501E-01  0.35000000000E-01  0.51099999109E-03 0. -1.
       11   -1    0    0    0    0 -0.00000000000E+00 -0.00000000000E+00 -0.34996269501E-01  0.35000000000E-01  0.51099999109E-03 0. -1.
       22    1    1    2    0    0 -0.93417283690E-04 -0.34007722299E-03  0.34967690282E-01  0.34969468726E-01  0.00000000000E+00 0. -1.
       22    1    1    2    0    0  0.18851898844E-03  0.47090541582E-03 -0.34776095415E-01  0.34779794473E-01  0.00000000000E+00 0. -1.
       22    1    1    2    0    0 -0.95101704751E-04 -0.13082819283E-03 -0.19159486714E-03  0.25073680105E-03  0.00000000000E+00 0.  1.
</event>
<event>
 5   0  0.6221259E+05  0.9118800E+02  0.7546771E-02  0.1180000E+00
      -11   -1    0    0    0    0  0.00000000000E+00  0.00000000000E+00  0.34996269501E-01  0.35000000000E-01  0.51099999109E-03 0. -1.
       11   -1    0    0    0    0 -0.00000000000E+00 -0.00000000000E+00 -0.34996269501E-01  0.35000000000E-01  0.51099999109E-03 0.  1.
       22    1    1    2    0    0  0.80044680359E-09  0.38267270755E-09  0.37644214728E-08  0.38675602790E-08  0.00000000000E+00 0. -1.
       22    1    1    2    0    0 -0.27730454931E-02  0.19855001421E-02 -0.34833432290E-01  0.34999999960E-01  0.00000000000E+00 0.  1.
       22    1    1    2    0    0  0.27730446927E-02 -0.19855005247E-02  0.34833428526E-01  0.34999996172E-01  0.00000000000E+00 0. -1.
</event>
<event>
 5   0  0.6221259E+05  0.9118800E+02  0.7546771E-02  0.1180000E+00
      -11   -1    0    0    0    0  0.00000000000E+00  0.00000000000E+00  0.34996269501E-01  0.35000000000E-01  0.51099999109E-03 0.  1.
       11   -1    0    0    0    0 -0.00000000000E+00 -0.00000000000E+00 -0.34996269501E-01  0.35000000000E-01  0.51099999109E-03 0. -1.
       22    1    1    2    0    0  0.72744624213E-02 -0.15788092728E-01  0.26423686586E-01  0.31628988101E-01  0.00000000000E+00 0.  1.
       22    1    1    2    0    0 -0.97050289924E-02  0.64943012514E-02 -0.26286597508E-01  0.28763670577E-01  0.00000000000E+00 0. -1.
       22    1    1    2    0    0  0.24305665712E-02  0.92937914766E-02 -0.13708907758E-03  0.96073413223E-02  0.00000000000E+00 0. -1.
</event>
<event>
 5   0  0.6221259E+05  0.9118800E+02  0.7546771E-02  0.1180000E+00
      -11   -1    0    0    0    0  0.00000000000E+00  0.00000000000E+00  0.34996269501E-01  0.35000000000E-01  0.51099999109E-03 0. -1.
       11   -1    0    0    0    0 -0.00000000000E+00 -0.00000000000E+00 -0.34996269501E-01  0.35000000000E-01  0.51099999109E-03 0.  1.
       22    1    1    2    0    0  0.16211730178E-07 -0.25441666894E-07  0.16569400572E-07  0.34418652574E-07  0.00000000000E+00 0.  1.
       22    1    1    2    0    0 -0.14131824290E-01  0.27403029603E-01  0.16563965648E-01  0.34999992102E-01  0.00000000000E+00 0. -1.
       22    1    1    2    0    0  0.14131808079E-01 -0.27403004161E-01 -0.16563982217E-01  0.34999973479E-01  0.00000000000E+00 0.  1.
</event>
<event>
 5   0  0.6221259E+05  0.9118800E+02  0.7546771E-02  0.1180000E+00
      -11   -1    0    0    0    0  0.00000000000E+00  0.00000000000E+00  0.34996269501E-01  0.35000000000E-01  0.51099999109E-03 0.  1.
       11   -1    0    0    0    0 -0.00000000000E+00 -0.00000000000E+00 -0.34996269501E-01  0.35000000000E-01  0.51099999109E-03 0. -1.
       22    1    1    2    0    0  0.24722467421E-02 -0.24430961039E-01  0.24884041551E-01  0.34959968323E-01  0.00000000000E+00 0.  1.
       22    1    1    2    0    0  0.10633021412E-04 -0.36379650700E-04  0.17217853246E-04  0.41629251732E-04  0.00000000000E+00 0. -1.
       22    1    1    2    0    0 -0.24828797635E-02  0.24467340690E-01 -0.24901259405E-01  0.34998402425E-01  0.00000000000E+00 0. -1.
</event>
<event>
 5   0  0.6221259E+05  0.9118800E+02  0.7546771E-02  0.1180000E+00
      -11   -1    0    0    0    0  0.00000000000E+00  0.00000000000E+00  0.34996269501E-01  0.35000000000E-01  0.51099999109E-03 0.  1.
       11   -1    0    0    0    0 -0.00000000000E+00 -0.00000000000E+00 -0.34996269501E-01  0.35000000000E-01  0.51099999109E-03 0. -1.
       22    1    1    2    0    0  0.66648975834E-03  0.37305329174E-02 -0.12075910078E-02  0.39773559670E-02  0.00000000000E+00 0. -1.
       22    1    1    2    0    0  0.37274496497E-02 -0.19087988307E-02  0.33308758811E-01  0.33570981627E-01  0.00000000000E+00 0.  1.
       22    1    1    2    0    0 -0.43939394080E-02 -0.18217340867E-02 -0.32101167803E-01  0.32451662406E-01  0.00000000000E+00 0. -1.
</event>
<event>
 5   0  0.6221259E+05  0.9118800E+02  0.7546771E-02  0.1180000E+00
      -11   -1    0    0    0    0  0.00000000000E+00  0.00000000000E+00  0.34996269501E-01  0.35000000000E-01  0.51099999109E-03 0.  1.
       11   -1    0    0    0    0 -0.00000000000E+00 -0.00000000000E+00 -0.34996269501E-01  0.35000000000E-01  0.51099999109E-03 0. -1.
       22    1    1    2    0    0 -0.15868297175E-02 -0.77218826850E-04  0.30762631611E-01  0.30803627951E-01  0.00000000000E+00 0.  1.
       22    1    1    2    0    0  0.25419982157E-02  0.44976726107E-03 -0.34868756939E-01  0.34964185333E-01  0.00000000000E+00 0. -1.
       22    1    1    2    0    0 -0.95516849824E-03 -0.37254843422E-03  0.41061253275E-02  0.42321867162E-02  0.00000000000E+00 0.  1.
</event>
<event>
 5   0  0.6221259E+05  0.9118800E+02  0.7546771E-02  0.1180000E+00
      -11   -1    0    0    0    0  0.00000000000E+00  0.00000000000E+00  0.34996269501E-01  0.35000000000E-01  0.51099999109E-03 0.  1.
       11   -1    0    0    0    0 -0.00000000000E+00 -0.00000000000E+00 -0.34996269501E-01  0.35000000000E-01  0.51099999109E-03 0. -1.
       22    1    1    2    0    0  0.47818721387E-03 -0.12404458775E-02 -0.34964408612E-01  0.34989673313E-01  0.00000000000E+00 0. -1.
       22    1    1    2    0    0  0.10657655246E-04  0.93862308666E-03  0.11292256326E-01  0.11331203812E-01  0.00000000000E+00 0.  1.
       22    1    1    2    0    0 -0.48884486912E-03  0.30182279086E-03  0.23672152285E-01  0.23679122875E-01  0.00000000000E+00 0.  1.
</event>
<event>
 5   0  0.6221259E+05  0.9118800E+02  0.7546771E-02  0.1180000E+00
      -11   -1    0    0    0    0  0.00000000000E+00  0.00000000000E+00  0.34996269501E-01  0.35000000000E-01  0.51099999109E-03 0. -1.
       11   -1    0    0    0    0 -0.00000000000E+00 -0.00000000000E+00 -0.34996269501E-01  0.35000000000E-01  0.51099999109E-03 0.  1.
       22    1    1    2    0    0 -0.33179979853E-01 -0.42705244828E-02 -0.10288409362E-01  0.34999997280E-01  0.00000000000E+00 0.  1.
       22    1    1    2    0    0  0.33179979119E-01  0.42705233921E-02  0.10288400622E-01  0.34999993882E-01  0.00000000000E+00 0. -1.
       22    1    1    2    0    0  0.73463428919E-09  0.10906727314E-08  0.87398057001E-08  0.88381818392E-08  0.00000000000E+00 0. -1.
</event>
<event>
 5   0  0.6221259E+05  0.9118800E+02  0.7546771E-02  0.1180000E+00
      -11   -1    0    0    0    0  0.00000000000E+00  0.00000000000E+00  0.34996269501E-01  0.35000000000E-01  0.51099999109E-03 0. -1.
       11   -1    0    0    0    0 -0.00000000000E+00 -0.00000000000E+00 -0.34996269501E-01  0.35000000000E-01  0.51099999109E-03 0. -1.
       22    1    1    2    0    0  0.70131598822E-03 -0.47044837760E-03  0.34221222220E-01  0.34231640568E-01  0.00000000000E+00 0. -1.
       22    1    1    2    0    0 -0.22457821849E-03  0.75289631122E-04  0.75263200539E-03  0.78902397955E-03  0.00000000000E+00 0.  1.
       22    1    1    2    0    0 -0.47673776974E-03  0.39515874647E-03 -0.34973854225E-01  0.34979335452E-01  0.00000000000E+00 0. -1.
</event>
<event>
 5   0  0.6221259E+05  0.9118800E+02  0.7546771E-02  0.1180000E+00
      -11   -1    0    0    0    0  0.00000000000E+00  0.00000000000E+00  0.34996269501E-01  0.35000000000E-01  0.51099999109E-03 0. -1.
       11   -1    0    0    0    0 -0.00000000000E+00 -0.00000000000E+00 -0.34996269501E-01  0.35000000000E-01  0.51099999109E-03 0.  1.
       22    1    1    2    0    0 -0.32163317849E-07 -0.16843595905E-07  0.15647200263E-06  0.16062899285E-06  0.00000000000E+00 0.  1.
       22    1    1    2    0    0 -0.18549532609E-02  0.34907466325E-03  0.34948907722E-01  0.34999840795E-01  0.00000000000E+00 0. -1.
       22    1    1    2    0    0  0.18549854242E-02 -0.34905781965E-03 -0.34949064194E-01  0.34999998576E-01  0.00000000000E+00 0.  1.
</event>
<event>
 5   0  0.6221259E+05  0.9118800E+02  0.7546771E-02  0.1180000E+00
      -11   -1    0    0    0    0  0.00000000000E+00  0.00000000000E+00  0.34996269501E-01  0.35000000000E-01  0.51099999109E-03 0. -1.
       11   -1    0    0    0    0 -0.00000000000E+00 -0.00000000000E+00 -0.34996269501E-01  0.35000000000E-01  0.51099999109E-03 0.  1.
       22    1    1    2    0    0  0.39280928660E-02  0.50744750398E-02  0.34265079916E-01  0.34860807680E-01  0.00000000000E+00 0. -1.
       22    1    1    2    0    0 -0.39550874658E-02 -0.50175239568E-02 -0.34401068214E-01  0.34989309193E-01  0.00000000000E+00 0.  1.
       22    1    1    2    0    0  0.26994599757E-04 -0.56951083002E-04  0.13598829872E-03  0.14988312667E-03  0.00000000000E+00 0. -1.
</event>
<event>
 5   0  0.6221259E+05  0.9118800E+02  0.7546771E-02  0.1180000E+00
      -11   -1    0    0    0    0  0.00000000000E+00  0.00000000000E+00  0.34996269501E-01  0.35000000000E-01  0.51099999109E-03 0.  1.
       11   -1    0    0    0    0 -0.00000000000E+00 -0.00000000000E+00 -0.34996269501E-01  0.35000000000E-01  0.51099999109E-03 0. -1.
       22    1    1    2    0    0  0.45276222747E-03 -0.34686261455E-02  0.34819569369E-01  0.34994839219E-01  0.00000000000E+00 0.  1.
       22    1    1    2    0    0  0.13169660766E-06 -0.30576802252E-06  0.51523048475E-05  0.51630498082E-05  0.00000000000E+00 0.  1.
       22    1    1    2    0    0 -0.45289392408E-03  0.34689319135E-02 -0.34824721673E-01  0.34999997731E-01  0.00000000000E+00 0. -1.
</event>
<event>
 5   0  0.6221259E+05  0.9118800E+02  0.7546771E-02  0.1180000E+00
      -11   -1    0    0    0    0  0.00000000000E+00  0.00000000000E+00  0.34996269501E-01  0.35000000000E-01  0.51099999109E-03 0. -1.
       11   -1    0    0    0    0 -0.00000000000E+00 -0.00000000000E+00 -0.34996269501E-01  0.35000000000E-01  0.51099999109E-03 0.  1.
       22    1    1    2    0    0 -0.81779722058E-02 -0.53999299328E-03  0.25921392443E-01  0.27186198852E-01  0.00000000000E+00 0. -1.
       22    1    1    2    0    0  0.83040635317E-02  0.73003273342E-03 -0.33860441394E-01  0.34871477031E-01  0.00000000000E+00 0.  1.
       22    1    1    2    0    0 -0.12609132582E-03 -0.19003974014E-03  0.79390489511E-02  0.79423241166E-02  0.00000000000E+00 0. -1.
</event>
<event>
 5   0  0.6221259E+05  0.9118800E+02  0.7546771E-02  0.1180000E+00
      -11   -1    0    0    0    0  0.00000000000E+00  0.00000000000E+00  0.34996269501E-01  0.35000000000E-01  0.51099999109E-03 0.  1.
       11   -1    0    0    0    0 -0.00000000000E+00 -0.00000000000E+00 -0.34996269501E-01  0.35000000000E-01  0.51099999109E-03 0. -1.
       22    1    1    2    0    0  0.38312984286E-05 -0.50981365443E-03 -0.34996267004E-01  0.34999980412E-01  0.00000000000E+00 0. -1.
       22    1    1    2    0    0  0.30061620036E-06  0.38396677323E-06  0.26525712973E-05  0.26970233722E-05  0.00000000000E+00 0. -1.
       22    1    1    2    0    0 -0.41319146289E-05  0.50942968766E-03  0.34993614432E-01  0.34997322565E-01  0.00000000000E+00 0.  1.
</event>
<event>
 5   0  0.6221259E+05  0.9118800E+02  0.7546771E-02  0.1180000E+00
      -11   -1    0    0    0    0  0.00000000000E+00  0.00000000000E+00  0.34996269501E-01  0.35000000000E-01  0.51099999109E-03 0. -1.
       11   -1    0    0    0    0 -0.00000000000E+00 -0.00000000000E+00 -0.34996269501E-01  0.35000000000E-01  0.51099999109E-03 0. -1.
       22    1    1    2    0    0 -0.24296530887E-04 -0.16302511130E-04  0.50415658737E-03  0.50500490876E-03  0.00000000000E+00 0.  1.
       22    1    1    2    0    0 -0.20222073110E-08 -0.13568627286E-08 -0.35001595386E-01  0.34999584330E-01  0.00000000000E+00 0. -1.
       22    1    1    2    0    0  0.24298553095E-04  0.16303867993E-04  0.34497438799E-01  0.34495410761E-01  0.00000000000E+00 0. -1.
</event>
<event>
 5   0  0.6221259E+05  0.9118800E+02  0.7546771E-02  0.1180000E+00
      -11   -1    0    0    0    0  0.00000000000E+00  0.00000000000E+00  0.34996269501E-01  0.35000000000E-01  0.51099999109E-03 0.  1.
       11   -1    0    0    0    0 -0.00000000000E+00 -0.00000000000E+00 -0.34996269501E-01  0.35000000000E-01  0.51099999109E-03 0. -1.
       22    1    1    2    0    0  0.16164961705E-02  0.84079709392E-03  0.33423844355E-01  0.33473472648E-01  0.00000000000E+00 0.  1.
       22    1    1    2    0    0 -0.15723831852E-02 -0.87225624135E-03 -0.34951594490E-01  0.34997816749E-01  0.00000000000E+00 0. -1.
       22    1    1    2    0    0 -0.44112985386E-04  0.31459147431E-04  0.15277501347E-02  0.15287106029E-02  0.00000000000E+00 0. -1.
</event>
<event>
 5   0  0.6221259E+05  0.9118800E+02  0.7546771E-02  0.1180000E+00
      -11   -1    0    0    0    0  0.00000000000E+00  0.00000000000E+00  0.34996269501E-01  0.35000000000E-01  0.51099999109E-03 0. -1.
       11   -1    0    0    0    0 -0.00000000000E+00 -0.00000000000E+00 -0.34996269501E-01  0.35000000000E-01  0.51099999109E-03 0.  1.
       22    1    1    2    0    0 -0.23381790359E-04  0.56071844979E-04 -0.45994393550E-04  0.76198714935E-04  0.00000000000E+00 0.  1.
       22    1    1    2    0    0  0.23257316416E-02 -0.25029112077E-02 -0.34774325372E-01  0.34941770094E-01  0.00000000000E+00 0.  1.
       22    1    1    2    0    0 -0.23023498512E-02  0.24468393627E-02  0.34820319766E-01  0.34982031192E-01  0.00000000000E+00 0. -1.
</event>
<event>
 5   0  0.6221259E+05  0.9118800E+02  0.7546771E-02  0.1180000E+00
      -11   -1    0    0    0    0  0.00000000000E+00  0.00000000000E+00  0.34996269501E-01  0.35000000000E-01  0.51099999109E-03 0.  1.
       11   -1    0    0    0    0 -0.00000000000E+00 -0.00000000000E+00 -0.34996269501E-01  0.35000000000E-01  0.51099999109E-03 0. -1.
       22    1    1    2    0    0 -0.12620586877E-03  0.50819936058E-03 -0.34995980963E-01  0.34999898258E-01  0.00000000000E+00 0. -1.
       22    1    1    2    0    0  0.72016515575E-06  0.28390716414E-06  0.13838762208E-05  0.15856716318E-05  0.00000000000E+00 0.  1.
       22    1    1    2    0    0  0.12548570361E-03 -0.50848326775E-03  0.34994597087E-01  0.34998516071E-01  0.00000000000E+00 0.  1.
</event>
<event>
 5   0  0.6221259E+05  0.9118800E+02  0.7546771E-02  0.1180000E+00
      -11   -1    0    0    0    0  0.00000000000E+00  0.00000000000E+00  0.34996269501E-01  0.35000000000E-01  0.51099999109E-03 0. -1.
       11   -1    0    0    0    0 -0.00000000000E+00 -0.00000000000E+00 -0.34996269501E-01  0.35000000000E-01  0.51099999109E-03 0.  1.
       22    1    1    2    0    0  0.12580206598E-01 -0.65016784133E-02  0.39439883021E-02  0.14699947754E-01  0.00000000000E+00 0. -1.
       22    1    1    2    0    0 -0.30714943383E-02  0.13827702982E-01 -0.26330326759E-01  0.29898587834E-01  0.00000000000E+00 0.  1.
       22    1    1    2    0    0 -0.95087122593E-02 -0.73260245682E-02  0.22386338457E-01  0.25401464413E-01  0.00000000000E+00 0. -1.
</event>
<event>
 5   0  0.6221259E+05  0.9118800E+02  0.7546771E-02  0.1180000E+00
      -11   -1    0    0    0    0  0.00000000000E+00  0.00000000000E+00  0.34996269501E-01  0.35000000000E-01  0.51099999109E-03 0.  1.
       11   -1    0    0    0    0 -0.00000000000E+00 -0.00000000000E+00 -0.34996269501E-01  0.35000000000E-01  0.51099999109E-03 0.  1.
       22    1    1    2    0    0 -0.31986980711E-09  0.24223882822E-09  0.35000068175E-01  0.34999977356E-01  0.00000000000E+00 0.  1.
       22    1    1    2    0    0  0.31985234443E-09 -0.24222560365E-09  0.22642055748E-07  0.22645610331E-07  0.00000000000E+00 0. -1.
       22    1    1    2    0    0  0.17462684042E-13 -0.13224568327E-13 -0.35000090818E-01  0.34999999998E-01  0.00000000000E+00 0.  1.
</event>
<event>
 5   0  0.6221259E+05  0.9118800E+02  0.7546771E-02  0.1180000E+00
      -11   -1    0    0    0    0  0.00000000000E+00  0.00000000000E+00  0.34996269501E-01  0.35000000000E-01  0.51099999109E-03 0. -1.
       11   -1    0    0    0    0 -0.00000000000E+00 -0.00000000000E+00 -0.34996269501E-01  0.35000000000E-01  0.51099999109E-03 0.  1.
       22    1    1    2    0    0 -0.42248657666E-07 -0.50966321039E-07  0.33610727896E-07  0.74244164650E-07  0.00000000000E+00 0.  1.
       22    1    1    2    0    0 -0.67176426911E-03  0.37556302253E-02  0.34791383552E-01  0.34999948502E-01  0.00000000000E+00 0. -1.
       22    1    1    2    0    0  0.67180651777E-03 -0.37555792590E-02 -0.34791417163E-01  0.34999977254E-01  0.00000000000E+00 0.  1.
</event>
<event>
 5   0  0.6221259E+05  0.9118800E+02  0.7546771E-02  0.1180000E+00
      -11   -1    0    0    0    0  0.00000000000E+00  0.00000000000E+00  0.34996269501E-01  0.35000000000E-01  0.51099999109E-03 0.  1.
       11   -1    0    0    0    0 -0.00000000000E+00 -0.00000000000E+00 -0.34996269501E-01  0.35000000000E-01  0.51099999109E-03 0. -1.
       22    1    1    2    0    0  0.60104487382E-10 -0.97474261890E-09  0.65215530596E-09  0.11743263029E-08  0.00000000000E+00 0. -1.
       22    1    1    2    0    0 -0.13817373954E-02  0.83106509813E-03 -0.34962839060E-01  0.34999999751E-01  0.00000000000E+00 0. -1.
       22    1    1    2    0    0  0.13817373353E-02 -0.83106412339E-03  0.34962838408E-01  0.34999999074E-01  0.00000000000E+00 0.  1.
</event>
<event>
 5   0  0.6221259E+05  0.9118800E+02  0.7546771E-02  0.1180000E+00
      -11   -1    0    0    0    0  0.00000000000E+00  0.00000000000E+00  0.34996269501E-01  0.35000000000E-01  0.51099999109E-03 0. -1.
       11   -1    0    0    0    0 -0.00000000000E+00 -0.00000000000E+00 -0.34996269501E-01  0.35000000000E-01  0.51099999109E-03 0.  1.
       22    1    1    2    0    0  0.11161794713E-07 -0.17840258690E-07 -0.12613810014E-07  0.24535050325E-07  0.00000000000E+00 0.  1.
       22    1    1    2    0    0 -0.71947099998E-02 -0.11488407291E-01 -0.32268425055E-01  0.34999980137E-01  0.00000000000E+00 0.  1.
       22    1    1    2    0    0  0.71946988380E-02  0.11488425131E-01  0.32268437669E-01  0.34999995328E-01  0.00000000000E+00 0. -1.
</event>
<event>
 5   0  0.6221259E+05  0.9118800E+02  0.7546771E-02  0.1180000E+00
      -11   -1    0    0    0    0  0.00000000000E+00  0.00000000000E+00  0.34996269501E-01  0.35000000000E-01  0.51099999109E-03 0.  1.
       11   -1    0    0    0    0 -0.00000000000E+00 -0.00000000000E+00 -0.34996269501E-01  0.35000000000E-01  0.51099999109E-03 0. -1.
       22    1    1    2    0    0  0.94332651680E-03  0.28456476187E-02  0.52798430119E-02  0.60715992553E-02  0.00000000000E+00 0. -1.
       22    1    1    2    0    0  0.18658680488E-03  0.19042207102E-02  0.29120508661E-01  0.29183298234E-01  0.00000000000E+00 0.  1.
       22    1    1    2    0    0 -0.11299133217E-02 -0.47498683289E-02 -0.34400351673E-01  0.34745102511E-01  0.00000000000E+00 0. -1.
</event>
<event>
 5   0  0.6221259E+05  0.9118800E+02  0.7546771E-02  0.1180000E+00
      -11   -1    0    0    0    0  0.00000000000E+00  0.00000000000E+00  0.34996269501E-01  0.35000000000E-01  0.51099999109E-03 0. -1.
       11   -1    0    0    0    0 -0.00000000000E+00 -0.00000000000E+00 -0.34996269501E-01  0.35000000000E-01  0.51099999109E-03 0. -1.
       22    1    1    2    0    0 -0.25023788256E-03  0.20058361467E-03 -0.34799652774E-01  0.34801130527E-01  0.00000000000E+00 0. -1.
       22    1    1    2    0    0  0.13980258494E-03 -0.32995874478E-05  0.34935054717E-01  0.34935334601E-01  0.00000000000E+00 0. -1.
       22    1    1    2    0    0  0.11043529762E-03 -0.19728402722E-03 -0.13540194280E-03  0.26353487145E-03  0.00000000000E+00 0.  1.
</event>
<event>
 5   0  0.6221259E+05  0.9118800E+02  0.7546771E-02  0.1180000E+00
      -11   -1    0    0    0    0  0.00000000000E+00  0.00000000000E+00  0.34996269501E-01  0.35000000000E-01  0.51099999109E-03 0. -1.
       11   -1    0    0    0    0 -0.00000000000E+00 -0.00000000000E+00 -0.34996269501E-01  0.35000000000E-01  0.51099999109E-03 0.  1.
       22    1    1    2    0    0  0.87807182908E-02  0.22604755929E-01 -0.24578964269E-01  0.34528270864E-01  0.00000000000E+00 0.  1.
       22    1    1    2    0    0  0.58299222304E-03  0.36285100730E-03  0.25629854182E-03  0.73295956789E-03  0.00000000000E+00 0.  1.
       22    1    1    2    0    0 -0.93637105138E-02 -0.22967606937E-01  0.24322665728E-01  0.34738769568E-01  0.00000000000E+00 0. -1.
</event>
<event>
 5   0  0.6221259E+05  0.9118800E+02  0.7546771E-02  0.1180000E+00
      -11   -1    0    0    0    0  0.00000000000E+00  0.00000000000E+00  0.34996269501E-01  0.35000000000E-01  0.51099999109E-03 0.  1.
       11   -1    0    0    0    0 -0.00000000000E+00 -0.00000000000E+00 -0.34996269501E-01  0.35000000000E-01  0.51099999109E-03 0. -1.
       22    1    1    2    0    0  0.68146859702E-09  0.90295900754E-09  0.20856701661E-08  0.23727103615E-08  0.00000000000E+00 0.  1.
       22    1    1    2    0    0  0.17230818984E-02 -0.29192314045E-02  0.34835454964E-01  0.34999997797E-01  0.00000000000E+00 0.  1.
       22    1    1    2    0    0 -0.17230825799E-02  0.29192305016E-02 -0.34835457050E-01  0.34999999831E-01  0.00000000000E+00 0. -1.
</event>
<event>
 5   0  0.6221259E+05  0.9118800E+02  0.7546771E-02  0.1180000E+00
      -11   -1    0    0    0    0  0.00000000000E+00  0.00000000000E+00  0.34996269501E-01  0.35000000000E-01  0.51099999109E-03 0. -1.
       11   -1    0    0    0    0 -0.00000000000E+00 -0.00000000000E+00 -0.34996269501E-01  0.35000000000E-01  0.51099999109E-03 0.  1.
       22    1    1    2    0    0  0.19202673465E-01 -0.10556253148E-01  0.27245375362E-01  0.34964090541E-01  0.00000000000E+00 0. -1.
       22    1    1    2    0    0 -0.19233116965E-01  0.10536847233E-01 -0.26982563289E-01  0.34770629264E-01  0.00000000000E+00 0.  1.
       22    1    1    2    0    0  0.30443500409E-04  0.19405915476E-04 -0.26281207304E-03  0.26528019528E-03  0.00000000000E+00 0.  1.
</event>
<event>
 5   0  0.6221259E+05  0.9118800E+02  0.7546771E-02  0.1180000E+00
      -11   -1    0    0    0    0  0.00000000000E+00  0.00000000000E+00  0.34996269501E-01  0.35000000000E-01  0.51099999109E-03 0.  1.
       11   -1    0    0    0    0 -0.00000000000E+00 -0.00000000000E+00 -0.34996269501E-01  0.35000000000E-01  0.51099999109E-03 0. -1.
       22    1    1    2    0    0  0.27147692567E-05 -0.59872578151E-05 -0.35797173884E-05  0.74854261631E-05  0.00000000000E+00 0. -1.
       22    1    1    2    0    0 -0.91221081740E-02 -0.13857186047E-01 -0.30811281074E-01  0.34993849518E-01  0.00000000000E+00 0. -1.
       22    1    1    2    0    0  0.91193934047E-02  0.13863173304E-01  0.30814860791E-01  0.34998665056E-01  0.00000000000E+00 0.  1.
</event>
<event>
 5   0  0.6221259E+05  0.9118800E+02  0.7546771E-02  0.1180000E+00
      -11   -1    0    0    0    0  0.00000000000E+00  0.00000000000E+00  0.34996269501E-01  0.35000000000E-01  0.51099999109E-03 0. -1.
       11   -1    0    0    0    0 -0.00000000000E+00 -0.00000000000E+00 -0.34996269501E-01  0.35000000000E-01  0.51099999109E-03 0.  1.
       22    1    1    2    0    0 -0.12849137775E-01  0.49516298931E-02  0.32139231618E-01  0.34964970888E-01  0.00000000000E+00 0. -1.
       22    1    1    2    0    0  0.12926573478E-01 -0.48231470799E-02 -0.31781784343E-01  0.34647378914E-01  0.00000000000E+00 0.  1.
       22    1    1    2    0    0 -0.77435702477E-04 -0.12848281321E-03 -0.35744727547E-03  0.38765019805E-03  0.00000000000E+00 0.  1.
</event>
<event>
 5   0  0.6221259E+05  0.9118800E+02  0.7546771E-02  0.1180000E+00
      -11   -1    0    0    0    0  0.00000000000E+00  0.00000000000E+00  0.34996269501E-01  0.35000000000E-01  0.51099999109E-03 0.  1.
       11   -1    0    0    0    0 -0.00000000000E+00 -0.00000000000E+00 -0.34996269501E-01  0.35000000000E-01  0.51099999109E-03 0. -1.
       22    1    1    2    0    0  0.90837214719E-03  0.46150647684E-03 -0.34429393443E-01  0.34444466334E-01  0.00000000000E+00 0. -1.
       22    1    1    2    0    0  0.46164294061E-04  0.34037768113E-02  0.26127350936E-01  0.26348174409E-01  0.00000000000E+00 0. -1.
       22    1    1    2    0    0 -0.95453644125E-03 -0.38652832881E-02  0.83020425063E-02  0.92073592572E-02  0.00000000000E+00 0.  1.
</event>
<event>
 5   0  0.6221259E+05  0.9118800E+02  0.7546771E-02  0.1180000E+00
      -11   -1    0    0    0    0  0.00000000000E+00  0.00000000000E+00  0.34996269501E-01  0.35000000000E-01  0.51099999109E-03 0.  1.
       11   -1    0    0    0    0 -0.00000000000E+00 -0.00000000000E+00 -0.34996269501E-01  0.35000000000E-01  0.51099999109E-03 0. -1.
       22    1    1    2    0    0 -0.23397283700E-01 -0.10645776556E-02  0.25665948368E-01  0.34746325212E-01  0.00000000000E+00 0.  1.
       22    1    1    2    0    0  0.23376627321E-01  0.12236606688E-02 -0.23806520827E-01  0.33387340179E-01  0.00000000000E+00 0. -1.
       22    1    1    2    0    0  0.20656378198E-04 -0.15908301320E-03 -0.18594275409E-02  0.18663346085E-02  0.00000000000E+00 0. -1.
</event>
<event>
 5   0  0.6221259E+05  0.9118800E+02  0.7546771E-02  0.1180000E+00
      -11   -1    0    0    0    0  0.00000000000E+00  0.00000000000E+00  0.34996269501E-01  0.35000000000E-01  0.51099999109E-03 0.  1.
       11   -1    0    0    0    0 -0.00000000000E+00 -0.00000000000E+00 -0.34996269501E-01  0.35000000000E-01  0.51099999109E-03 0. -1.
       22    1    1    2    0    0  0.12790457573E-02  0.26874677637E-02  0.34816007526E-01  0.34942993876E-01  0.00000000000E+00 0.  1.
       22    1    1    2    0    0 -0.12664071540E-02 -0.26808269254E-02 -0.34872716173E-01  0.34998527874E-01  0.00000000000E+00 0. -1.
       22    1    1    2    0    0 -0.12638603340E-04 -0.66408382614E-05  0.56708647108E-04  0.58478249666E-04  0.00000000000E+00 0.  1.
</event>
<event>
 5   0  0.6221259E+05  0.9118800E+02  0.7546771E-02  0.1180000E+00
      -11   -1    0    0    0    0  0.00000000000E+00  0.00000000000E+00  0.34996269501E-01  0.35000000000E-01  0.51099999109E-03 0.  1.
       11   -1    0    0    0    0 -0.00000000000E+00 -0.00000000000E+00 -0.34996269501E-01  0.35000000000E-01  0.51099999109E-03 0. -1.
       22    1    1    2    0    0  0.73911383253E-06  0.35095704983E-05  0.17928491943E-04  0.18283714001E-04  0.00000000000E+00 0.  1.
       22    1    1    2    0    0  0.21988126976E-02  0.41292915460E-03 -0.34928182220E-01  0.34999760013E-01  0.00000000000E+00 0. -1.
       22    1    1    2    0    0 -0.21995518114E-02 -0.41643872510E-03  0.34910253728E-01  0.34981956273E-01  0.00000000000E+00 0.  1.
</event>
<event>
 5   0  0.6221259E+05  0.9118800E+02  0.7546771E-02  0.1180000E+00
      -11   -1    0    0    0    0  0.00000000000E+00  0.00000000000E+00  0.34996269501E-01  0.35000000000E-01  0.51099999109E-03 0.  1.
       11   -1    0    0    0    0 -0.00000000000E+00 -0.00000000000E+00 -0.34996269501E-01  0.35000000000E-01  0.51099999109E-03 0.  1.
       22    1    1    2    0    0 -0.30372429027E-07  0.49242502916E-08  0.35000550651E-01  0.34999922108E-01  0.00000000000E+00 0.  1.
       22    1    1    2    0    0  0.30370537586E-07 -0.49239436344E-08  0.74853004623E-07  0.80929519183E-07  0.00000000000E+00 0. -1.
       22    1    1    2    0    0  0.18914403454E-11 -0.30665725366E-12 -0.35000625504E-01  0.34999996962E-01  0.00000000000E+00 0.  1.
</event>
<event>
 5   0  0.6221259E+05  0.9118800E+02  0.7546771E-02  0.1180000E+00
      -11   -1    0    0    0    0  0.00000000000E+00  0.00000000000E+00  0.34996269501E-01  0.35000000000E-01  0.51099999109E-03 0.  1.
       11   -1    0    0    0    0 -0.00000000000E+00 -0.00000000000E+00 -0.34996269501E-01  0.35000000000E-01  0.51099999109E-03 0. -1.
       22    1    1    2    0    0 -0.31243424701E-02  0.14505599685E-02  0.34830077068E-01  0.34999998695E-01  0.00000000000E+00 0.  1.
       22    1    1    2    0    0  0.31243418106E-02 -0.14505604993E-02 -0.34830078259E-01  0.34999999844E-01  0.00000000000E+00 0. -1.
       22    1    1    2    0    0  0.65953205695E-09  0.53079437506E-09  0.11908412082E-08  0.14611050564E-08  0.00000000000E+00 0.  1.
</event>
<event>
 5   0  0.6221259E+05  0.9118800E+02  0.7546771E-02  0.1180000E+00
      -11   -1    0    0    0    0  0.00000000000E+00  0.00000000000E+00  0.34996269501E-01  0.35000000000E-01  0.51099999109E-03 0. -1.
       11   -1    0    0    0    0 -0.00000000000E+00 -0.00000000000E+00 -0.34996269501E-01  0.35000000000E-01  0.51099999109E-03 0. -1.
       22    1    1    2    0    0  0.83473908884E-03  0.10036583914E-02  0.34975633717E-01  0.34999986763E-01  0.00000000000E+00 0. -1.
       22    1    1    2    0    0  0.24178249733E-08 -0.11392015501E-07  0.10840489235E-07  0.15910377169E-07  0.00000000000E+00 0.  1.
       22    1    1    2    0    0 -0.83474150667E-03 -0.10036469994E-02 -0.34975644557E-01  0.34999997327E-01  0.00000000000E+00 0. -1.
</event>
<event>
 5   0  0.6221259E+05  0.9118800E+02  0.7546771E-02  0.1180000E+00
      -11   -1    0    0    0    0  0.00000000000E+00  0.00000000000E+00  0.34996269501E-01  0.35000000000E-01  0.51099999109E-03 0.  1.
       11   -1    0    0    0    0 -0.00000000000E+00 -0.00000000000E+00 -0.34996269501E-01  0.35000000000E-01  0.51099999109E-03 0. -1.
       22    1    1    2    0    0 -0.15400473770E-02  0.16091923469E-04 -0.34966096769E-01  0.34999998973E-01  0.00000000000E+00 0. -1.
       22    1    1    2    0    0  0.15400492454E-02 -0.16084534833E-04  0.34966082947E-01  0.34999985244E-01  0.00000000000E+00 0.  1.
       22    1    1    2    0    0 -0.18683831579E-08 -0.73886354242E-08  0.13821496240E-07  0.15783426351E-07  0.00000000000E+00 0. -1.
</event>
<event>
 5   0  0.6221259E+05  0.9118800E+02  0.7546771E-02  0.1180000E+00
      -11   -1    0    0    0    0  0.00000000000E+00  0.00000000000E+00  0.34996269501E-01  0.35000000000E-01  0.51099999109E-03 0.  1.
       11   -1    0    0    0    0 -0.00000000000E+00 -0.00000000000E+00 -0.34996269501E-01  0.35000000000E-01  0.51099999109E-03 0. -1.
       22    1    1    2    0    0 -0.37389579033E-03  0.87584218172E-03 -0.34986930697E-01  0.34999888817E-01  0.00000000000E+00 0. -1.
       22    1    1    2    0    0 -0.29411809090E-05  0.29587035567E-05  0.18665516130E-03  0.18670177747E-03  0.00000000000E+00 0.  1.
       22    1    1    2    0    0  0.37683697124E-03 -0.87880088528E-03  0.34800275536E-01  0.34813409406E-01  0.00000000000E+00 0.  1.
</event>
<event>
 5   0  0.6221259E+05  0.9118800E+02  0.7546771E-02  0.1180000E+00
      -11   -1    0    0    0    0  0.00000000000E+00  0.00000000000E+00  0.34996269501E-01  0.35000000000E-01  0.51099999109E-03 0.  1.
       11   -1    0    0    0    0 -0.00000000000E+00 -0.00000000000E+00 -0.34996269501E-01  0.35000000000E-01  0.51099999109E-03 0. -1.
       22    1    1    2    0    0  0.83979277435E-05  0.29515182914E-05 -0.56502488406E-04  0.57199369285E-04  0.00000000000E+00 0. -1.
       22    1    1    2    0    0  0.29125116016E-01 -0.46025132182E-02  0.18824836741E-01  0.34983281567E-01  0.00000000000E+00 0.  1.
       22    1    1    2    0    0 -0.29133513944E-01  0.45995616999E-02 -0.18768334253E-01  0.34959519064E-01  0.00000000000E+00 0. -1.
</event>
<event>
 5   0  0.6221259E+05  0.9118800E+02  0.7546771E-02  0.1180000E+00
      -11   -1    0    0    0    0  0.00000000000E+00  0.00000000000E+00  0.34996269501E-01  0.35000000000E-01  0.51099999109E-03 0. -1.
       11   -1    0    0    0    0 -0.00000000000E+00 -0.00000000000E+00 -0.34996269501E-01  0.35000000000E-01  0.51099999109E-03 0.  1.
       22    1    1    2    0    0  0.43755438239E-02 -0.10812466605E-01 -0.32999169298E-01  0.34999999888E-01  0.00000000000E+00 0.  1.
       22    1    1    2    0    0 -0.43755444215E-02  0.10812466291E-01  0.32999166318E-01  0.34999997056E-01  0.00000000000E+00 0. -1.
       22    1    1    2    0    0  0.59754026686E-09  0.31434898409E-09  0.29798192288E-08  0.30553546915E-08  0.00000000000E+00 0.  1.
</event>
<event>
 5   0  0.6221259E+05  0.9118800E+02  0.7546771E-02  0.1180000E+00
      -11   -1    0    0    0    0  0.00000000000E+00  0.00000000000E+00  0.34996269501E-01  0.35000000000E-01  0.51099999109E-03 0. -1.
       11   -1    0    0    0    0 -0.00000000000E+00 -0.00000000000E+00 -0.34996269501E-01  0.35000000000E-01  0.51099999109E-03 0.  1.
       22    1    1    2    0    0  0.28841970724E-03 -0.28424005632E-02 -0.26105793284E-02  0.38700841489E-02  0.00000000000E+00 0. -1.
       22    1    1    2    0    0 -0.10602560913E-01 -0.79238673655E-03 -0.29950383224E-01  0.31781561162E-01  0.00000000000E+00 0.  1.
       22    1    1    2    0    0  0.10314141206E-01  0.36347872998E-02  0.32560962552E-01  0.34348354689E-01  0.00000000000E+00 0. -1.
</event>
<event>
 5   0  0.6221259E+05  0.9118800E+02  0.7546771E-02  0.1180000E+00
      -11   -1    0    0    0    0  0.00000000000E+00  0.00000000000E+00  0.34996269501E-01  0.35000000000E-01  0.51099999109E-03 0. -1.
       11   -1    0    0    0    0 -0.00000000000E+00 -0.00000000000E+00 -0.34996269501E-01  0.35000000000E-01  0.51099999109E-03 0.  1.
       22    1    1    2    0    0  0.97760581375E-03 -0.52083995134E-04 -0.34978964016E-01  0.34992661367E-01  0.00000000000E+00 0.  1.
       22    1    1    2    0    0 -0.10019784859E-02  0.45676435526E-04  0.34963262021E-01  0.34977646267E-01  0.00000000000E+00 0. -1.
       22    1    1    2    0    0  0.24372672162E-04  0.64075596083E-05  0.15701994968E-04  0.29692366265E-04  0.00000000000E+00 0.  1.
</event>
<event>
 5   0  0.6221259E+05  0.9118800E+02  0.7546771E-02  0.1180000E+00
      -11   -1    0    0    0    0  0.00000000000E+00  0.00000000000E+00  0.34996269501E-01  0.35000000000E-01  0.51099999109E-03 0.  1.
       11   -1    0    0    0    0 -0.00000000000E+00 -0.00000000000E+00 -0.34996269501E-01  0.35000000000E-01  0.51099999109E-03 0. -1.
       22    1    1    2    0    0  0.60598172751E-02 -0.11860746587E-01  0.31950843500E-01  0.34615821460E-01  0.00000000000E+00 0.  1.
       22    1    1    2    0    0  0.89253699106E-03 -0.34148402562E-03 -0.93493285475E-03  0.13369117634E-02  0.00000000000E+00 0.  1.
       22    1    1    2    0    0 -0.69523542662E-02  0.12202230613E-01 -0.31015910645E-01  0.34047266776E-01  0.00000000000E+00 0. -1.
</event>
<event>
 5   0  0.6221259E+05  0.9118800E+02  0.7546771E-02  0.1180000E+00
      -11   -1    0    0    0    0  0.00000000000E+00  0.00000000000E+00  0.34996269501E-01  0.35000000000E-01  0.51099999109E-03 0.  1.
       11   -1    0    0    0    0 -0.00000000000E+00 -0.00000000000E+00 -0.34996269501E-01  0.35000000000E-01  0.51099999109E-03 0. -1.
       22    1    1    2    0    0  0.21022931185E-01  0.17228720955E-01  0.47389097439E-02  0.27590754373E-01  0.00000000000E+00 0. -1.
       22    1    1    2    0    0  0.21287211125E-02  0.33891752822E-02 -0.10175780489E-01  0.10934554003E-01  0.00000000000E+00 0. -1.
       22    1    1    2    0    0 -0.23151652297E-01 -0.20617896237E-01  0.54368707455E-02  0.31474691624E-01  0.00000000000E+00 0.  1.
</event>
<event>
 5   0  0.6221259E+05  0.9118800E+02  0.7546771E-02  0.1180000E+00
      -11   -1    0    0    0    0  0.00000000000E+00  0.00000000000E+00  0.34996269501E-01  0.35000000000E-01  0.51099999109E-03 0.  1.
       11   -1    0    0    0    0 -0.00000000000E+00 -0.00000000000E+00 -0.34996269501E-01  0.35000000000E-01  0.51099999109E-03 0. -1.
       22    1    1    2    0    0 -0.55994368525E-02  0.57656384813E-02 -0.34064659049E-01  0.34999961090E-01  0.00000000000E+00 0. -1.
       22    1    1    2    0    0  0.55996104816E-02 -0.57655426822E-02  0.34062542994E-01  0.34997913584E-01  0.00000000000E+00 0.  1.
       22    1    1    2    0    0 -0.17362912556E-06 -0.95799126488E-07  0.21160548490E-05  0.21253264855E-05  0.00000000000E+00 0.  1.
</event>
<event>
 5   0  0.6221259E+05  0.9118800E+02  0.7546771E-02  0.1180000E+00
      -11   -1    0    0    0    0  0.00000000000E+00  0.00000000000E+00  0.34996269501E-01  0.35000000000E-01  0.51099999109E-03 0.  1.
       11   -1    0    0    0    0 -0.00000000000E+00 -0.00000000000E+00 -0.34996269501E-01  0.35000000000E-01  0.51099999109E-03 0. -1.
       22    1    1    2    0    0 -0.12034190603E-02 -0.28655996377E-02 -0.34861728506E-01  0.34999999902E-01  0.00000000000E+00 0. -1.
       22    1    1    2    0    0  0.13356637363E-08 -0.40738648138E-09  0.47658335313E-07  0.47678788639E-07  0.00000000000E+00 0. -1.
       22    1    1    2    0    0  0.12034177247E-02  0.28656000451E-02  0.34861680848E-01  0.34999952419E-01  0.00000000000E+00 0.  1.
</event>
<event>
 5   0  0.6221259E+05  0.9118800E+02  0.7546771E-02  0.1180000E+00
      -11   -1    0    0    0    0  0.00000000000E+00  0.00000000000E+00  0.34996269501E-01  0.35000000000E-01  0.51099999109E-03 0. -1.
       11   -1    0    0    0    0 -0.00000000000E+00 -0.00000000000E+00 -0.34996269501E-01  0.35000000000E-01  0.51099999109E-03 0.  1.
       22    1    1    2    0    0 -0.30690561613E-01 -0.11063297600E-01 -0.20087332074E-02  0.32685503438E-01  0.00000000000E+00 0. -1.
       22    1    1    2    0    0 -0.70152611264E-04 -0.17096344211E-04  0.45219553217E-02  0.45225317694E-02  0.00000000000E+00 0. -1.
       22    1    1    2    0    0  0.30760714224E-01  0.11080393944E-01 -0.25132221143E-02  0.32791964792E-01  0.00000000000E+00 0.  1.
</event>
<event>
 5   0  0.6221259E+05  0.9118800E+02  0.7546771E-02  0.1180000E+00
      -11   -1    0    0    0    0  0.00000000000E+00  0.00000000000E+00  0.34996269501E-01  0.35000000000E-01  0.51099999109E-03 0. -1.
       11   -1    0    0    0    0 -0.00000000000E+00 -0.00000000000E+00 -0.34996269501E-01  0.35000000000E-01  0.51099999109E-03 0.  1.
       22    1    1    2    0    0 -0.79021720765E-02  0.82923638836E-02  0.33063243199E-01  0.34991222801E-01  0.00000000000E+00 0. -1.
       22    1    1    2    0    0 -0.10197935030E-04  0.16784718935E-04 -0.18403649685E-03  0.18508148703E-03  0.00000000000E+00 0. -1.
       22    1    1    2    0    0  0.79123700115E-02 -0.83091486026E-02 -0.32879206702E-01  0.34823695712E-01  0.00000000000E+00 0.  1.
</event>
<event>
 5   0  0.6221259E+05  0.9118800E+02  0.7546771E-02  0.1180000E+00
      -11   -1    0    0    0    0  0.00000000000E+00  0.00000000000E+00  0.34996269501E-01  0.35000000000E-01  0.51099999109E-03 0.  1.
       11   -1    0    0    0    0 -0.00000000000E+00 -0.00000000000E+00 -0.34996269501E-01  0.35000000000E-01  0.51099999109E-03 0. -1.
       22    1    1    2    0    0 -0.77019507786E-02  0.12935298822E-01 -0.31596801929E-01  0.34999998479E-01  0.00000000000E+00 0. -1.
       22    1    1    2    0    0  0.77019519761E-02 -0.12935295275E-01  0.31596761667E-01  0.34999961085E-01  0.00000000000E+00 0.  1.
       22    1    1    2    0    0 -0.11974879445E-08 -0.35472216920E-08  0.40261779571E-07  0.40435475183E-07  0.00000000000E+00 0. -1.
</event>
<event>
 5   0  0.6221259E+05  0.9118800E+02  0.7546771E-02  0.1180000E+00
      -11   -1    0    0    0    0  0.00000000000E+00  0.00000000000E+00  0.34996269501E-01  0.35000000000E-01  0.51099999109E-03 0.  1.
       11   -1    0    0    0    0 -0.00000000000E+00 -0.00000000000E+00 -0.34996269501E-01  0.35000000000E-01  0.51099999109E-03 0. -1.
       22    1    1    2    0    0 -0.58989084374E-09 -0.68168309283E-10  0.80503261427E-08  0.80721972925E-08  0.00000000000E+00 0. -1.
       22    1    1    2    0    0  0.11943927982E-01  0.89208405863E-02  0.31666396350E-01  0.34999992431E-01  0.00000000000E+00 0.  1.
       22    1    1    2    0    0 -0.11943927393E-01 -0.89208405181E-02 -0.31666404400E-01  0.34999999496E-01  0.00000000000E+00 0. -1.
</event>
<event>
 5   0  0.6221259E+05  0.9118800E+02  0.7546771E-02  0.1180000E+00
      -11   -1    0    0    0    0  0.00000000000E+00  0.00000000000E+00  0.34996269501E-01  0.35000000000E-01  0.51099999109E-03 0.  1.
       11   -1    0    0    0    0 -0.00000000000E+00 -0.00000000000E+00 -0.34996269501E-01  0.35000000000E-01  0.51099999109E-03 0. -1.
       22    1    1    2    0    0 -0.17150723732E-01 -0.10708878865E-01 -0.28566050583E-01  0.34997809317E-01  0.00000000000E+00 0. -1.
       22    1    1    2    0    0  0.17152125045E-01  0.10709626723E-01  0.28547573637E-01  0.34983645588E-01  0.00000000000E+00 0.  1.
       22    1    1    2    0    0 -0.14013131921E-05 -0.74785782029E-06  0.18476946805E-04  0.18545094586E-04  0.00000000000E+00 0.  1.
</event>
<event>
 5   0  0.6221259E+05  0.9118800E+02  0.7546771E-02  0.1180000E+00
      -11   -1    0    0    0    0  0.00000000000E+00  0.00000000000E+00  0.34996269501E-01  0.35000000000E-01  0.51099999109E-03 0. -1.
       11   -1    0    0    0    0 -0.00000000000E+00 -0.00000000000E+00 -0.34996269501E-01  0.35000000000E-01  0.51099999109E-03 0.  1.
       22    1    1    2    0    0 -0.67742321364E-03 -0.10032171293E-03  0.29921858921E-01  0.29929694418E-01  0.00000000000E+00 0. -1.
       22    1    1    2    0    0  0.17120272127E-02 -0.17555805493E-02  0.47435255167E-02  0.53398627857E-02  0.00000000000E+00 0. -1.
       22    1    1    2    0    0 -0.10346039991E-02  0.18559022622E-02 -0.34665384438E-01  0.34730442797E-01  0.00000000000E+00 0.  1.
</event>
<event>
 5   0  0.6221259E+05  0.9118800E+02  0.7546771E-02  0.1180000E+00
      -11   -1    0    0    0    0  0.00000000000E+00  0.00000000000E+00  0.34996269501E-01  0.35000000000E-01  0.51099999109E-03 0.  1.
       11   -1    0    0    0    0 -0.00000000000E+00 -0.00000000000E+00 -0.34996269501E-01  0.35000000000E-01  0.51099999109E-03 0. -1.
       22    1    1    2    0    0 -0.12374693245E-03  0.14711986449E-03  0.31544766448E-03  0.36941140595E-03  0.00000000000E+00 0. -1.
       22    1    1    2    0    0 -0.45007526302E-02 -0.25586200020E-02  0.34267597410E-01  0.34656479088E-01  0.00000000000E+00 0.  1.
       22    1    1    2    0    0  0.46244995627E-02  0.24115001375E-02 -0.34583045074E-01  0.34974109506E-01  0.00000000000E+00 0. -1.
</event>
<event>
 5   0  0.6221259E+05  0.9118800E+02  0.7546771E-02  0.1180000E+00
      -11   -1    0    0    0    0  0.00000000000E+00  0.00000000000E+00  0.34996269501E-01  0.35000000000E-01  0.51099999109E-03 0.  1.
       11   -1    0    0    0    0 -0.00000000000E+00 -0.00000000000E+00 -0.34996269501E-01  0.35000000000E-01  0.51099999109E-03 0. -1.
       22    1    1    2    0    0 -0.76165343337E-02 -0.13092329691E-02  0.32693228699E-01  0.33594238925E-01  0.00000000000E+00 0.  1.
       22    1    1    2    0    0 -0.14170490552E-02 -0.21625940211E-02 -0.30604182520E-03  0.26035557462E-02  0.00000000000E+00 0. -1.
       22    1    1    2    0    0  0.90335833889E-02  0.34718269902E-02 -0.32387186873E-01  0.33802205329E-01  0.00000000000E+00 0. -1.
</event>
<event>
 5   0  0.6221259E+05  0.9118800E+02  0.7546771E-02  0.1180000E+00
      -11   -1    0    0    0    0  0.00000000000E+00  0.00000000000E+00  0.34996269501E-01  0.35000000000E-01  0.51099999109E-03 0. -1.
       11   -1    0    0    0    0 -0.00000000000E+00 -0.00000000000E+00 -0.34996269501E-01  0.35000000000E-01  0.51099999109E-03 0.  1.
       22    1    1    2    0    0 -0.37821224259E-02 -0.39968322851E-02 -0.34507486559E-01  0.34943465011E-01  0.00000000000E+00 0.  1.
       22    1    1    2    0    0  0.38662575970E-02  0.40864428233E-02  0.28613370900E-01  0.29161137787E-01  0.00000000000E+00 0. -1.
       22    1    1    2    0    0 -0.84135171054E-04 -0.89610538251E-04  0.58941156583E-02  0.58953972020E-02  0.00000000000E+00 0. -1.
</event>
<event>
 5   0  0.6221259E+05  0.9118800E+02  0.7546771E-02  0.1180000E+00
      -11   -1    0    0    0    0  0.00000000000E+00  0.00000000000E+00  0.34996269501E-01  0.35000000000E-01  0.51099999109E-03 0.  1.
       11   -1    0    0    0    0 -0.00000000000E+00 -0.00000000000E+00 -0.34996269501E-01  0.35000000000E-01  0.51099999109E-03 0. -1.
       22    1    1    2    0    0 -0.67094988191E-07 -0.63453919035E-07  0.12589597549E-05  0.12623421888E-05  0.00000000000E+00 0.  1.
       22    1    1    2    0    0  0.17969185235E-01  0.17752489281E-01 -0.24226971685E-01  0.34999837867E-01  0.00000000000E+00 0. -1.
       22    1    1    2    0    0 -0.17969118141E-01 -0.17752425827E-01  0.24225712725E-01  0.34998899791E-01  0.00000000000E+00 0.  1.
</event>
<event>
 5   0  0.6221259E+05  0.9118800E+02  0.7546771E-02  0.1180000E+00
      -11   -1    0    0    0    0  0.00000000000E+00  0.00000000000E+00  0.34996269501E-01  0.35000000000E-01  0.51099999109E-03 0.  1.
       11   -1    0    0    0    0 -0.00000000000E+00 -0.00000000000E+00 -0.34996269501E-01  0.35000000000E-01  0.51099999109E-03 0. -1.
       22    1    1    2    0    0 -0.24793561453E-04  0.14499231096E-03 -0.17220115769E-03  0.22647456730E-03  0.00000000000E+00 0.  1.
       22    1    1    2    0    0  0.20982746037E-01  0.96696743374E-02  0.26209090970E-01  0.34938441329E-01  0.00000000000E+00 0.  1.
       22    1    1    2    0    0 -0.20957952476E-01 -0.98146666483E-02 -0.26036889812E-01  0.34835084103E-01  0.00000000000E+00 0. -1.
</event>
<event>
 5   0  0.6221259E+05  0.9118800E+02  0.7546771E-02  0.1180000E+00
      -11   -1    0    0    0    0  0.00000000000E+00  0.00000000000E+00  0.34996269501E-01  0.35000000000E-01  0.51099999109E-03 0.  1.
       11   -1    0    0    0    0 -0.00000000000E+00 -0.00000000000E+00 -0.34996269501E-01  0.35000000000E-01  0.51099999109E-03 0. -1.
       22    1    1    2    0    0 -0.22796818183E-05  0.30098685678E-06  0.11199665106E-04  0.11433286525E-04  0.00000000000E+00 0.  1.
       22    1    1    2    0    0 -0.57581761149E-03  0.50683359812E-03 -0.34991453450E-01  0.34999860867E-01  0.00000000000E+00 0. -1.
       22    1    1    2    0    0  0.57809729331E-03 -0.50713458497E-03  0.34980253784E-01  0.34988705846E-01  0.00000000000E+00 0.  1.
</event>
<event>
 5   0  0.6221259E+05  0.9118800E+02  0.7546771E-02  0.1180000E+00
      -11   -1    0    0    0    0  0.00000000000E+00  0.00000000000E+00  0.34996269501E-01  0.35000000000E-01  0.51099999109E-03 0.  1.
       11   -1    0    0    0    0 -0.00000000000E+00 -0.00000000000E+00 -0.34996269501E-01  0.35000000000E-01  0.51099999109E-03 0. -1.
       22    1    1    2    0    0 -0.64408240850E-02 -0.60081482849E-02 -0.33817980123E-01  0.34946213534E-01  0.00000000000E+00 0. -1.
       22    1    1    2    0    0 -0.53826541998E-04 -0.16735562187E-03  0.22294474751E-03  0.28391822984E-03  0.00000000000E+00 0.  1.
       22    1    1    2    0    0  0.64946506270E-02  0.61755039068E-02  0.33595035376E-01  0.34769868236E-01  0.00000000000E+00 0.  1.
</event>
<event>
 5   0  0.6221259E+05  0.9118800E+02  0.7546771E-02  0.1180000E+00
      -11   -1    0    0    0    0  0.00000000000E+00  0.00000000000E+00  0.34996269501E-01  0.35000000000E-01  0.51099999109E-03 0. -1.
       11   -1    0    0    0    0 -0.00000000000E+00 -0.00000000000E+00 -0.34996269501E-01  0.35000000000E-01  0.51099999109E-03 0.  1.
       22    1    1    2    0    0  0.18730290733E-08  0.53173910879E-09  0.39922600448E-08  0.44417479278E-08  0.00000000000E+00 0. -1.
       22    1    1    2    0    0 -0.38458889766E-02  0.74339028834E-02 -0.33984499546E-01  0.34999999764E-01  0.00000000000E+00 0.  1.
       22    1    1    2    0    0  0.38458871035E-02 -0.74339034151E-02  0.33984495553E-01  0.34999995794E-01  0.00000000000E+00 0. -1.
</event>
<event>
 5   0  0.6221259E+05  0.9118800E+02  0.7546771E-02  0.1180000E+00
      -11   -1    0    0    0    0  0.00000000000E+00  0.00000000000E+00  0.34996269501E-01  0.35000000000E-01  0.51099999109E-03 0. -1.
       11   -1    0    0    0    0 -0.00000000000E+00 -0.00000000000E+00 -0.34996269501E-01  0.35000000000E-01  0.51099999109E-03 0.  1.
       22    1    1    2    0    0  0.12353662863E-01 -0.17680108040E-01 -0.27564467665E-01  0.34999986916E-01  0.00000000000E+00 0.  1.
       22    1    1    2    0    0 -0.97188071177E-06  0.16515627865E-05  0.18848809379E-05  0.26879337614E-05  0.00000000000E+00 0. -1.
       22    1    1    2    0    0 -0.12352690982E-01  0.17678456478E-01  0.27562582784E-01  0.34997325150E-01  0.00000000000E+00 0. -1.
</event>
<event>
 5   0  0.6221259E+05  0.9118800E+02  0.7546771E-02  0.1180000E+00
      -11   -1    0    0    0    0  0.00000000000E+00  0.00000000000E+00  0.34996269501E-01  0.35000000000E-01  0.51099999109E-03 0. -1.
       11   -1    0    0    0    0 -0.00000000000E+00 -0.00000000000E+00 -0.34996269501E-01  0.35000000000E-01  0.51099999109E-03 0.  1.
       22    1    1    2    0    0  0.24770975522E-02  0.18830962326E-02  0.28573596371E-01  0.28742520301E-01  0.00000000000E+00 0. -1.
       22    1    1    2    0    0 -0.26350291444E-02  0.20083020303E-02  0.57916122001E-02  0.66722880268E-02  0.00000000000E+00 0. -1.
       22    1    1    2    0    0  0.15793159227E-03 -0.38913982630E-02 -0.34365208571E-01  0.34585191672E-01  0.00000000000E+00 0.  1.
</event>
<event>
 5   0  0.6221259E+05  0.9118800E+02  0.7546771E-02  0.1180000E+00
      -11   -1    0    0    0    0  0.00000000000E+00  0.00000000000E+00  0.34996269501E-01  0.35000000000E-01  0.51099999109E-03 0. -1.
       11   -1    0    0    0    0 -0.00000000000E+00 -0.00000000000E+00 -0.34996269501E-01  0.35000000000E-01  0.51099999109E-03 0.  1.
       22    1    1    2    0    0  0.25183342303E-02 -0.18911007779E-02  0.34857984488E-01  0.34999962171E-01  0.00000000000E+00 0. -1.
       22    1    1    2    0    0 -0.83333060248E-08 -0.40215205201E-08  0.37534241097E-07  0.38657934132E-07  0.00000000000E+00 0. -1.
       22    1    1    2    0    0 -0.25183258970E-02  0.18911047995E-02 -0.34858022022E-01  0.34999999171E-01  0.00000000000E+00 0.  1.
</event>
<event>
 5   0  0.6221259E+05  0.9118800E+02  0.7546771E-02  0.1180000E+00
      -11   -1    0    0    0    0  0.00000000000E+00  0.00000000000E+00  0.34996269501E-01  0.35000000000E-01  0.51099999109E-03 0.  1.
       11   -1    0    0    0    0 -0.00000000000E+00 -0.00000000000E+00 -0.34996269501E-01  0.35000000000E-01  0.51099999109E-03 0. -1.
       22    1    1    2    0    0 -0.22607590720E-03  0.62619485351E-03  0.34977547789E-01  0.34983883142E-01  0.00000000000E+00 0.  1.
       22    1    1    2    0    0  0.23094848643E-03 -0.62019094220E-03 -0.34992778378E-01  0.34999035881E-01  0.00000000000E+00 0. -1.
       22    1    1    2    0    0 -0.48725792288E-05 -0.60039113126E-05  0.15230588267E-04  0.17080977676E-04  0.00000000000E+00 0. -1.
</event>
<event>
 5   0  0.6221259E+05  0.9118800E+02  0.7546771E-02  0.1180000E+00
      -11   -1    0    0    0    0  0.00000000000E+00  0.00000000000E+00  0.34996269501E-01  0.35000000000E-01  0.51099999109E-03 0. -1.
       11   -1    0    0    0    0 -0.00000000000E+00 -0.00000000000E+00 -0.34996269501E-01  0.35000000000E-01  0.51099999109E-03 0. -1.
       22    1    1    2    0    0 -0.13009463360E-07 -0.82023579478E-08  0.35001047144E-01  0.34999987647E-01  0.00000000000E+00 0. -1.
       22    1    1    2    0    0  0.13008573106E-07  0.82017966507E-08  0.75662260211E-08  0.17138851151E-07  0.00000000000E+00 0.  1.
       22    1    1    2    0    0  0.89025307532E-12  0.56129712550E-12 -0.35001054710E-01  0.34999995214E-01  0.00000000000E+00 0. -1.
</event>
<event>
 5   0  0.6221259E+05  0.9118800E+02  0.7546771E-02  0.1180000E+00
      -11   -1    0    0    0    0  0.00000000000E+00  0.00000000000E+00  0.34996269501E-01  0.35000000000E-01  0.51099999109E-03 0. -1.
       11   -1    0    0    0    0 -0.00000000000E+00 -0.00000000000E+00 -0.34996269501E-01  0.35000000000E-01  0.51099999109E-03 0. -1.
       22    1    1    2    0    0  0.62399270318E-08  0.13968033012E-08  0.35001315170E-01  0.34999970592E-01  0.00000000000E+00 0. -1.
       22    1    1    2    0    0 -0.45241641062E-12 -0.10127309705E-12 -0.35001344230E-01  0.34999999653E-01  0.00000000000E+00 0. -1.
       22    1    1    2    0    0 -0.62394746154E-08 -0.13967020281E-08  0.29060009057E-07  0.29755099502E-07  0.00000000000E+00 0. -1.
</event>
<event>
 5   0  0.6221259E+05  0.9118800E+02  0.7546771E-02  0.1180000E+00
      -11   -1    0    0    0    0  0.00000000000E+00  0.00000000000E+00  0.34996269501E-01  0.35000000000E-01  0.51099999109E-03 0. -1.
       11   -1    0    0    0    0 -0.00000000000E+00 -0.00000000000E+00 -0.34996269501E-01  0.35000000000E-01  0.51099999109E-03 0. -1.
       22    1    1    2    0    0 -0.12158962494E-07  0.27787585660E-07  0.15287861583E-05  0.15290870179E-05  0.00000000000E+00 0. -1.
       22    1    1    2    0    0 -0.11674667564E-11  0.26680798230E-11 -0.35002989594E-01  0.34999999915E-01  0.00000000000E+00 0. -1.
       22    1    1    2    0    0  0.12160129961E-07 -0.27790253740E-07  0.35001460808E-01  0.34998470998E-01  0.00000000000E+00 0. -1.
</event>
<event>
 5   0  0.6221259E+05  0.9118800E+02  0.7546771E-02  0.1180000E+00
      -11   -1    0    0    0    0  0.00000000000E+00  0.00000000000E+00  0.34996269501E-01  0.35000000000E-01  0.51099999109E-03 0. -1.
       11   -1    0    0    0    0 -0.00000000000E+00 -0.00000000000E+00 -0.34996269501E-01  0.35000000000E-01  0.51099999109E-03 0.  1.
       22    1    1    2    0    0 -0.10942431957E-01 -0.99320523657E-02  0.31589443774E-01  0.34875140706E-01  0.00000000000E+00 0. -1.
       22    1    1    2    0    0  0.99897763505E-02  0.10220459031E-01 -0.28563733933E-01  0.31939635417E-01  0.00000000000E+00 0.  1.
       22    1    1    2    0    0  0.95265560614E-03 -0.28840666536E-03 -0.30257098405E-02  0.31852238771E-02  0.00000000000E+00 0. -1.
</event>
<event>
 5   0  0.6221259E+05  0.9118800E+02  0.7546771E-02  0.1180000E+00
      -11   -1    0    0    0    0  0.00000000000E+00  0.00000000000E+00  0.34996269501E-01  0.35000000000E-01  0.51099999109E-03 0. -1.
       11   -1    0    0    0    0 -0.00000000000E+00 -0.00000000000E+00 -0.34996269501E-01  0.35000000000E-01  0.51099999109E-03 0.  1.
       22    1    1    2    0    0  0.29112707527E-02  0.41943582317E-03 -0.34876188695E-01  0.34999999453E-01  0.00000000000E+00 0.  1.
       22    1    1    2    0    0  0.13705911637E-08  0.36944645079E-08  0.81079853263E-08  0.90148219167E-08  0.00000000000E+00 0. -1.
       22    1    1    2    0    0 -0.29112721233E-02 -0.41943951764E-03  0.34876180587E-01  0.34999991532E-01  0.00000000000E+00 0. -1.
</event>
<event>
 5   0  0.6221259E+05  0.9118800E+02  0.7546771E-02  0.1180000E+00
      -11   -1    0    0    0    0  0.00000000000E+00  0.00000000000E+00  0.34996269501E-01  0.35000000000E-01  0.51099999109E-03 0.  1.
       11   -1    0    0    0    0 -0.00000000000E+00 -0.00000000000E+00 -0.34996269501E-01  0.35000000000E-01  0.51099999109E-03 0. -1.
       22    1    1    2    0    0 -0.36537982985E-08  0.45682244898E-09  0.27680939146E-07  0.27924779690E-07  0.00000000000E+00 0.  1.
       22    1    1    2    0    0 -0.30151202192E-02  0.16747005827E-02  0.34829620652E-01  0.34999972096E-01  0.00000000000E+00 0.  1.
       22    1    1    2    0    0  0.30151238729E-02 -0.16747010395E-02 -0.34829648333E-01  0.34999999979E-01  0.00000000000E+00 0. -1.
</event>
<event>
 5   0  0.6221259E+05  0.9118800E+02  0.7546771E-02  0.1180000E+00
      -11   -1    0    0    0    0  0.00000000000E+00  0.00000000000E+00  0.34996269501E-01  0.35000000000E-01  0.51099999109E-03 0.  1.
       11   -1    0    0    0    0 -0.00000000000E+00 -0.00000000000E+00 -0.34996269501E-01  0.35000000000E-01  0.51099999109E-03 0. -1.
       22    1    1    2    0    0  0.58434298054E-03 -0.90519540973E-03 -0.34983408727E-01  0.34999996023E-01  0.00000000000E+00 0. -1.
       22    1    1    2    0    0 -0.58418206537E-03  0.90513437648E-03  0.34982139878E-01  0.34998723511E-01  0.00000000000E+00 0.  1.
       22    1    1    2    0    0 -0.16091516375E-06  0.61033245825E-07  0.12688482907E-05  0.12804666070E-05  0.00000000000E+00 0.  1.
</event>
<event>
 5   0  0.6221259E+05  0.9118800E+02  0.7546771E-02  0.1180000E+00
      -11   -1    0    0    0    0  0.00000000000E+00  0.00000000000E+00  0.34996269501E-01  0.35000000000E-01  0.51099999109E-03 0.  1.
       11   -1    0    0    0    0 -0.00000000000E+00 -0.00000000000E+00 -0.34996269501E-01  0.35000000000E-01  0.51099999109E-03 0. -1.
       22    1    1    2    0    0  0.12211848465E-02  0.41761495747E-02 -0.34728447427E-01  0.34999951119E-01  0.00000000000E+00 0. -1.
       22    1    1    2    0    0 -0.52022948509E-06  0.22661736718E-06  0.91995735452E-05  0.92170574242E-05  0.00000000000E+00 0.  1.
       22    1    1    2    0    0 -0.12206646170E-02 -0.41763761921E-02  0.34719247853E-01  0.34990831823E-01  0.00000000000E+00 0.  1.
</event>
<event>
 5   0  0.6221259E+05  0.9118800E+02  0.7546771E-02  0.1180000E+00
      -11   -1    0    0    0    0  0.00000000000E+00  0.00000000000E+00  0.34996269501E-01  0.35000000000E-01  0.51099999109E-03 0.  1.
       11   -1    0    0    0    0 -0.00000000000E+00 -0.00000000000E+00 -0.34996269501E-01  0.35000000000E-01  0.51099999109E-03 0.  1.
       22    1    1    2    0    0  0.40229851000E-03  0.46619948928E-04 -0.34997654182E-01  0.34999997368E-01  0.00000000000E+00 0.  1.
       22    1    1    2    0    0 -0.72104562638E-09  0.42788432762E-08 -0.84551582686E-09  0.44207808803E-08  0.00000000000E+00 0.  1.
       22    1    1    2    0    0 -0.40229778895E-03 -0.46624227771E-04  0.34997655028E-01  0.34999998211E-01  0.00000000000E+00 0.  1.
</event>
<event>
 5   0  0.6221259E+05  0.9118800E+02  0.7546771E-02  0.1180000E+00
      -11   -1    0    0    0    0  0.00000000000E+00  0.00000000000E+00  0.34996269501E-01  0.35000000000E-01  0.51099999109E-03 0.  1.
       11   -1    0    0    0    0 -0.00000000000E+00 -0.00000000000E+00 -0.34996269501E-01  0.35000000000E-01  0.51099999109E-03 0. -1.
       22    1    1    2    0    0  0.77193858461E-03  0.42483824757E-03  0.46624675624E-03  0.99687649823E-03  0.00000000000E+00 0. -1.
       22    1    1    2    0    0  0.11988936199E-01  0.14087060893E-01  0.28622959723E-01  0.34080107087E-01  0.00000000000E+00 0.  1.
       22    1    1    2    0    0 -0.12760874784E-01 -0.14511899140E-01 -0.29089206479E-01  0.34923016415E-01  0.00000000000E+00 0. -1.
</event>
<event>
 5   0  0.6221259E+05  0.9118800E+02  0.7546771E-02  0.1180000E+00
      -11   -1    0    0    0    0  0.00000000000E+00  0.00000000000E+00  0.34996269501E-01  0.35000000000E-01  0.51099999109E-03 0.  1.
       11   -1    0    0    0    0 -0.00000000000E+00 -0.00000000000E+00 -0.34996269501E-01  0.35000000000E-01  0.51099999109E-03 0. -1.
       22    1    1    2    0    0 -0.46020970650E-02 -0.61453094803E-03 -0.34690676692E-01  0.34999999929E-01  0.00000000000E+00 0. -1.
       22    1    1    2    0    0  0.46020924377E-02  0.61452828742E-03  0.34690652661E-01  0.34999975455E-01  0.00000000000E+00 0.  1.
       22    1    1    2    0    0  0.46272953777E-08  0.26606094891E-08  0.24030326582E-07  0.24615996852E-07  0.00000000000E+00 0.  1.
</event>
<event>
 5   0  0.6221259E+05  0.9118800E+02  0.7546771E-02  0.1180000E+00
      -11   -1    0    0    0    0  0.00000000000E+00  0.00000000000E+00  0.34996269501E-01  0.35000000000E-01  0.51099999109E-03 0. -1.
       11   -1    0    0    0    0 -0.00000000000E+00 -0.00000000000E+00 -0.34996269501E-01  0.35000000000E-01  0.51099999109E-03 0.  1.
       22    1    1    2    0    0  0.33341407456E-02 -0.13420474890E-02  0.32333054887E-01  0.32532199807E-01  0.00000000000E+00 0. -1.
       22    1    1    2    0    0 -0.24814210575E-02  0.74643405500E-03  0.19036157207E-02  0.32153331204E-02  0.00000000000E+00 0.  1.
       22    1    1    2    0    0 -0.85271968808E-03  0.59561343398E-03 -0.34236670608E-01  0.34252467072E-01  0.00000000000E+00 0.  1.
</event>
<event>
 5   0  0.6221259E+05  0.9118800E+02  0.7546771E-02  0.1180000E+00
      -11   -1    0    0    0    0  0.00000000000E+00  0.00000000000E+00  0.34996269501E-01  0.35000000000E-01  0.51099999109E-03 0.  1.
       11   -1    0    0    0    0 -0.00000000000E+00 -0.00000000000E+00 -0.34996269501E-01  0.35000000000E-01  0.51099999109E-03 0.  1.
       22    1    1    2    0    0 -0.12399796364E-03 -0.86413936042E-05 -0.68423721130E-04  0.14188718858E-03  0.00000000000E+00 0.  1.
       22    1    1    2    0    0 -0.00000000000E+00  0.00000000000E+00  0.34964202583E-01  0.34962112574E-01  0.00000000000E+00 0.  1.
       22    1    1    2    0    0  0.12399796364E-03  0.86413936042E-05 -0.34895778862E-01  0.34896000237E-01  0.00000000000E+00 0.  1.
</event>
<event>
 5   0  0.6221259E+05  0.9118800E+02  0.7546771E-02  0.1180000E+00
      -11   -1    0    0    0    0  0.00000000000E+00  0.00000000000E+00  0.34996269501E-01  0.35000000000E-01  0.51099999109E-03 0.  1.
       11   -1    0    0    0    0 -0.00000000000E+00 -0.00000000000E+00 -0.34996269501E-01  0.35000000000E-01  0.51099999109E-03 0.  1.
       22    1    1    2    0    0 -0.69695592214E-04 -0.78865541979E-03  0.34983847497E-01  0.34992805268E-01  0.00000000000E+00 0.  1.
       22    1    1    2    0    0  0.12272801857E-04  0.12050324704E-04 -0.27353210237E-05  0.17415911461E-04  0.00000000000E+00 0.  1.
       22    1    1    2    0    0  0.57422790357E-04  0.77660509509E-03 -0.34981112176E-01  0.34989778820E-01  0.00000000000E+00 0.  1.
</event>
<event>
 5   0  0.6221259E+05  0.9118800E+02  0.7546771E-02  0.1180000E+00
      -11   -1    0    0    0    0  0.00000000000E+00  0.00000000000E+00  0.34996269501E-01  0.35000000000E-01  0.51099999109E-03 0.  1.
       11   -1    0    0    0    0 -0.00000000000E+00 -0.00000000000E+00 -0.34996269501E-01  0.35000000000E-01  0.51099999109E-03 0. -1.
       22    1    1    2    0    0  0.21364656788E-02  0.64865632552E-02 -0.34322207277E-01  0.34995055377E-01  0.00000000000E+00 0. -1.
       22    1    1    2    0    0  0.17123301933E-04 -0.21794353388E-04  0.24781862919E-04  0.37179860656E-04  0.00000000000E+00 0. -1.
       22    1    1    2    0    0 -0.21535889807E-02 -0.64647689018E-02  0.34297425414E-01  0.34967764763E-01  0.00000000000E+00 0.  1.
</event>
<event>
 5   0  0.6221259E+05  0.9118800E+02  0.7546771E-02  0.1180000E+00
      -11   -1    0    0    0    0  0.00000000000E+00  0.00000000000E+00  0.34996269501E-01  0.35000000000E-01  0.51099999109E-03 0.  1.
       11   -1    0    0    0    0 -0.00000000000E+00 -0.00000000000E+00 -0.34996269501E-01  0.35000000000E-01  0.51099999109E-03 0. -1.
       22    1    1    2    0    0 -0.34796166128E-03 -0.81664978500E-03 -0.34980028598E-01  0.34991290272E-01  0.00000000000E+00 0. -1.
       22    1    1    2    0    0 -0.61816480205E-04 -0.13946813547E-03  0.90209542821E-03  0.91490371058E-03  0.00000000000E+00 0.  1.
       22    1    1    2    0    0  0.40977814148E-03  0.95611792047E-03  0.34077933170E-01  0.34093806017E-01  0.00000000000E+00 0.  1.
</event>
<event>
 5   0  0.6221259E+05  0.9118800E+02  0.7546771E-02  0.1180000E+00
      -11   -1    0    0    0    0  0.00000000000E+00  0.00000000000E+00  0.34996269501E-01  0.35000000000E-01  0.51099999109E-03 0.  1.
       11   -1    0    0    0    0 -0.00000000000E+00 -0.00000000000E+00 -0.34996269501E-01  0.35000000000E-01  0.51099999109E-03 0. -1.
       22    1    1    2    0    0  0.30021935867E-03  0.10243165787E-03 -0.11647390148E-02  0.12071623256E-02  0.00000000000E+00 0.  1.
       22    1    1    2    0    0 -0.35255229662E-02 -0.24789267061E-01  0.24238005255E-01  0.34848500288E-01  0.00000000000E+00 0.  1.
       22    1    1    2    0    0  0.32253036076E-02  0.24686835403E-01 -0.23073266240E-01  0.33944337386E-01  0.00000000000E+00 0. -1.
</event>
<event>
 5   0  0.6221259E+05  0.9118800E+02  0.7546771E-02  0.1180000E+00
      -11   -1    0    0    0    0  0.00000000000E+00  0.00000000000E+00  0.34996269501E-01  0.35000000000E-01  0.51099999109E-03 0. -1.
       11   -1    0    0    0    0 -0.00000000000E+00 -0.00000000000E+00 -0.34996269501E-01  0.35000000000E-01  0.51099999109E-03 0.  1.
       22    1    1    2    0    0 -0.25645113221E-01 -0.23804203389E-01  0.79524363364E-03  0.34999204899E-01  0.00000000000E+00 0.  1.
       22    1    1    2    0    0  0.55881099939E-06 -0.91524439847E-06  0.83353714984E-06  0.13582069880E-05  0.00000000000E+00 0.  1.
       22    1    1    2    0    0  0.25644554410E-01  0.23805118633E-01 -0.79607717079E-03  0.34999436894E-01  0.00000000000E+00 0. -1.
</event>
<event>
 5   0  0.6221259E+05  0.9118800E+02  0.7546771E-02  0.1180000E+00
      -11   -1    0    0    0    0  0.00000000000E+00  0.00000000000E+00  0.34996269501E-01  0.35000000000E-01  0.51099999109E-03 0. -1.
       11   -1    0    0    0    0 -0.00000000000E+00 -0.00000000000E+00 -0.34996269501E-01  0.35000000000E-01  0.51099999109E-03 0. -1.
       22    1    1    2    0    0  0.76317727574E-04 -0.14160038448E-03  0.64983552896E-04  0.17348754011E-03  0.00000000000E+00 0.  1.
       22    1    1    2    0    0 -0.64054863874E-03  0.75145376497E-04  0.34875473737E-01  0.34881436578E-01  0.00000000000E+00 0. -1.
       22    1    1    2    0    0  0.56423091117E-03  0.66455007980E-04 -0.34940457290E-01  0.34945075882E-01  0.00000000000E+00 0. -1.
</event>
<event>
 5   0  0.6221259E+05  0.9118800E+02  0.7546771E-02  0.1180000E+00
      -11   -1    0    0    0    0  0.00000000000E+00  0.00000000000E+00  0.34996269501E-01  0.35000000000E-01  0.51099999109E-03 0.  1.
       11   -1    0    0    0    0 -0.00000000000E+00 -0.00000000000E+00 -0.34996269501E-01  0.35000000000E-01  0.51099999109E-03 0. -1.
       22    1    1    2    0    0  0.21596424568E-01  0.14575943505E-01 -0.23356800108E-01  0.34991481741E-01  0.00000000000E+00 0. -1.
       22    1    1    2    0    0 -0.21586808302E-01 -0.14581526571E-01  0.23297912142E-01  0.34948589671E-01  0.00000000000E+00 0.  1.
       22    1    1    2    0    0 -0.96162658724E-05  0.55830654098E-05  0.58887965628E-04  0.59928588207E-04  0.00000000000E+00 0.  1.
</event>
<event>
 5   0  0.6221259E+05  0.9118800E+02  0.7546771E-02  0.1180000E+00
      -11   -1    0    0    0    0  0.00000000000E+00  0.00000000000E+00  0.34996269501E-01  0.35000000000E-01  0.51099999109E-03 0. -1.
       11   -1    0    0    0    0 -0.00000000000E+00 -0.00000000000E+00 -0.34996269501E-01  0.35000000000E-01  0.51099999109E-03 0.  1.
       22    1    1    2    0    0 -0.30296714877E-02 -0.24655505969E-02  0.34673921713E-01  0.34893247141E-01  0.00000000000E+00 0. -1.
       22    1    1    2    0    0  0.60472825378E-03 -0.75727954366E-03 -0.25040776196E-02  0.26850648583E-02  0.00000000000E+00 0.  1.
       22    1    1    2    0    0  0.24249432339E-02  0.32228301405E-02 -0.32169844094E-01  0.32421688001E-01  0.00000000000E+00 0.  1.
</event>
<event>
 5   0  0.6221259E+05  0.9118800E+02  0.7546771E-02  0.1180000E+00
      -11   -1    0    0    0    0  0.00000000000E+00  0.00000000000E+00  0.34996269501E-01  0.35000000000E-01  0.51099999109E-03 0. -1.
       11   -1    0    0    0    0 -0.00000000000E+00 -0.00000000000E+00 -0.34996269501E-01  0.35000000000E-01  0.51099999109E-03 0.  1.
       22    1    1    2    0    0 -0.13585913220E-02  0.22606618244E-02  0.26504391309E-01  0.26635298401E-01  0.00000000000E+00 0. -1.
       22    1    1    2    0    0 -0.39665640613E-03 -0.20125751762E-03  0.83718442464E-02  0.83836517687E-02  0.00000000000E+00 0.  1.
       22    1    1    2    0    0  0.17552477282E-02 -0.20594043068E-02 -0.34876235555E-01  0.34981049830E-01  0.00000000000E+00 0.  1.
</event>
<event>
 5   0  0.6221259E+05  0.9118800E+02  0.7546771E-02  0.1180000E+00
      -11   -1    0    0    0    0  0.00000000000E+00  0.00000000000E+00  0.34996269501E-01  0.35000000000E-01  0.51099999109E-03 0.  1.
       11   -1    0    0    0    0 -0.00000000000E+00 -0.00000000000E+00 -0.34996269501E-01  0.35000000000E-01  0.51099999109E-03 0. -1.
       22    1    1    2    0    0  0.68170204529E-02 -0.12462807890E-01 -0.30094616012E-01  0.33278810995E-01  0.00000000000E+00 0. -1.
       22    1    1    2    0    0  0.26393951127E-03 -0.25293579745E-03 -0.17078446411E-02  0.17465319640E-02  0.00000000000E+00 0. -1.
       22    1    1    2    0    0 -0.70809599642E-02  0.12715743687E-01  0.31802460653E-01  0.34974657041E-01  0.00000000000E+00 0.  1.
</event>
<event>
 5   0  0.6221259E+05  0.9118800E+02  0.7546771E-02  0.1180000E+00
      -11   -1    0    0    0    0  0.00000000000E+00  0.00000000000E+00  0.34996269501E-01  0.35000000000E-01  0.51099999109E-03 0. -1.
       11   -1    0    0    0    0 -0.00000000000E+00 -0.00000000000E+00 -0.34996269501E-01  0.35000000000E-01  0.51099999109E-03 0.  1.
       22    1    1    2    0    0  0.32664599037E-06  0.23933841178E-08  0.20059417356E-05  0.20323645288E-05  0.00000000000E+00 0.  1.
       22    1    1    2    0    0 -0.11327644318E-01  0.32006127515E-01  0.84975125759E-02  0.34998792040E-01  0.00000000000E+00 0. -1.
       22    1    1    2    0    0  0.11327317672E-01 -0.32006129908E-01 -0.84995185176E-02  0.34999175595E-01  0.00000000000E+00 0.  1.
</event>
<event>
 5   0  0.6221259E+05  0.9118800E+02  0.7546771E-02  0.1180000E+00
      -11   -1    0    0    0    0  0.00000000000E+00  0.00000000000E+00  0.34996269501E-01  0.35000000000E-01  0.51099999109E-03 0. -1.
       11   -1    0    0    0    0 -0.00000000000E+00 -0.00000000000E+00 -0.34996269501E-01  0.35000000000E-01  0.51099999109E-03 0.  1.
       22    1    1    2    0    0  0.21857896298E-03  0.55160240370E-03  0.17613418208E-01  0.17623408948E-01  0.00000000000E+00 0.  1.
       22    1    1    2    0    0  0.16736212423E-02  0.24264895038E-03 -0.34913896421E-01  0.34954828706E-01  0.00000000000E+00 0.  1.
       22    1    1    2    0    0 -0.18922002053E-02 -0.79425135409E-03  0.17300478213E-01  0.17421762345E-01  0.00000000000E+00 0. -1.
</event>
<event>
 5   0  0.6221259E+05  0.9118800E+02  0.7546771E-02  0.1180000E+00
      -11   -1    0    0    0    0  0.00000000000E+00  0.00000000000E+00  0.34996269501E-01  0.35000000000E-01  0.51099999109E-03 0. -1.
       11   -1    0    0    0    0 -0.00000000000E+00 -0.00000000000E+00 -0.34996269501E-01  0.35000000000E-01  0.51099999109E-03 0.  1.
       22    1    1    2    0    0  0.17571685033E-02 -0.22190239656E-03 -0.33893536370E-01  0.33939780340E-01  0.00000000000E+00 0.  1.
       22    1    1    2    0    0 -0.24894236318E-02 -0.10089199419E-02  0.34427214188E-01  0.34531843655E-01  0.00000000000E+00 0. -1.
       22    1    1    2    0    0  0.73225512852E-03  0.12308223385E-02 -0.53367781708E-03  0.15283760056E-02  0.00000000000E+00 0.  1.
</event>
<event>
 5   0  0.6221259E+05  0.9118800E+02  0.7546771E-02  0.1180000E+00
      -11   -1    0    0    0    0  0.00000000000E+00  0.00000000000E+00  0.34996269501E-01  0.35000000000E-01  0.51099999109E-03 0.  1.
       11   -1    0    0    0    0 -0.00000000000E+00 -0.00000000000E+00 -0.34996269501E-01  0.35000000000E-01  0.51099999109E-03 0. -1.
       22    1    1    2    0    0 -0.70940422107E-04 -0.80059763179E-04  0.32891557884E-03  0.34587218329E-03  0.00000000000E+00 0. -1.
       22    1    1    2    0    0  0.29598795814E-02  0.27356093731E-02  0.34434688146E-01  0.34669759063E-01  0.00000000000E+00 0.  1.
       22    1    1    2    0    0 -0.28889391593E-02 -0.26555496099E-02 -0.34763603725E-01  0.34984368754E-01  0.00000000000E+00 0. -1.
</event>
<event>
 5   0  0.6221259E+05  0.9118800E+02  0.7546771E-02  0.1180000E+00
      -11   -1    0    0    0    0  0.00000000000E+00  0.00000000000E+00  0.34996269501E-01  0.35000000000E-01  0.51099999109E-03 0.  1.
       11   -1    0    0    0    0 -0.00000000000E+00 -0.00000000000E+00 -0.34996269501E-01  0.35000000000E-01  0.51099999109E-03 0. -1.
       22    1    1    2    0    0 -0.20874523414E-01  0.19189383382E-01 -0.17057917478E-01  0.33090039453E-01  0.00000000000E+00 0. -1.
       22    1    1    2    0    0  0.15245712655E-02  0.79179124762E-03 -0.24095523508E-02  0.29592555575E-02  0.00000000000E+00 0. -1.
       22    1    1    2    0    0  0.19349952148E-01 -0.19981174630E-01  0.19467469829E-01  0.33950704989E-01  0.00000000000E+00 0.  1.
</event>
<event>
 5   0  0.6221259E+05  0.9118800E+02  0.7546771E-02  0.1180000E+00
      -11   -1    0    0    0    0  0.00000000000E+00  0.00000000000E+00  0.34996269501E-01  0.35000000000E-01  0.51099999109E-03 0.  1.
       11   -1    0    0    0    0 -0.00000000000E+00 -0.00000000000E+00 -0.34996269501E-01  0.35000000000E-01  0.51099999109E-03 0. -1.
       22    1    1    2    0    0  0.49805730381E-03 -0.36717971759E-02 -0.34802918101E-01  0.34999618054E-01  0.00000000000E+00 0. -1.
       22    1    1    2    0    0  0.38166949496E-05  0.22729503847E-05  0.10669441755E-04  0.11557268326E-04  0.00000000000E+00 0.  1.
       22    1    1    2    0    0 -0.50187399876E-03  0.36695242255E-02  0.34792248659E-01  0.34988824678E-01  0.00000000000E+00 0.  1.
</event>
<event>
 5   0  0.6221259E+05  0.9118800E+02  0.7546771E-02  0.1180000E+00
      -11   -1    0    0    0    0  0.00000000000E+00  0.00000000000E+00  0.34996269501E-01  0.35000000000E-01  0.51099999109E-03 0. -1.
       11   -1    0    0    0    0 -0.00000000000E+00 -0.00000000000E+00 -0.34996269501E-01  0.35000000000E-01  0.51099999109E-03 0.  1.
       22    1    1    2    0    0 -0.30193611105E-01  0.20238244226E-02 -0.17559584225E-01  0.34986983508E-01  0.00000000000E+00 0.  1.
       22    1    1    2    0    0  0.30164119112E-01 -0.20132536932E-02  0.17584091620E-01  0.34973240490E-01  0.00000000000E+00 0. -1.
       22    1    1    2    0    0  0.29491992465E-04 -0.10570729354E-04 -0.24507394909E-04  0.39776002110E-04  0.00000000000E+00 0.  1.
</event>
<event>
 5   0  0.6221259E+05  0.9118800E+02  0.7546771E-02  0.1180000E+00
      -11   -1    0    0    0    0  0.00000000000E+00  0.00000000000E+00  0.34996269501E-01  0.35000000000E-01  0.51099999109E-03 0. -1.
       11   -1    0    0    0    0 -0.00000000000E+00 -0.00000000000E+00 -0.34996269501E-01  0.35000000000E-01  0.51099999109E-03 0.  1.
       22    1    1    2    0    0  0.45279181331E-03 -0.12644549619E-02  0.33726328003E-01  0.33753060118E-01  0.00000000000E+00 0. -1.
       22    1    1    2    0    0  0.14009594708E-03 -0.10786323441E-03  0.12380535708E-02  0.12506150470E-02  0.00000000000E+00 0. -1.
       22    1    1    2    0    0 -0.59288776039E-03  0.13723181964E-02 -0.34964381574E-01  0.34996324835E-01  0.00000000000E+00 0.  1.
</event>
<event>
 5   0  0.6221259E+05  0.9118800E+02  0.7546771E-02  0.1180000E+00
      -11   -1    0    0    0    0  0.00000000000E+00  0.00000000000E+00  0.34996269501E-01  0.35000000000E-01  0.51099999109E-03 0. -1.
       11   -1    0    0    0    0 -0.00000000000E+00 -0.00000000000E+00 -0.34996269501E-01  0.35000000000E-01  0.51099999109E-03 0.  1.
       22    1    1    2    0    0  0.10523991954E-03  0.18488396492E-03 -0.19770469350E-02  0.19884597317E-02  0.00000000000E+00 0. -1.
       22    1    1    2    0    0 -0.20124346348E-01 -0.24413831149E-01 -0.11702953614E-01  0.33734012370E-01  0.00000000000E+00 0.  1.
       22    1    1    2    0    0  0.20019106428E-01  0.24228947184E-01  0.13680000549E-01  0.34277527899E-01  0.00000000000E+00 0. -1.
</event>
<event>
 5   0  0.6221259E+05  0.9118800E+02  0.7546771E-02  0.1180000E+00
      -11   -1    0    0    0    0  0.00000000000E+00  0.00000000000E+00  0.34996269501E-01  0.35000000000E-01  0.51099999109E-03 0. -1.
       11   -1    0    0    0    0 -0.00000000000E+00 -0.00000000000E+00 -0.34996269501E-01  0.35000000000E-01  0.51099999109E-03 0.  1.
       22    1    1    2    0    0  0.46064555740E-02 -0.12107310590E-01  0.32512997100E-01  0.34998591159E-01  0.00000000000E+00 0. -1.
       22    1    1    2    0    0  0.13121739723E-06 -0.42685767239E-08  0.14479108254E-05  0.14538507435E-05  0.00000000000E+00 0.  1.
       22    1    1    2    0    0 -0.46065867914E-02  0.12107314859E-01 -0.32514445011E-01  0.34999954990E-01  0.00000000000E+00 0.  1.
</event>
<event>
 5   0  0.6221259E+05  0.9118800E+02  0.7546771E-02  0.1180000E+00
      -11   -1    0    0    0    0  0.00000000000E+00  0.00000000000E+00  0.34996269501E-01  0.35000000000E-01  0.51099999109E-03 0.  1.
       11   -1    0    0    0    0 -0.00000000000E+00 -0.00000000000E+00 -0.34996269501E-01  0.35000000000E-01  0.51099999109E-03 0.  1.
       22    1    1    2    0    0  0.46660490912E-04  0.55005296166E-03  0.34994036516E-01  0.34998390351E-01  0.00000000000E+00 0.  1.
       22    1    1    2    0    0 -0.46843682748E-04 -0.55073322278E-03 -0.34995563447E-01  0.34999928034E-01  0.00000000000E+00 0.  1.
       22    1    1    2    0    0  0.18319183551E-06  0.68026112414E-06  0.15269303997E-05  0.16816155599E-05  0.00000000000E+00 0. -1.
</event>
<event>
 5   0  0.6221259E+05  0.9118800E+02  0.7546771E-02  0.1180000E+00
      -11   -1    0    0    0    0  0.00000000000E+00  0.00000000000E+00  0.34996269501E-01  0.35000000000E-01  0.51099999109E-03 0. -1.
       11   -1    0    0    0    0 -0.00000000000E+00 -0.00000000000E+00 -0.34996269501E-01  0.35000000000E-01  0.51099999109E-03 0.  1.
       22    1    1    2    0    0 -0.45483059785E-02  0.43790214493E-02  0.34425421943E-01  0.34999608456E-01  0.00000000000E+00 0. -1.
       22    1    1    2    0    0  0.45482852575E-02 -0.43790502681E-02 -0.34425815460E-01  0.34999996430E-01  0.00000000000E+00 0.  1.
       22    1    1    2    0    0  0.20720993768E-07  0.28818777787E-07  0.39351671384E-06  0.39511426905E-06  0.00000000000E+00 0.  1.
</event>
<event>
 5   0  0.6221259E+05  0.9118800E+02  0.7546771E-02  0.1180000E+00
      -11   -1    0    0    0    0  0.00000000000E+00  0.00000000000E+00  0.34996269501E-01  0.35000000000E-01  0.51099999109E-03 0. -1.
       11   -1    0    0    0    0 -0.00000000000E+00 -0.00000000000E+00 -0.34996269501E-01  0.35000000000E-01  0.51099999109E-03 0.  1.
       22    1    1    2    0    0 -0.14480956237E-06  0.22814086014E-06  0.77963432231E-06  0.82513498165E-06  0.00000000000E+00 0.  1.
       22    1    1    2    0    0 -0.83345947621E-02 -0.33732567476E-02 -0.33825326655E-01  0.34999957918E-01  0.00000000000E+00 0.  1.
       22    1    1    2    0    0  0.83347395717E-02  0.33730286068E-02  0.33824547021E-01  0.34999216947E-01  0.00000000000E+00 0. -1.
</event>
<event>
 5   0  0.6221259E+05  0.9118800E+02  0.7546771E-02  0.1180000E+00
      -11   -1    0    0    0    0  0.00000000000E+00  0.00000000000E+00  0.34996269501E-01  0.35000000000E-01  0.51099999109E-03 0. -1.
       11   -1    0    0    0    0 -0.00000000000E+00 -0.00000000000E+00 -0.34996269501E-01  0.35000000000E-01  0.51099999109E-03 0.  1.
       22    1    1    2    0    0 -0.23909207569E-07  0.13753263262E-07  0.17702980292E-07  0.32774959469E-07  0.00000000000E+00 0. -1.
       22    1    1    2    0    0  0.46980778391E-03 -0.10940283995E-02  0.34979717586E-01  0.34999975142E-01  0.00000000000E+00 0. -1.
       22    1    1    2    0    0 -0.46978387470E-03  0.10940146462E-02 -0.34979735289E-01  0.34999992083E-01  0.00000000000E+00 0.  1.
</event>
<event>
 5   0  0.6221259E+05  0.9118800E+02  0.7546771E-02  0.1180000E+00
      -11   -1    0    0    0    0  0.00000000000E+00  0.00000000000E+00  0.34996269501E-01  0.35000000000E-01  0.51099999109E-03 0. -1.
       11   -1    0    0    0    0 -0.00000000000E+00 -0.00000000000E+00 -0.34996269501E-01  0.35000000000E-01  0.51099999109E-03 0.  1.
       22    1    1    2    0    0 -0.14679742903E-04 -0.35805579808E-04  0.16518831978E-02  0.16523364165E-02  0.00000000000E+00 0. -1.
       22    1    1    2    0    0  0.46735872993E-02  0.52196090674E-02 -0.34277343586E-01  0.34986040365E-01  0.00000000000E+00 0.  1.
       22    1    1    2    0    0 -0.46589075564E-02 -0.51838034876E-02  0.32625460389E-01  0.33361623219E-01  0.00000000000E+00 0. -1.
</event>
<event>
 5   0  0.6221259E+05  0.9118800E+02  0.7546771E-02  0.1180000E+00
      -11   -1    0    0    0    0  0.00000000000E+00  0.00000000000E+00  0.34996269501E-01  0.35000000000E-01  0.51099999109E-03 0. -1.
       11   -1    0    0    0    0 -0.00000000000E+00 -0.00000000000E+00 -0.34996269501E-01  0.35000000000E-01  0.51099999109E-03 0.  1.
       22    1    1    2    0    0  0.60306505486E-02 -0.42904688430E-03 -0.26996016362E-02  0.66212292109E-02  0.00000000000E+00 0.  1.
       22    1    1    2    0    0 -0.12774389630E-01 -0.18902656273E-01  0.24495806950E-01  0.33474467924E-01  0.00000000000E+00 0. -1.
       22    1    1    2    0    0  0.67437390818E-02  0.19331703158E-01 -0.21796205314E-01  0.29904302866E-01  0.00000000000E+00 0.  1.
</event>
<event>
 5   0  0.6221259E+05  0.9118800E+02  0.7546771E-02  0.1180000E+00
      -11   -1    0    0    0    0  0.00000000000E+00  0.00000000000E+00  0.34996269501E-01  0.35000000000E-01  0.51099999109E-03 0.  1.
       11   -1    0    0    0    0 -0.00000000000E+00 -0.00000000000E+00 -0.34996269501E-01  0.35000000000E-01  0.51099999109E-03 0. -1.
       22    1    1    2    0    0  0.20278187614E-02 -0.30983034619E-03  0.34532876351E-01  0.34593750777E-01  0.00000000000E+00 0.  1.
       22    1    1    2    0    0 -0.18827314481E-02  0.20778096091E-03 -0.34924761050E-01  0.34976088761E-01  0.00000000000E+00 0. -1.
       22    1    1    2    0    0 -0.14508731329E-03  0.10204938528E-03  0.39188469918E-03  0.43016046188E-03  0.00000000000E+00 0. -1.
</event>
<event>
 5   0  0.6221259E+05  0.9118800E+02  0.7546771E-02  0.1180000E+00
      -11   -1    0    0    0    0  0.00000000000E+00  0.00000000000E+00  0.34996269501E-01  0.35000000000E-01  0.51099999109E-03 0.  1.
       11   -1    0    0    0    0 -0.00000000000E+00 -0.00000000000E+00 -0.34996269501E-01  0.35000000000E-01  0.51099999109E-03 0. -1.
       22    1    1    2    0    0  0.97200328678E-02  0.19336532268E-01  0.27156617693E-01  0.34725529566E-01  0.00000000000E+00 0.  1.
       22    1    1    2    0    0 -0.97059774718E-02 -0.19441714950E-01 -0.25035105782E-01  0.33150306189E-01  0.00000000000E+00 0. -1.
       22    1    1    2    0    0 -0.14055395990E-04  0.10518268235E-03 -0.21215119114E-02  0.21241642453E-02  0.00000000000E+00 0.  1.
</event>
<event>
 5   0  0.6221259E+05  0.9118800E+02  0.7546771E-02  0.1180000E+00
      -11   -1    0    0    0    0  0.00000000000E+00  0.00000000000E+00  0.34996269501E-01  0.35000000000E-01  0.51099999109E-03 0.  1.
       11   -1    0    0    0    0 -0.00000000000E+00 -0.00000000000E+00 -0.34996269501E-01  0.35000000000E-01  0.51099999109E-03 0. -1.
       22    1    1    2    0    0 -0.32446698734E-05 -0.83580939090E-05  0.71912640848E-05  0.11493471865E-04  0.00000000000E+00 0. -1.
       22    1    1    2    0    0  0.25721485125E-01  0.20773348718E-01 -0.11480877596E-01  0.34999105194E-01  0.00000000000E+00 0. -1.
       22    1    1    2    0    0 -0.25718240455E-01 -0.20764990624E-01  0.11473686332E-01  0.34989401335E-01  0.00000000000E+00 0.  1.
</event>
<event>
 5   0  0.6221259E+05  0.9118800E+02  0.7546771E-02  0.1180000E+00
      -11   -1    0    0    0    0  0.00000000000E+00  0.00000000000E+00  0.34996269501E-01  0.35000000000E-01  0.51099999109E-03 0. -1.
       11   -1    0    0    0    0 -0.00000000000E+00 -0.00000000000E+00 -0.34996269501E-01  0.35000000000E-01  0.51099999109E-03 0.  1.
       22    1    1    2    0    0  0.27407412594E-01  0.59300421811E-02 -0.20663268871E-01  0.34832489802E-01  0.00000000000E+00 0.  1.
       22    1    1    2    0    0 -0.27365272189E-01 -0.59255682536E-02  0.19775829034E-01  0.34279059133E-01  0.00000000000E+00 0. -1.
       22    1    1    2    0    0 -0.42140405621E-04 -0.44739275215E-05  0.88743983713E-03  0.88845106468E-03  0.00000000000E+00 0. -1.
</event>
<event>
 5   0  0.6221259E+05  0.9118800E+02  0.7546771E-02  0.1180000E+00
      -11   -1    0    0    0    0  0.00000000000E+00  0.00000000000E+00  0.34996269501E-01  0.35000000000E-01  0.51099999109E-03 0. -1.
       11   -1    0    0    0    0 -0.00000000000E+00 -0.00000000000E+00 -0.34996269501E-01  0.35000000000E-01  0.51099999109E-03 0.  1.
       22    1    1    2    0    0 -0.29938648356E-03  0.35236793602E-02  0.31711466440E-01  0.31908040558E-01  0.00000000000E+00 0. -1.
       22    1    1    2    0    0  0.25435202950E-02 -0.20989077407E-02 -0.34254706482E-01  0.34413076372E-01  0.00000000000E+00 0.  1.
       22    1    1    2    0    0 -0.22441338114E-02 -0.14247716195E-02  0.25432400419E-02  0.36788830699E-02  0.00000000000E+00 0.  1.
</event>
<event>
 5   0  0.6221259E+05  0.9118800E+02  0.7546771E-02  0.1180000E+00
      -11   -1    0    0    0    0  0.00000000000E+00  0.00000000000E+00  0.34996269501E-01  0.35000000000E-01  0.51099999109E-03 0.  1.
       11   -1    0    0    0    0 -0.00000000000E+00 -0.00000000000E+00 -0.34996269501E-01  0.35000000000E-01  0.51099999109E-03 0. -1.
       22    1    1    2    0    0 -0.63244897346E-04  0.82262942692E-03 -0.34990095458E-01  0.34999821418E-01  0.00000000000E+00 0. -1.
       22    1    1    2    0    0  0.38500912981E-05  0.16807254086E-05  0.27709890797E-04  0.28026524738E-04  0.00000000000E+00 0.  1.
       22    1    1    2    0    0  0.59394806048E-04 -0.82431015233E-03  0.34962385567E-01  0.34972152058E-01  0.00000000000E+00 0.  1.
</event>
<event>
 5   0  0.6221259E+05  0.9118800E+02  0.7546771E-02  0.1180000E+00
      -11   -1    0    0    0    0  0.00000000000E+00  0.00000000000E+00  0.34996269501E-01  0.35000000000E-01  0.51099999109E-03 0.  1.
       11   -1    0    0    0    0 -0.00000000000E+00 -0.00000000000E+00 -0.34996269501E-01  0.35000000000E-01  0.51099999109E-03 0. -1.
       22    1    1    2    0    0 -0.18346107385E-08 -0.12328039235E-08  0.51488612834E-08  0.56032467902E-08  0.00000000000E+00 0.  1.
       22    1    1    2    0    0  0.14524841173E-03 -0.92878712916E-02  0.33744836179E-01  0.34999994557E-01  0.00000000000E+00 0.  1.
       22    1    1    2    0    0 -0.14524657712E-03  0.92878725244E-02 -0.33744841328E-01  0.34999999840E-01  0.00000000000E+00 0. -1.
</event>
<event>
 5   0  0.6221259E+05  0.9118800E+02  0.7546771E-02  0.1180000E+00
      -11   -1    0    0    0    0  0.00000000000E+00  0.00000000000E+00  0.34996269501E-01  0.35000000000E-01  0.51099999109E-03 0. -1.
       11   -1    0    0    0    0 -0.00000000000E+00 -0.00000000000E+00 -0.34996269501E-01  0.35000000000E-01  0.51099999109E-03 0.  1.
       22    1    1    2    0    0 -0.61385229251E-08 -0.21133218007E-06  0.49990535875E-05  0.50035223335E-05  0.00000000000E+00 0. -1.
       22    1    1    2    0    0  0.10469940550E-01  0.39847260702E-02 -0.33158616485E-01  0.34999879203E-01  0.00000000000E+00 0.  1.
       22    1    1    2    0    0 -0.10469934412E-01 -0.39845147381E-02  0.33153617432E-01  0.34995117275E-01  0.00000000000E+00 0. -1.
</event>
<event>
 5   0  0.6221259E+05  0.9118800E+02  0.7546771E-02  0.1180000E+00
      -11   -1    0    0    0    0  0.00000000000E+00  0.00000000000E+00  0.34996269501E-01  0.35000000000E-01  0.51099999109E-03 0. -1.
       11   -1    0    0    0    0 -0.00000000000E+00 -0.00000000000E+00 -0.34996269501E-01  0.35000000000E-01  0.51099999109E-03 0. -1.
       22    1    1    2    0    0  0.26816037685E-03 -0.10002009745E-03  0.34998672065E-01  0.34999842290E-01  0.00000000000E+00 0. -1.
       22    1    1    2    0    0 -0.23140198533E-07 -0.28383907418E-07  0.15563575720E-06  0.15988622176E-06  0.00000000000E+00 0.  1.
       22    1    1    2    0    0 -0.26813723666E-03  0.10004848135E-03 -0.34998827701E-01  0.34999997824E-01  0.00000000000E+00 0. -1.
</event>
<event>
 5   0  0.6221259E+05  0.9118800E+02  0.7546771E-02  0.1180000E+00
      -11   -1    0    0    0    0  0.00000000000E+00  0.00000000000E+00  0.34996269501E-01  0.35000000000E-01  0.51099999109E-03 0. -1.
       11   -1    0    0    0    0 -0.00000000000E+00 -0.00000000000E+00 -0.34996269501E-01  0.35000000000E-01  0.51099999109E-03 0.  1.
       22    1    1    2    0    0  0.22325153629E-02 -0.94178204936E-02 -0.33619137283E-01  0.34984651768E-01  0.00000000000E+00 0.  1.
       22    1    1    2    0    0 -0.24224377442E-04 -0.36496568935E-04  0.35161418070E-04  0.56170680316E-04  0.00000000000E+00 0.  1.
       22    1    1    2    0    0 -0.22082909854E-02  0.94543170625E-02  0.33583975865E-01  0.34959177552E-01  0.00000000000E+00 0. -1.
</event>
<event>
 5   0  0.6221259E+05  0.9118800E+02  0.7546771E-02  0.1180000E+00
      -11   -1    0    0    0    0  0.00000000000E+00  0.00000000000E+00  0.34996269501E-01  0.35000000000E-01  0.51099999109E-03 0. -1.
       11   -1    0    0    0    0 -0.00000000000E+00 -0.00000000000E+00 -0.34996269501E-01  0.35000000000E-01  0.51099999109E-03 0.  1.
       22    1    1    2    0    0  0.52396771916E-02 -0.19421886527E-02 -0.34551028749E-01  0.34999998592E-01  0.00000000000E+00 0.  1.
       22    1    1    2    0    0  0.43064218594E-08  0.13933771587E-07  0.43310841012E-07  0.45700374277E-07  0.00000000000E+00 0. -1.
       22    1    1    2    0    0 -0.52396814980E-02  0.19421747190E-02  0.34550985438E-01  0.34999955708E-01  0.00000000000E+00 0. -1.
</event>
<event>
 5   0  0.6221259E+05  0.9118800E+02  0.7546771E-02  0.1180000E+00
      -11   -1    0    0    0    0  0.00000000000E+00  0.00000000000E+00  0.34996269501E-01  0.35000000000E-01  0.51099999109E-03 0. -1.
       11   -1    0    0    0    0 -0.00000000000E+00 -0.00000000000E+00 -0.34996269501E-01  0.35000000000E-01  0.51099999109E-03 0.  1.
       22    1    1    2    0    0 -0.47126523087E-03 -0.13191816135E-02 -0.34971953402E-01  0.34999997940E-01  0.00000000000E+00 0.  1.
       22    1    1    2    0    0  0.47126457715E-03  0.13191716303E-02  0.34971944525E-01  0.34999988685E-01  0.00000000000E+00 0. -1.
       22    1    1    2    0    0  0.65372175745E-09  0.99832544896E-08  0.88769440420E-08  0.13375083471E-07  0.00000000000E+00 0.  1.
</event>
<event>
 5   0  0.6221259E+05  0.9118800E+02  0.7546771E-02  0.1180000E+00
      -11   -1    0    0    0    0  0.00000000000E+00  0.00000000000E+00  0.34996269501E-01  0.35000000000E-01  0.51099999109E-03 0.  1.
       11   -1    0    0    0    0 -0.00000000000E+00 -0.00000000000E+00 -0.34996269501E-01  0.35000000000E-01  0.51099999109E-03 0.  1.
       22    1    1    2    0    0  0.43309608976E-04  0.37247330342E-03  0.34994865336E-01  0.34996874317E-01  0.00000000000E+00 0.  1.
       22    1    1    2    0    0 -0.42575309817E-04 -0.36692140596E-03 -0.34995536024E-01  0.34997485418E-01  0.00000000000E+00 0.  1.
       22    1    1    2    0    0 -0.73429915922E-06 -0.55518974575E-05  0.67068813765E-06  0.56402644629E-05  0.00000000000E+00 0.  1.
</event>
<event>
 5   0  0.6221259E+05  0.9118800E+02  0.7546771E-02  0.1180000E+00
      -11   -1    0    0    0    0  0.00000000000E+00  0.00000000000E+00  0.34996269501E-01  0.35000000000E-01  0.51099999109E-03 0. -1.
       11   -1    0    0    0    0 -0.00000000000E+00 -0.00000000000E+00 -0.34996269501E-01  0.35000000000E-01  0.51099999109E-03 0.  1.
       22    1    1    2    0    0  0.56267331501E-04  0.30020540813E-02 -0.31731577003E-01  0.31873319153E-01  0.00000000000E+00 0.  1.
       22    1    1    2    0    0  0.89587706056E-03 -0.46713982618E-02 -0.13852515932E-02  0.49541376045E-02  0.00000000000E+00 0.  1.
       22    1    1    2    0    0 -0.95214439207E-03  0.16693441805E-02  0.33116828596E-01  0.33172543243E-01  0.00000000000E+00 0. -1.
</event>
<event>
 5   0  0.6221259E+05  0.9118800E+02  0.7546771E-02  0.1180000E+00
      -11   -1    0    0    0    0  0.00000000000E+00  0.00000000000E+00  0.34996269501E-01  0.35000000000E-01  0.51099999109E-03 0.  1.
       11   -1    0    0    0    0 -0.00000000000E+00 -0.00000000000E+00 -0.34996269501E-01  0.35000000000E-01  0.51099999109E-03 0. -1.
       22    1    1    2    0    0  0.19586852701E-01 -0.56670848989E-03 -0.29000480820E-01  0.34999912072E-01  0.00000000000E+00 0. -1.
       22    1    1    2    0    0 -0.19586851256E-01  0.56674027195E-03  0.28999456090E-01  0.34999062704E-01  0.00000000000E+00 0.  1.
       22    1    1    2    0    0 -0.14454627975E-08 -0.31782050920E-07  0.10247304308E-05  0.10252241921E-05  0.00000000000E+00 0.  1.
</event>
<event>
 5   0  0.6221259E+05  0.9118800E+02  0.7546771E-02  0.1180000E+00
      -11   -1    0    0    0    0  0.00000000000E+00  0.00000000000E+00  0.34996269501E-01  0.35000000000E-01  0.51099999109E-03 0.  1.
       11   -1    0    0    0    0 -0.00000000000E+00 -0.00000000000E+00 -0.34996269501E-01  0.35000000000E-01  0.51099999109E-03 0. -1.
       22    1    1    2    0    0 -0.11690999416E-02  0.59692291974E-03 -0.34975363301E-01  0.34999987853E-01  0.00000000000E+00 0. -1.
       22    1    1    2    0    0  0.11686591130E-02 -0.59731703779E-03  0.34969109502E-01  0.34993730454E-01  0.00000000000E+00 0.  1.
       22    1    1    2    0    0  0.44082861198E-06  0.39411805136E-06  0.62537993828E-05  0.62816928947E-05  0.00000000000E+00 0. -1.
</event>
<event>
 5   0  0.6221259E+05  0.9118800E+02  0.7546771E-02  0.1180000E+00
      -11   -1    0    0    0    0  0.00000000000E+00  0.00000000000E+00  0.34996269501E-01  0.35000000000E-01  0.51099999109E-03 0. -1.
       11   -1    0    0    0    0 -0.00000000000E+00 -0.00000000000E+00 -0.34996269501E-01  0.35000000000E-01  0.51099999109E-03 0.  1.
       22    1    1    2    0    0 -0.54344011570E-02  0.20514703001E-01  0.27831607399E-01  0.34999773222E-01  0.00000000000E+00 0. -1.
       22    1    1    2    0    0  0.54343957507E-02 -0.20514697461E-01 -0.27831862260E-01  0.34999971799E-01  0.00000000000E+00 0.  1.
       22    1    1    2    0    0  0.54062712043E-08 -0.55407592614E-08  0.25486131303E-06  0.25497885532E-06  0.00000000000E+00 0. -1.
</event>
<event>
 5   0  0.6221259E+05  0.9118800E+02  0.7546771E-02  0.1180000E+00
      -11   -1    0    0    0    0  0.00000000000E+00  0.00000000000E+00  0.34996269501E-01  0.35000000000E-01  0.51099999109E-03 0. -1.
       11   -1    0    0    0    0 -0.00000000000E+00 -0.00000000000E+00 -0.34996269501E-01  0.35000000000E-01  0.51099999109E-03 0.  1.
       22    1    1    2    0    0  0.48220880537E-02 -0.87197484866E-02 -0.29871836508E-01  0.31489889857E-01  0.00000000000E+00 0.  1.
       22    1    1    2    0    0  0.28386343255E-02  0.23014687531E-02 -0.26326230891E-02  0.45039213564E-02  0.00000000000E+00 0. -1.
       22    1    1    2    0    0 -0.76607223792E-02  0.64182797335E-02  0.32504459597E-01  0.34006188787E-01  0.00000000000E+00 0. -1.
</event>
<event>
 5   0  0.6221259E+05  0.9118800E+02  0.7546771E-02  0.1180000E+00
      -11   -1    0    0    0    0  0.00000000000E+00  0.00000000000E+00  0.34996269501E-01  0.35000000000E-01  0.51099999109E-03 0.  1.
       11   -1    0    0    0    0 -0.00000000000E+00 -0.00000000000E+00 -0.34996269501E-01  0.35000000000E-01  0.51099999109E-03 0. -1.
       22    1    1    2    0    0 -0.35874761569E-02  0.55907082666E-03  0.34742361738E-01  0.34931565160E-01  0.00000000000E+00 0.  1.
       22    1    1    2    0    0  0.35231643025E-02 -0.58759678120E-03 -0.34796699040E-01  0.34979540031E-01  0.00000000000E+00 0. -1.
       22    1    1    2    0    0  0.64311854469E-04  0.28525954540E-04  0.54337302222E-04  0.88894809300E-04  0.00000000000E+00 0.  1.
</event>
<event>
 5   0  0.6221259E+05  0.9118800E+02  0.7546771E-02  0.1180000E+00
      -11   -1    0    0    0    0  0.00000000000E+00  0.00000000000E+00  0.34996269501E-01  0.35000000000E-01  0.51099999109E-03 0.  1.
       11   -1    0    0    0    0 -0.00000000000E+00 -0.00000000000E+00 -0.34996269501E-01  0.35000000000E-01  0.51099999109E-03 0. -1.
       22    1    1    2    0    0  0.68463730112E-02  0.26088616555E-01  0.22304905017E-01  0.34999964642E-01  0.00000000000E+00 0.  1.
       22    1    1    2    0    0 -0.68463713738E-02 -0.26088615057E-01 -0.22304949051E-01  0.34999991268E-01  0.00000000000E+00 0. -1.
       22    1    1    2    0    0 -0.16373973556E-08 -0.14980532355E-08  0.44034088852E-07  0.44089978619E-07  0.00000000000E+00 0. -1.
</event>
<event>
 5   0  0.6221259E+05  0.9118800E+02  0.7546771E-02  0.1180000E+00
      -11   -1    0    0    0    0  0.00000000000E+00  0.00000000000E+00  0.34996269501E-01  0.35000000000E-01  0.51099999109E-03 0. -1.
       11   -1    0    0    0    0 -0.00000000000E+00 -0.00000000000E+00 -0.34996269501E-01  0.35000000000E-01  0.51099999109E-03 0.  1.
       22    1    1    2    0    0  0.33244425355E-02  0.51647618185E-03  0.34643031467E-01  0.34806009467E-01  0.00000000000E+00 0. -1.
       22    1    1    2    0    0 -0.34006402255E-02 -0.47259876991E-03 -0.34823975861E-01  0.34992813524E-01  0.00000000000E+00 0.  1.
       22    1    1    2    0    0  0.76197689992E-04 -0.43877411939E-04  0.18094439408E-03  0.20117700909E-03  0.00000000000E+00 0. -1.
</event>
<event>
 5   0  0.6221259E+05  0.9118800E+02  0.7546771E-02  0.1180000E+00
      -11   -1    0    0    0    0  0.00000000000E+00  0.00000000000E+00  0.34996269501E-01  0.35000000000E-01  0.51099999109E-03 0. -1.
       11   -1    0    0    0    0 -0.00000000000E+00 -0.00000000000E+00 -0.34996269501E-01  0.35000000000E-01  0.51099999109E-03 0.  1.
       22    1    1    2    0    0 -0.19685136556E-01 -0.28148164542E-01 -0.65358102026E-02  0.34964847823E-01  0.00000000000E+00 0.  1.
       22    1    1    2    0    0  0.27087942714E-05 -0.34465150977E-05  0.84668243165E-04  0.84781645617E-04  0.00000000000E+00 0. -1.
       22    1    1    2    0    0  0.19682427762E-01  0.28151611057E-01  0.64511419594E-02  0.34950370531E-01  0.00000000000E+00 0. -1.
</event>
<event>
 5   0  0.6221259E+05  0.9118800E+02  0.7546771E-02  0.1180000E+00
      -11   -1    0    0    0    0  0.00000000000E+00  0.00000000000E+00  0.34996269501E-01  0.35000000000E-01  0.51099999109E-03 0. -1.
       11   -1    0    0    0    0 -0.00000000000E+00 -0.00000000000E+00 -0.34996269501E-01  0.35000000000E-01  0.51099999109E-03 0.  1.
       22    1    1    2    0    0 -0.47566441220E-02  0.28772911790E-02  0.28032747061E-01  0.28578652446E-01  0.00000000000E+00 0. -1.
       22    1    1    2    0    0 -0.29284712721E-03 -0.28060245679E-03  0.64557969876E-02  0.64685247100E-02  0.00000000000E+00 0. -1.
       22    1    1    2    0    0  0.50494912492E-02 -0.25966887222E-02 -0.34488544049E-01  0.34952822844E-01  0.00000000000E+00 0.  1.
</event>
<event>
 5   0  0.6221259E+05  0.9118800E+02  0.7546771E-02  0.1180000E+00
      -11   -1    0    0    0    0  0.00000000000E+00  0.00000000000E+00  0.34996269501E-01  0.35000000000E-01  0.51099999109E-03 0. -1.
       11   -1    0    0    0    0 -0.00000000000E+00 -0.00000000000E+00 -0.34996269501E-01  0.35000000000E-01  0.51099999109E-03 0.  1.
       22    1    1    2    0    0 -0.24144315620E-02 -0.17908449423E-02 -0.34793071142E-01  0.34922691833E-01  0.00000000000E+00 0.  1.
       22    1    1    2    0    0  0.66435346046E-03 -0.40152975339E-03  0.17387462477E-02  0.19041612792E-02  0.00000000000E+00 0. -1.
       22    1    1    2    0    0  0.17500781016E-02  0.21923746957E-02  0.33054324895E-01  0.33173146887E-01  0.00000000000E+00 0. -1.
</event>
<event>
 5   0  0.6221259E+05  0.9118800E+02  0.7546771E-02  0.1180000E+00
      -11   -1    0    0    0    0  0.00000000000E+00  0.00000000000E+00  0.34996269501E-01  0.35000000000E-01  0.51099999109E-03 0. -1.
       11   -1    0    0    0    0 -0.00000000000E+00 -0.00000000000E+00 -0.34996269501E-01  0.35000000000E-01  0.51099999109E-03 0.  1.
       22    1    1    2    0    0 -0.20190279936E-02  0.73547798637E-03  0.46644597204E-04  0.21493202706E-02  0.00000000000E+00 0. -1.
       22    1    1    2    0    0 -0.42490268781E-02  0.10655802581E-01 -0.31656654383E-01  0.33671117071E-01  0.00000000000E+00 0.  1.
       22    1    1    2    0    0  0.62680548716E-02 -0.11391280568E-01  0.31610009786E-01  0.34179562658E-01  0.00000000000E+00 0. -1.
</event>
<event>
 5   0  0.6221259E+05  0.9118800E+02  0.7546771E-02  0.1180000E+00
      -11   -1    0    0    0    0  0.00000000000E+00  0.00000000000E+00  0.34996269501E-01  0.35000000000E-01  0.51099999109E-03 0. -1.
       11   -1    0    0    0    0 -0.00000000000E+00 -0.00000000000E+00 -0.34996269501E-01  0.35000000000E-01  0.51099999109E-03 0.  1.
       22    1    1    2    0    0  0.11901525093E-01 -0.19040174443E-01  0.26844024318E-01  0.34996802482E-01  0.00000000000E+00 0. -1.
       22    1    1    2    0    0 -0.12785694684E-05  0.99444095728E-05  0.24880917467E-05  0.10330373768E-04  0.00000000000E+00 0.  1.
       22    1    1    2    0    0 -0.11900246523E-01  0.19030230033E-01 -0.26846512410E-01  0.34992867145E-01  0.00000000000E+00 0.  1.
</event>
<event>
 5   0  0.6221259E+05  0.9118800E+02  0.7546771E-02  0.1180000E+00
      -11   -1    0    0    0    0  0.00000000000E+00  0.00000000000E+00  0.34996269501E-01  0.35000000000E-01  0.51099999109E-03 0. -1.
       11   -1    0    0    0    0 -0.00000000000E+00 -0.00000000000E+00 -0.34996269501E-01  0.35000000000E-01  0.51099999109E-03 0.  1.
       22    1    1    2    0    0  0.74763712757E-09  0.94467967919E-10  0.30944687456E-07  0.30953861911E-07  0.00000000000E+00 0.  1.
       22    1    1    2    0    0  0.10993728730E-01 -0.22302181971E-02  0.33153611237E-01  0.34999969753E-01  0.00000000000E+00 0. -1.
       22    1    1    2    0    0 -0.10993729478E-01  0.22302181026E-02 -0.33153642182E-01  0.34999999294E-01  0.00000000000E+00 0.  1.
</event>
<event>
 5   0  0.6221259E+05  0.9118800E+02  0.7546771E-02  0.1180000E+00
      -11   -1    0    0    0    0  0.00000000000E+00  0.00000000000E+00  0.34996269501E-01  0.35000000000E-01  0.51099999109E-03 0.  1.
       11   -1    0    0    0    0 -0.00000000000E+00 -0.00000000000E+00 -0.34996269501E-01  0.35000000000E-01  0.51099999109E-03 0. -1.
       22    1    1    2    0    0  0.24008170863E-04 -0.18556029285E-04 -0.84830129054E-04  0.90093669514E-04  0.00000000000E+00 0. -1.
       22    1    1    2    0    0  0.41693741730E-02  0.17586349109E-01 -0.29880994893E-01  0.34921872970E-01  0.00000000000E+00 0. -1.
       22    1    1    2    0    0 -0.41933823439E-02 -0.17567793079E-01  0.29965825022E-01  0.34988033360E-01  0.00000000000E+00 0.  1.
</event>
<event>
 5   0  0.6221259E+05  0.9118800E+02  0.7546771E-02  0.1180000E+00
      -11   -1    0    0    0    0  0.00000000000E+00  0.00000000000E+00  0.34996269501E-01  0.35000000000E-01  0.51099999109E-03 0.  1.
       11   -1    0    0    0    0 -0.00000000000E+00 -0.00000000000E+00 -0.34996269501E-01  0.35000000000E-01  0.51099999109E-03 0. -1.
       22    1    1    2    0    0  0.58963418751E-02  0.24594994513E-02  0.34350783640E-01  0.34939838605E-01  0.00000000000E+00 0.  1.
       22    1    1    2    0    0 -0.59126957071E-02 -0.24260738744E-02 -0.34405461562E-01  0.34994022207E-01  0.00000000000E+00 0. -1.
       22    1    1    2    0    0  0.16353832019E-04 -0.33425576917E-04  0.54677922122E-04  0.66139187941E-04  0.00000000000E+00 0.  1.
</event>
<event>
 5   0  0.6221259E+05  0.9118800E+02  0.7546771E-02  0.1180000E+00
      -11   -1    0    0    0    0  0.00000000000E+00  0.00000000000E+00  0.34996269501E-01  0.35000000000E-01  0.51099999109E-03 0.  1.
       11   -1    0    0    0    0 -0.00000000000E+00 -0.00000000000E+00 -0.34996269501E-01  0.35000000000E-01  0.51099999109E-03 0. -1.
       22    1    1    2    0    0 -0.56166158055E-05  0.69685524408E-05  0.12412934808E-03  0.12445160565E-03  0.00000000000E+00 0.  1.
       22    1    1    2    0    0 -0.23060542593E-02 -0.63858884323E-02  0.34210109412E-01  0.34877342836E-01  0.00000000000E+00 0.  1.
       22    1    1    2    0    0  0.23116708751E-02  0.63789198798E-02 -0.34334238760E-01  0.34998205558E-01  0.00000000000E+00 0. -1.
</event>
<event>
 5   0  0.6221259E+05  0.9118800E+02  0.7546771E-02  0.1180000E+00
      -11   -1    0    0    0    0  0.00000000000E+00  0.00000000000E+00  0.34996269501E-01  0.35000000000E-01  0.51099999109E-03 0.  1.
       11   -1    0    0    0    0 -0.00000000000E+00 -0.00000000000E+00 -0.34996269501E-01  0.35000000000E-01  0.51099999109E-03 0. -1.
       22    1    1    2    0    0  0.58316320037E-02  0.36128273652E-02  0.34312344902E-01  0.34991391314E-01  0.00000000000E+00 0.  1.
       22    1    1    2    0    0 -0.58302562858E-02 -0.36131911689E-02 -0.34321076512E-01  0.34999761881E-01  0.00000000000E+00 0. -1.
       22    1    1    2    0    0 -0.13757179355E-05  0.36380368978E-06  0.87316100806E-05  0.88468055004E-05  0.00000000000E+00 0. -1.
</event>
<event>
 5   0  0.6221259E+05  0.9118800E+02  0.7546771E-02  0.1180000E+00
      -11   -1    0    0    0    0  0.00000000000E+00  0.00000000000E+00  0.34996269501E-01  0.35000000000E-01  0.51099999109E-03 0. -1.
       11   -1    0    0    0    0 -0.00000000000E+00 -0.00000000000E+00 -0.34996269501E-01  0.35000000000E-01  0.51099999109E-03 0.  1.
       22    1    1    2    0    0  0.89686086592E-03  0.88092512710E-03 -0.34977388654E-01  0.34999972936E-01  0.00000000000E+00 0.  1.
       22    1    1    2    0    0 -0.89704300297E-03 -0.88095934867E-03  0.34977057935E-01  0.34999647960E-01  0.00000000000E+00 0. -1.
       22    1    1    2    0    0  0.18213705533E-06  0.34221564984E-07  0.33071905725E-06  0.37910436197E-06  0.00000000000E+00 0. -1.
</event>
<event>
 5   0  0.6221259E+05  0.9118800E+02  0.7546771E-02  0.1180000E+00
      -11   -1    0    0    0    0  0.00000000000E+00  0.00000000000E+00  0.34996269501E-01  0.35000000000E-01  0.51099999109E-03 0.  1.
       11   -1    0    0    0    0 -0.00000000000E+00 -0.00000000000E+00 -0.34996269501E-01  0.35000000000E-01  0.51099999109E-03 0. -1.
       22    1    1    2    0    0  0.28146300234E-01 -0.36627854521E-02  0.20478256970E-01  0.34999846038E-01  0.00000000000E+00 0.  1.
       22    1    1    2    0    0 -0.30385293825E-07  0.57644109786E-07  0.20717043084E-06  0.21717664904E-06  0.00000000000E+00 0. -1.
       22    1    1    2    0    0 -0.28146269849E-01  0.36627278080E-02 -0.20478464141E-01  0.34999936785E-01  0.00000000000E+00 0. -1.
</event>
<event>
 5   0  0.6221259E+05  0.9118800E+02  0.7546771E-02  0.1180000E+00
      -11   -1    0    0    0    0  0.00000000000E+00  0.00000000000E+00  0.34996269501E-01  0.35000000000E-01  0.51099999109E-03 0. -1.
       11   -1    0    0    0    0 -0.00000000000E+00 -0.00000000000E+00 -0.34996269501E-01  0.35000000000E-01  0.51099999109E-03 0.  1.
       22    1    1    2    0    0 -0.87285248092E-04  0.33839479418E-03  0.34965822535E-01  0.34967568907E-01  0.00000000000E+00 0. -1.
       22    1    1    2    0    0 -0.86854599717E-06 -0.93051069771E-04 -0.33146562364E-04  0.98782339283E-04  0.00000000000E+00 0.  1.
       22    1    1    2    0    0  0.88153794089E-04 -0.24534372441E-03 -0.34932675972E-01  0.34933648753E-01  0.00000000000E+00 0.  1.
</event>
<event>
 5   0  0.6221259E+05  0.9118800E+02  0.7546771E-02  0.1180000E+00
      -11   -1    0    0    0    0  0.00000000000E+00  0.00000000000E+00  0.34996269501E-01  0.35000000000E-01  0.51099999109E-03 0.  1.
       11   -1    0    0    0    0 -0.00000000000E+00 -0.00000000000E+00 -0.34996269501E-01  0.35000000000E-01  0.51099999109E-03 0. -1.
       22    1    1    2    0    0 -0.29475691297E-02 -0.13985967996E-04 -0.60124899527E-02  0.66961477592E-02  0.00000000000E+00 0. -1.
       22    1    1    2    0    0 -0.11003685879E-02 -0.30748252827E-03 -0.28515260865E-01  0.28538140422E-01  0.00000000000E+00 0. -1.
       22    1    1    2    0    0  0.40479377175E-02  0.32146849626E-03  0.34527750818E-01  0.34765711819E-01  0.00000000000E+00 0.  1.
</event>
<event>
 5   0  0.6221259E+05  0.9118800E+02  0.7546771E-02  0.1180000E+00
      -11   -1    0    0    0    0  0.00000000000E+00  0.00000000000E+00  0.34996269501E-01  0.35000000000E-01  0.51099999109E-03 0. -1.
       11   -1    0    0    0    0 -0.00000000000E+00 -0.00000000000E+00 -0.34996269501E-01  0.35000000000E-01  0.51099999109E-03 0.  1.
       22    1    1    2    0    0  0.44459050031E-02  0.56482173797E-02  0.33500636734E-01  0.34263115626E-01  0.00000000000E+00 0. -1.
       22    1    1    2    0    0 -0.40646981090E-02 -0.54787545021E-02 -0.34226466879E-01  0.34899707114E-01  0.00000000000E+00 0.  1.
       22    1    1    2    0    0 -0.38120689404E-03 -0.16946287767E-03  0.72583014576E-03  0.83717725929E-03  0.00000000000E+00 0.  1.
</event>
<event>
 5   0  0.6221259E+05  0.9118800E+02  0.7546771E-02  0.1180000E+00
      -11   -1    0    0    0    0  0.00000000000E+00  0.00000000000E+00  0.34996269501E-01  0.35000000000E-01  0.51099999109E-03 0. -1.
       11   -1    0    0    0    0 -0.00000000000E+00 -0.00000000000E+00 -0.34996269501E-01  0.35000000000E-01  0.51099999109E-03 0.  1.
       22    1    1    2    0    0  0.90935339520E-02  0.28167575938E-02 -0.13726077895E-01  0.16704241900E-01  0.00000000000E+00 0.  1.
       22    1    1    2    0    0 -0.13312211382E-01  0.67646433331E-03 -0.17272113383E-01  0.21817389317E-01  0.00000000000E+00 0. -1.
       22    1    1    2    0    0  0.42186774303E-02 -0.34932219271E-02  0.30998191278E-01  0.31478368783E-01  0.00000000000E+00 0. -1.
</event>
<event>
 5   0  0.6221259E+05  0.9118800E+02  0.7546771E-02  0.1180000E+00
      -11   -1    0    0    0    0  0.00000000000E+00  0.00000000000E+00  0.34996269501E-01  0.35000000000E-01  0.51099999109E-03 0.  1.
       11   -1    0    0    0    0 -0.00000000000E+00 -0.00000000000E+00 -0.34996269501E-01  0.35000000000E-01  0.51099999109E-03 0. -1.
       22    1    1    2    0    0 -0.39131405973E-03  0.63711576146E-03 -0.13730498443E-01  0.13750841090E-01  0.00000000000E+00 0.  1.
       22    1    1    2    0    0 -0.29796620712E-03  0.10649044112E-02  0.34941412634E-01  0.34958906192E-01  0.00000000000E+00 0.  1.
       22    1    1    2    0    0  0.68928026684E-03 -0.17020201727E-02 -0.21210914192E-01  0.21290252718E-01  0.00000000000E+00 0. -1.
</event>
<event>
 5   0  0.6221259E+05  0.9118800E+02  0.7546771E-02  0.1180000E+00
      -11   -1    0    0    0    0  0.00000000000E+00  0.00000000000E+00  0.34996269501E-01  0.35000000000E-01  0.51099999109E-03 0.  1.
       11   -1    0    0    0    0 -0.00000000000E+00 -0.00000000000E+00 -0.34996269501E-01  0.35000000000E-01  0.51099999109E-03 0. -1.
       22    1    1    2    0    0 -0.27054460998E-02 -0.13139694277E-02 -0.34870302086E-01  0.34999770311E-01  0.00000000000E+00 0. -1.
       22    1    1    2    0    0 -0.23116433530E-05  0.15734758056E-05  0.78032497995E-04  0.78082586180E-04  0.00000000000E+00 0.  1.
       22    1    1    2    0    0  0.27077577431E-02  0.13123959519E-02  0.34792269588E-01  0.34922147102E-01  0.00000000000E+00 0.  1.
</event>
<event>
 5   0  0.6221259E+05  0.9118800E+02  0.7546771E-02  0.1180000E+00
      -11   -1    0    0    0    0  0.00000000000E+00  0.00000000000E+00  0.34996269501E-01  0.35000000000E-01  0.51099999109E-03 0. -1.
       11   -1    0    0    0    0 -0.00000000000E+00 -0.00000000000E+00 -0.34996269501E-01  0.35000000000E-01  0.51099999109E-03 0.  1.
       22    1    1    2    0    0 -0.10922855829E-02 -0.14692823360E-02 -0.34952077535E-01  0.34999994319E-01  0.00000000000E+00 0.  1.
       22    1    1    2    0    0  0.44711632134E-06  0.83315875275E-07  0.16450102917E-04  0.16456389049E-04  0.00000000000E+00 0.  1.
       22    1    1    2    0    0  0.10918384666E-02  0.14691990202E-02  0.34935627432E-01  0.34983549292E-01  0.00000000000E+00 0. -1.
</event>
<event>
 5   0  0.6221259E+05  0.9118800E+02  0.7546771E-02  0.1180000E+00
      -11   -1    0    0    0    0  0.00000000000E+00  0.00000000000E+00  0.34996269501E-01  0.35000000000E-01  0.51099999109E-03 0. -1.
       11   -1    0    0    0    0 -0.00000000000E+00 -0.00000000000E+00 -0.34996269501E-01  0.35000000000E-01  0.51099999109E-03 0.  1.
       22    1    1    2    0    0 -0.11622867957E-02  0.21222491702E-02 -0.34889809793E-01  0.34973614047E-01  0.00000000000E+00 0.  1.
       22    1    1    2    0    0  0.11435915761E-02 -0.20990607827E-02  0.34909136070E-01  0.34990879369E-01  0.00000000000E+00 0. -1.
       22    1    1    2    0    0  0.18695219569E-04 -0.23188387448E-04 -0.19326276655E-04  0.35506584129E-04  0.00000000000E+00 0.  1.
</event>
<event>
 5   0  0.6221259E+05  0.9118800E+02  0.7546771E-02  0.1180000E+00
      -11   -1    0    0    0    0  0.00000000000E+00  0.00000000000E+00  0.34996269501E-01  0.35000000000E-01  0.51099999109E-03 0.  1.
       11   -1    0    0    0    0 -0.00000000000E+00 -0.00000000000E+00 -0.34996269501E-01  0.35000000000E-01  0.51099999109E-03 0. -1.
       22    1    1    2    0    0 -0.30342297759E-01  0.16776977390E-01  0.46707478166E-02  0.34984823693E-01  0.00000000000E+00 0.  1.
       22    1    1    2    0    0  0.77796371150E-05 -0.16653076016E-04  0.35840706389E-04  0.40279075571E-04  0.00000000000E+00 0.  1.
       22    1    1    2    0    0  0.30334518122E-01 -0.16760324314E-01 -0.47065885230E-02  0.34974897231E-01  0.00000000000E+00 0. -1.
</event>
<event>
 5   0  0.6221259E+05  0.9118800E+02  0.7546771E-02  0.1180000E+00
      -11   -1    0    0    0    0  0.00000000000E+00  0.00000000000E+00  0.34996269501E-01  0.35000000000E-01  0.51099999109E-03 0.  1.
       11   -1    0    0    0    0 -0.00000000000E+00 -0.00000000000E+00 -0.34996269501E-01  0.35000000000E-01  0.51099999109E-03 0. -1.
       22    1    1    2    0    0 -0.70709676197E-02  0.69696639648E-03  0.33615688399E-01  0.34358388376E-01  0.00000000000E+00 0.  1.
       22    1    1    2    0    0  0.30427878969E-03 -0.12360337479E-03 -0.23232752824E-01  0.23235074072E-01  0.00000000000E+00 0. -1.
       22    1    1    2    0    0  0.67666888300E-02 -0.57336302169E-03 -0.10382935575E-01  0.12406537552E-01  0.00000000000E+00 0. -1.
</event>
<event>
 5   0  0.6221259E+05  0.9118800E+02  0.7546771E-02  0.1180000E+00
      -11   -1    0    0    0    0  0.00000000000E+00  0.00000000000E+00  0.34996269501E-01  0.35000000000E-01  0.51099999109E-03 0. -1.
       11   -1    0    0    0    0 -0.00000000000E+00 -0.00000000000E+00 -0.34996269501E-01  0.35000000000E-01  0.51099999109E-03 0.  1.
       22    1    1    2    0    0 -0.48335302973E-02 -0.59224023049E-03 -0.34659575623E-01  0.34999999229E-01  0.00000000000E+00 0.  1.
       22    1    1    2    0    0  0.85639564612E-08 -0.85728625905E-08  0.31097244732E-07  0.33374750234E-07  0.00000000000E+00 0. -1.
       22    1    1    2    0    0  0.48335217334E-02  0.59224880335E-03  0.34659544526E-01  0.34999967396E-01  0.00000000000E+00 0. -1.
</event>
<event>
 5   0  0.6221259E+05  0.9118800E+02  0.7546771E-02  0.1180000E+00
      -11   -1    0    0    0    0  0.00000000000E+00  0.00000000000E+00  0.34996269501E-01  0.35000000000E-01  0.51099999109E-03 0. -1.
       11   -1    0    0    0    0 -0.00000000000E+00 -0.00000000000E+00 -0.34996269501E-01  0.35000000000E-01  0.51099999109E-03 0.  1.
       22    1    1    2    0    0  0.93294282483E-04  0.17453161594E-02 -0.34932884436E-01  0.34976581412E-01  0.00000000000E+00 0.  1.
       22    1    1    2    0    0 -0.56575728235E-05 -0.49291688225E-04  0.34007923847E-06  0.49616472187E-04  0.00000000000E+00 0.  1.
       22    1    1    2    0    0 -0.87636709659E-04 -0.16960244712E-02  0.34932544356E-01  0.34973802115E-01  0.00000000000E+00 0. -1.
</event>
<event>
 5   0  0.6221259E+05  0.9118800E+02  0.7546771E-02  0.1180000E+00
      -11   -1    0    0    0    0  0.00000000000E+00  0.00000000000E+00  0.34996269501E-01  0.35000000000E-01  0.51099999109E-03 0. -1.
       11   -1    0    0    0    0 -0.00000000000E+00 -0.00000000000E+00 -0.34996269501E-01  0.35000000000E-01  0.51099999109E-03 0.  1.
       22    1    1    2    0    0 -0.10479101575E-06  0.16683607629E-06  0.33548977017E-06  0.38906145945E-06  0.00000000000E+00 0.  1.
       22    1    1    2    0    0  0.77130834204E-02 -0.20622316408E-02  0.34076849143E-01  0.34999658609E-01  0.00000000000E+00 0. -1.
       22    1    1    2    0    0 -0.77129786294E-02  0.20620648048E-02 -0.34077184633E-01  0.34999952330E-01  0.00000000000E+00 0.  1.
</event>
<event>
 5   0  0.6221259E+05  0.9118800E+02  0.7546771E-02  0.1180000E+00
      -11   -1    0    0    0    0  0.00000000000E+00  0.00000000000E+00  0.34996269501E-01  0.35000000000E-01  0.51099999109E-03 0.  1.
       11   -1    0    0    0    0 -0.00000000000E+00 -0.00000000000E+00 -0.34996269501E-01  0.35000000000E-01  0.51099999109E-03 0. -1.
       22    1    1    2    0    0 -0.93889520720E-02  0.24254756214E-01  0.13193345961E-01  0.29163504550E-01  0.00000000000E+00 0.  1.
       22    1    1    2    0    0  0.94268995628E-02 -0.23497690800E-01 -0.21060721345E-01  0.32932687286E-01  0.00000000000E+00 0. -1.
       22    1    1    2    0    0 -0.37947490772E-04 -0.75706541406E-03  0.78673753842E-02  0.79038081637E-02  0.00000000000E+00 0. -1.
</event>
<event>
 5   0  0.6221259E+05  0.9118800E+02  0.7546771E-02  0.1180000E+00
      -11   -1    0    0    0    0  0.00000000000E+00  0.00000000000E+00  0.34996269501E-01  0.35000000000E-01  0.51099999109E-03 0.  1.
       11   -1    0    0    0    0 -0.00000000000E+00 -0.00000000000E+00 -0.34996269501E-01  0.35000000000E-01  0.51099999109E-03 0. -1.
       22    1    1    2    0    0 -0.26215044120E-02  0.15350148775E-01  0.31327170293E-01  0.34984152860E-01  0.00000000000E+00 0.  1.
       22    1    1    2    0    0  0.26281532485E-02 -0.15303053309E-01 -0.31331697484E-01  0.34968069682E-01  0.00000000000E+00 0. -1.
       22    1    1    2    0    0 -0.66488364958E-05 -0.47095466483E-04  0.45271910359E-05  0.47777457537E-04  0.00000000000E+00 0.  1.
</event>
<event>
 5   0  0.6221259E+05  0.9118800E+02  0.7546771E-02  0.1180000E+00
      -11   -1    0    0    0    0  0.00000000000E+00  0.00000000000E+00  0.34996269501E-01  0.35000000000E-01  0.51099999109E-03 0. -1.
       11   -1    0    0    0    0 -0.00000000000E+00 -0.00000000000E+00 -0.34996269501E-01  0.35000000000E-01  0.51099999109E-03 0. -1.
       22    1    1    2    0    0  0.54805579330E-12 -0.53157034148E-11 -0.35003544960E-01  0.34999997194E-01  0.00000000000E+00 0. -1.
       22    1    1    2    0    0 -0.52709755861E-08  0.51124252795E-07  0.35003313444E-01  0.34999765655E-01  0.00000000000E+00 0. -1.
       22    1    1    2    0    0  0.52704275303E-08 -0.51118937092E-07  0.23151571916E-06  0.23715069335E-06  0.00000000000E+00 0. -1.
</event>
<event>
 5   0  0.6221259E+05  0.9118800E+02  0.7546771E-02  0.1180000E+00
      -11   -1    0    0    0    0  0.00000000000E+00  0.00000000000E+00  0.34996269501E-01  0.35000000000E-01  0.51099999109E-03 0.  1.
       11   -1    0    0    0    0 -0.00000000000E+00 -0.00000000000E+00 -0.34996269501E-01  0.35000000000E-01  0.51099999109E-03 0.  1.
       22    1    1    2    0    0 -0.61339001736E-09  0.28405368214E-08  0.22961307909E-08  0.37036621547E-08  0.00000000000E+00 0. -1.
       22    1    1    2    0    0  0.22378111156E-03 -0.45671706938E-03 -0.34996303858E-01  0.34999999317E-01  0.00000000000E+00 0.  1.
       22    1    1    2    0    0 -0.22378049817E-03  0.45671422884E-03  0.34996301561E-01  0.34999996980E-01  0.00000000000E+00 0.  1.
</event>
<event>
 5   0  0.6221259E+05  0.9118800E+02  0.7546771E-02  0.1180000E+00
      -11   -1    0    0    0    0  0.00000000000E+00  0.00000000000E+00  0.34996269501E-01  0.35000000000E-01  0.51099999109E-03 0. -1.
       11   -1    0    0    0    0 -0.00000000000E+00 -0.00000000000E+00 -0.34996269501E-01  0.35000000000E-01  0.51099999109E-03 0.  1.
       22    1    1    2    0    0 -0.49269056283E-10  0.42871934922E-09  0.36172298252E-08  0.36428806360E-08  0.00000000000E+00 0.  1.
       22    1    1    2    0    0 -0.92801835963E-03  0.14616115536E-02  0.34957148324E-01  0.34999996363E-01  0.00000000000E+00 0. -1.
       22    1    1    2    0    0  0.92801840890E-03 -0.14616119823E-02 -0.34957151942E-01  0.34999999995E-01  0.00000000000E+00 0.  1.
</event>
<event>
 5   0  0.6221259E+05  0.9118800E+02  0.7546771E-02  0.1180000E+00
      -11   -1    0    0    0    0  0.00000000000E+00  0.00000000000E+00  0.34996269501E-01  0.35000000000E-01  0.51099999109E-03 0. -1.
       11   -1    0    0    0    0 -0.00000000000E+00 -0.00000000000E+00 -0.34996269501E-01  0.35000000000E-01  0.51099999109E-03 0.  1.
       22    1    1    2    0    0  0.91361698832E-03 -0.15796720581E-03 -0.32175291017E-01  0.32188647093E-01  0.00000000000E+00 0.  1.
       22    1    1    2    0    0 -0.22181058496E-03 -0.69822488736E-03 -0.27616012040E-02  0.28571242778E-02  0.00000000000E+00 0. -1.
       22    1    1    2    0    0 -0.69180640337E-03  0.85619209317E-03  0.34936892221E-01  0.34954228629E-01  0.00000000000E+00 0. -1.
</event>
<event>
 5   0  0.6221259E+05  0.9118800E+02  0.7546771E-02  0.1180000E+00
      -11   -1    0    0    0    0  0.00000000000E+00  0.00000000000E+00  0.34996269501E-01  0.35000000000E-01  0.51099999109E-03 0.  1.
       11   -1    0    0    0    0 -0.00000000000E+00 -0.00000000000E+00 -0.34996269501E-01  0.35000000000E-01  0.51099999109E-03 0.  1.
       22    1    1    2    0    0  0.98398281802E-04 -0.42396280926E-03 -0.34997293785E-01  0.34999999985E-01  0.00000000000E+00 0.  1.
       22    1    1    2    0    0 -0.98398395166E-04  0.42396404111E-03  0.34997205141E-01  0.34999911364E-01  0.00000000000E+00 0.  1.
       22    1    1    2    0    0  0.11336371306E-09 -0.12318533061E-08  0.88643031165E-07  0.88651662636E-07  0.00000000000E+00 0.  1.
</event>
<event>
 5   0  0.6221259E+05  0.9118800E+02  0.7546771E-02  0.1180000E+00
      -11   -1    0    0    0    0  0.00000000000E+00  0.00000000000E+00  0.34996269501E-01  0.35000000000E-01  0.51099999109E-03 0. -1.
       11   -1    0    0    0    0 -0.00000000000E+00 -0.00000000000E+00 -0.34996269501E-01  0.35000000000E-01  0.51099999109E-03 0.  1.
       22    1    1    2    0    0 -0.13847577803E-02  0.14018990789E-02 -0.24339796897E-01  0.24419430545E-01  0.00000000000E+00 0.  1.
       22    1    1    2    0    0 -0.22598203490E-04  0.18532970270E-03 -0.10587383409E-01  0.10589029475E-01  0.00000000000E+00 0.  1.
       22    1    1    2    0    0  0.14073559838E-02 -0.15872287816E-02  0.34927180306E-01  0.34991539980E-01  0.00000000000E+00 0. -1.
</event>
<event>
 5   0  0.6221259E+05  0.9118800E+02  0.7546771E-02  0.1180000E+00
      -11   -1    0    0    0    0  0.00000000000E+00  0.00000000000E+00  0.34996269501E-01  0.35000000000E-01  0.51099999109E-03 0.  1.
       11   -1    0    0    0    0 -0.00000000000E+00 -0.00000000000E+00 -0.34996269501E-01  0.35000000000E-01  0.51099999109E-03 0. -1.
       22    1    1    2    0    0  0.16291954292E-01 -0.11895044250E-01  0.28546835848E-01  0.34954852156E-01  0.00000000000E+00 0.  1.
       22    1    1    2    0    0 -0.16292553116E-01  0.11891247387E-01 -0.28597008908E-01  0.34994827760E-01  0.00000000000E+00 0. -1.
       22    1    1    2    0    0  0.59882417644E-06  0.37968635301E-05  0.50173060971E-04  0.50320083568E-04  0.00000000000E+00 0.  1.
</event>
<event>
 5   0  0.6221259E+05  0.9118800E+02  0.7546771E-02  0.1180000E+00
      -11   -1    0    0    0    0  0.00000000000E+00  0.00000000000E+00  0.34996269501E-01  0.35000000000E-01  0.51099999109E-03 0.  1.
       11   -1    0    0    0    0 -0.00000000000E+00 -0.00000000000E+00 -0.34996269501E-01  0.35000000000E-01  0.51099999109E-03 0. -1.
       22    1    1    2    0    0 -0.47270974013E-03 -0.14876289829E-02  0.34962636664E-01  0.34997463580E-01  0.00000000000E+00 0.  1.
       22    1    1    2    0    0 -0.22803958125E-06 -0.72966677900E-07  0.25289331917E-05  0.25402419717E-05  0.00000000000E+00 0. -1.
       22    1    1    2    0    0  0.47293777971E-03  0.14877019495E-02 -0.34965165597E-01  0.34999996178E-01  0.00000000000E+00 0. -1.
</event>
<event>
 5   0  0.6221259E+05  0.9118800E+02  0.7546771E-02  0.1180000E+00
      -11   -1    0    0    0    0  0.00000000000E+00  0.00000000000E+00  0.34996269501E-01  0.35000000000E-01  0.51099999109E-03 0. -1.
       11   -1    0    0    0    0 -0.00000000000E+00 -0.00000000000E+00 -0.34996269501E-01  0.35000000000E-01  0.51099999109E-03 0. -1.
       22    1    1    2    0    0  0.51495373763E-03  0.10703681270E-02 -0.24840391217E-02  0.27534188997E-02  0.00000000000E+00 0. -1.
       22    1    1    2    0    0 -0.00000000000E+00 -0.00000000000E+00  0.34855485660E-01  0.34853350075E-01  0.00000000000E+00 0. -1.
       22    1    1    2    0    0 -0.51495373763E-03 -0.10703681270E-02 -0.32371446538E-01  0.32393231025E-01  0.00000000000E+00 0. -1.
</event>
<event>
 5   0  0.6221259E+05  0.9118800E+02  0.7546771E-02  0.1180000E+00
      -11   -1    0    0    0    0  0.00000000000E+00  0.00000000000E+00  0.34996269501E-01  0.35000000000E-01  0.51099999109E-03 0. -1.
       11   -1    0    0    0    0 -0.00000000000E+00 -0.00000000000E+00 -0.34996269501E-01  0.35000000000E-01  0.51099999109E-03 0.  1.
       22    1    1    2    0    0  0.13393714468E-08 -0.26588396374E-08  0.38390829080E-07  0.38506091746E-07  0.00000000000E+00 0. -1.
       22    1    1    2    0    0  0.11750331193E-02 -0.10882368125E-01 -0.33244447043E-01  0.34999998544E-01  0.00000000000E+00 0.  1.
       22    1    1    2    0    0 -0.11750344586E-02  0.10882370784E-01  0.33244408652E-01  0.34999962950E-01  0.00000000000E+00 0. -1.
</event>
<event>
 5   0  0.6221259E+05  0.9118800E+02  0.7546771E-02  0.1180000E+00
      -11   -1    0    0    0    0  0.00000000000E+00  0.00000000000E+00  0.34996269501E-01  0.35000000000E-01  0.51099999109E-03 0.  1.
       11   -1    0    0    0    0 -0.00000000000E+00 -0.00000000000E+00 -0.34996269501E-01  0.35000000000E-01  0.51099999109E-03 0.  1.
       22    1    1    2    0    0 -0.43040031415E-03  0.68037978310E-03 -0.34990559836E-01  0.34999820553E-01  0.00000000000E+00 0.  1.
       22    1    1    2    0    0  0.42944736642E-03 -0.67942380585E-03  0.34988409847E-01  0.34997640854E-01  0.00000000000E+00 0.  1.
       22    1    1    2    0    0  0.95294773670E-06 -0.95597724132E-06  0.21499889476E-05  0.25385929862E-05  0.00000000000E+00 0. -1.
</event>
<event>
 5   0  0.6221259E+05  0.9118800E+02  0.7546771E-02  0.1180000E+00
      -11   -1    0    0    0    0  0.00000000000E+00  0.00000000000E+00  0.34996269501E-01  0.35000000000E-01  0.51099999109E-03 0. -1.
       11   -1    0    0    0    0 -0.00000000000E+00 -0.00000000000E+00 -0.34996269501E-01  0.35000000000E-01  0.51099999109E-03 0.  1.
       22    1    1    2    0    0 -0.28588532112E-02 -0.11349469136E-01  0.29351446231E-01  0.31598906424E-01  0.00000000000E+00 0. -1.
       22    1    1    2    0    0  0.97754933424E-03  0.10287534662E-01 -0.14721338849E-02  0.10438206278E-01  0.00000000000E+00 0.  1.
       22    1    1    2    0    0  0.18813038770E-02  0.10619344735E-02 -0.27879312346E-01  0.27962887298E-01  0.00000000000E+00 0. -1.
</event>
<event>
 5   0  0.6221259E+05  0.9118800E+02  0.7546771E-02  0.1180000E+00
      -11   -1    0    0    0    0  0.00000000000E+00  0.00000000000E+00  0.34996269501E-01  0.35000000000E-01  0.51099999109E-03 0. -1.
       11   -1    0    0    0    0 -0.00000000000E+00 -0.00000000000E+00 -0.34996269501E-01  0.35000000000E-01  0.51099999109E-03 0.  1.
       22    1    1    2    0    0 -0.37909092665E-04 -0.24356609466E-04  0.47071126126E-04  0.65161604079E-04  0.00000000000E+00 0.  1.
       22    1    1    2    0    0  0.58125376016E-02  0.89513475074E-02  0.33281798161E-01  0.34951256120E-01  0.00000000000E+00 0. -1.
       22    1    1    2    0    0 -0.57746285089E-02 -0.89269908980E-02 -0.33328869287E-01  0.34983582276E-01  0.00000000000E+00 0.  1.
</event>
<event>
 5   0  0.6221259E+05  0.9118800E+02  0.7546771E-02  0.1180000E+00
      -11   -1    0    0    0    0  0.00000000000E+00  0.00000000000E+00  0.34996269501E-01  0.35000000000E-01  0.51099999109E-03 0.  1.
       11   -1    0    0    0    0 -0.00000000000E+00 -0.00000000000E+00 -0.34996269501E-01  0.35000000000E-01  0.51099999109E-03 0. -1.
       22    1    1    2    0    0 -0.46554016392E-08  0.40613281698E-08  0.11467863648E-07  0.13026091032E-07  0.00000000000E+00 0.  1.
       22    1    1    2    0    0  0.72454572085E-03  0.10959859565E-02 -0.34975331198E-01  0.34999999201E-01  0.00000000000E+00 0. -1.
       22    1    1    2    0    0 -0.72454106545E-03 -0.10959900178E-02  0.34975319730E-01  0.34999987772E-01  0.00000000000E+00 0.  1.
</event>
<event>
 5   0  0.6221259E+05  0.9118800E+02  0.7546771E-02  0.1180000E+00
      -11   -1    0    0    0    0  0.00000000000E+00  0.00000000000E+00  0.34996269501E-01  0.35000000000E-01  0.51099999109E-03 0. -1.
       11   -1    0    0    0    0 -0.00000000000E+00 -0.00000000000E+00 -0.34996269501E-01  0.35000000000E-01  0.51099999109E-03 0. -1.
       22    1    1    2    0    0 -0.16656747585E-02  0.15115198837E-02 -0.34804311059E-01  0.34876915475E-01  0.00000000000E+00 0. -1.
       22    1    1    2    0    0 -0.10075902100E-02 -0.59472304368E-03  0.34774231176E-02  0.36689787502E-02  0.00000000000E+00 0. -1.
       22    1    1    2    0    0  0.26732649685E-02 -0.91679684003E-03  0.31326887941E-01  0.31454105775E-01  0.00000000000E+00 0. -1.
</event>
<event>
 5   0  0.6221259E+05  0.9118800E+02  0.7546771E-02  0.1180000E+00
      -11   -1    0    0    0    0  0.00000000000E+00  0.00000000000E+00  0.34996269501E-01  0.35000000000E-01  0.51099999109E-03 0. -1.
       11   -1    0    0    0    0 -0.00000000000E+00 -0.00000000000E+00 -0.34996269501E-01  0.35000000000E-01  0.51099999109E-03 0.  1.
       22    1    1    2    0    0 -0.85563551428E-02  0.17647275699E-01 -0.28988991855E-01  0.34999988595E-01  0.00000000000E+00 0.  1.
       22    1    1    2    0    0  0.85563542869E-02 -0.17647292961E-01  0.28988920523E-01  0.34999938009E-01  0.00000000000E+00 0. -1.
       22    1    1    2    0    0  0.85587039855E-09  0.17262033244E-07  0.71331741401E-07  0.73395692225E-07  0.00000000000E+00 0.  1.
</event>
<event>
 5   0  0.6221259E+05  0.9118800E+02  0.7546771E-02  0.1180000E+00
      -11   -1    0    0    0    0  0.00000000000E+00  0.00000000000E+00  0.34996269501E-01  0.35000000000E-01  0.51099999109E-03 0.  1.
       11   -1    0    0    0    0 -0.00000000000E+00 -0.00000000000E+00 -0.34996269501E-01  0.35000000000E-01  0.51099999109E-03 0. -1.
       22    1    1    2    0    0  0.22255389976E-02  0.22400250271E-01  0.24823960304E-01  0.33510494494E-01  0.00000000000E+00 0.  1.
       22    1    1    2    0    0 -0.10811009872E-02 -0.15329493076E-02  0.18291480071E-02  0.26200181977E-02  0.00000000000E+00 0.  1.
       22    1    1    2    0    0 -0.11444380104E-02 -0.20867300964E-01 -0.26653108311E-01  0.33869487308E-01  0.00000000000E+00 0. -1.
</event>
<event>
 5   0  0.6221259E+05  0.9118800E+02  0.7546771E-02  0.1180000E+00
      -11   -1    0    0    0    0  0.00000000000E+00  0.00000000000E+00  0.34996269501E-01  0.35000000000E-01  0.51099999109E-03 0.  1.
       11   -1    0    0    0    0 -0.00000000000E+00 -0.00000000000E+00 -0.34996269501E-01  0.35000000000E-01  0.51099999109E-03 0. -1.
       22    1    1    2    0    0 -0.53015091511E-03  0.22059263475E-02 -0.22980950136E-01  0.23092666372E-01  0.00000000000E+00 0.  1.
       22    1    1    2    0    0 -0.53297814024E-04  0.44540222276E-03  0.34788664125E-01  0.34791556093E-01  0.00000000000E+00 0.  1.
       22    1    1    2    0    0  0.58344872913E-03 -0.26513285703E-02 -0.11807713989E-01  0.12115777534E-01  0.00000000000E+00 0. -1.
</event>
<event>
 5   0  0.6221259E+05  0.9118800E+02  0.7546771E-02  0.1180000E+00
      -11   -1    0    0    0    0  0.00000000000E+00  0.00000000000E+00  0.34996269501E-01  0.35000000000E-01  0.51099999109E-03 0.  1.
       11   -1    0    0    0    0 -0.00000000000E+00 -0.00000000000E+00 -0.34996269501E-01  0.35000000000E-01  0.51099999109E-03 0. -1.
       22    1    1    2    0    0 -0.11674776661E-02 -0.39591316023E-03  0.34976854100E-01  0.34998572458E-01  0.00000000000E+00 0.  1.
       22    1    1    2    0    0  0.98798280244E-07  0.55765511672E-07  0.14276981662E-05  0.14321986407E-05  0.00000000000E+00 0. -1.
       22    1    1    2    0    0  0.11673788678E-02  0.39585739472E-03 -0.34978281798E-01  0.34999995344E-01  0.00000000000E+00 0. -1.
</event>
<event>
 5   0  0.6221259E+05  0.9118800E+02  0.7546771E-02  0.1180000E+00
      -11   -1    0    0    0    0  0.00000000000E+00  0.00000000000E+00  0.34996269501E-01  0.35000000000E-01  0.51099999109E-03 0. -1.
       11   -1    0    0    0    0 -0.00000000000E+00 -0.00000000000E+00 -0.34996269501E-01  0.35000000000E-01  0.51099999109E-03 0.  1.
       22    1    1    2    0    0 -0.10251644618E-07 -0.89297465436E-08  0.12095726757E-06  0.12171892692E-06  0.00000000000E+00 0. -1.
       22    1    1    2    0    0  0.44324848497E-02 -0.31221688868E-02 -0.34577522747E-01  0.34999999140E-01  0.00000000000E+00 0.  1.
       22    1    1    2    0    0 -0.44324745980E-02  0.31221778165E-02  0.34577401789E-01  0.34999879141E-01  0.00000000000E+00 0. -1.
</event>
<event>
 5   0  0.6221259E+05  0.9118800E+02  0.7546771E-02  0.1180000E+00
      -11   -1    0    0    0    0  0.00000000000E+00  0.00000000000E+00  0.34996269501E-01  0.35000000000E-01  0.51099999109E-03 0. -1.
       11   -1    0    0    0    0 -0.00000000000E+00 -0.00000000000E+00 -0.34996269501E-01  0.35000000000E-01  0.51099999109E-03 0. -1.
       22    1    1    2    0    0  0.27075819981E-03 -0.23741368720E-03 -0.34998132833E-01  0.34999985387E-01  0.00000000000E+00 0. -1.
       22    1    1    2    0    0 -0.67007148300E-07  0.22001961901E-07  0.68261291384E-07  0.98151149520E-07  0.00000000000E+00 0. -1.
       22    1    1    2    0    0 -0.27069119266E-03  0.23739168523E-03  0.34998064572E-01  0.34999916462E-01  0.00000000000E+00 0. -1.
</event>
<event>
 5   0  0.6221259E+05  0.9118800E+02  0.7546771E-02  0.1180000E+00
      -11   -1    0    0    0    0  0.00000000000E+00  0.00000000000E+00  0.34996269501E-01  0.35000000000E-01  0.51099999109E-03 0. -1.
       11   -1    0    0    0    0 -0.00000000000E+00 -0.00000000000E+00 -0.34996269501E-01  0.35000000000E-01  0.51099999109E-03 0. -1.
       22    1    1    2    0    0 -0.16817454910E-05 -0.66114422831E-07  0.34999231400E-01  0.34996996808E-01  0.00000000000E+00 0. -1.
       22    1    1    2    0    0  0.14332239600E-09  0.56344301445E-11 -0.35001998756E-01  0.34999764301E-01  0.00000000000E+00 0. -1.
       22    1    1    2    0    0  0.16816021686E-05  0.66108788401E-07  0.27673564321E-05  0.32388914535E-05  0.00000000000E+00 0. -1.
</event>
<event>
 5   0  0.6221259E+05  0.9118800E+02  0.7546771E-02  0.1180000E+00
      -11   -1    0    0    0    0  0.00000000000E+00  0.00000000000E+00  0.34996269501E-01  0.35000000000E-01  0.51099999109E-03 0. -1.
       11   -1    0    0    0    0 -0.00000000000E+00 -0.00000000000E+00 -0.34996269501E-01  0.35000000000E-01  0.51099999109E-03 0.  1.
       22    1    1    2    0    0  0.66739169403E-03 -0.25245233987E-02 -0.28571335315E-01  0.28690413586E-01  0.00000000000E+00 0.  1.
       22    1    1    2    0    0  0.10926070331E-02  0.74971307867E-04 -0.62563751565E-02  0.63515069807E-02  0.00000000000E+00 0.  1.
       22    1    1    2    0    0 -0.17599987272E-02  0.24495520908E-02  0.34827710472E-01  0.34958079433E-01  0.00000000000E+00 0. -1.
</event>
<event>
 5   0  0.6221259E+05  0.9118800E+02  0.7546771E-02  0.1180000E+00
      -11   -1    0    0    0    0  0.00000000000E+00  0.00000000000E+00  0.34996269501E-01  0.35000000000E-01  0.51099999109E-03 0. -1.
       11   -1    0    0    0    0 -0.00000000000E+00 -0.00000000000E+00 -0.34996269501E-01  0.35000000000E-01  0.51099999109E-03 0.  1.
       22    1    1    2    0    0 -0.97761845071E-02 -0.80827064761E-02  0.32620045455E-01  0.34999589897E-01  0.00000000000E+00 0. -1.
       22    1    1    2    0    0  0.15314715917E-06 -0.26132686794E-07  0.42945343180E-06  0.45669160247E-06  0.00000000000E+00 0.  1.
       22    1    1    2    0    0  0.97760313599E-02  0.80827326088E-02 -0.32620474908E-01  0.34999953411E-01  0.00000000000E+00 0.  1.
</event>
<event>
 5   0  0.6221259E+05  0.9118800E+02  0.7546771E-02  0.1180000E+00
      -11   -1    0    0    0    0  0.00000000000E+00  0.00000000000E+00  0.34996269501E-01  0.35000000000E-01  0.51099999109E-03 0. -1.
       11   -1    0    0    0    0 -0.00000000000E+00 -0.00000000000E+00 -0.34996269501E-01  0.35000000000E-01  0.51099999109E-03 0.  1.
       22    1    1    2    0    0 -0.11690734338E-02  0.13170554513E-01  0.32081023577E-01  0.34699024663E-01  0.00000000000E+00 0. -1.
       22    1    1    2    0    0  0.12078728662E-02 -0.12829884566E-01 -0.32377452020E-01  0.34847730115E-01  0.00000000000E+00 0.  1.
       22    1    1    2    0    0 -0.38799432477E-04 -0.34066994679E-03  0.29642844366E-03  0.45324522150E-03  0.00000000000E+00 0.  1.
</event>
<event>
 5   0  0.6221259E+05  0.9118800E+02  0.7546771E-02  0.1180000E+00
      -11   -1    0    0    0    0  0.00000000000E+00  0.00000000000E+00  0.34996269501E-01  0.35000000000E-01  0.51099999109E-03 0. -1.
       11   -1    0    0    0    0 -0.00000000000E+00 -0.00000000000E+00 -0.34996269501E-01  0.35000000000E-01  0.51099999109E-03 0.  1.
       22    1    1    2    0    0 -0.22981299018E-01 -0.52050505954E-02 -0.25879084128E-01  0.34999423589E-01  0.00000000000E+00 0.  1.
       22    1    1    2    0    0  0.22982103591E-01  0.52053194470E-02  0.25878405164E-01  0.34999489852E-01  0.00000000000E+00 0. -1.
       22    1    1    2    0    0 -0.80457303233E-06 -0.26885164383E-06  0.67896377644E-06  0.10865591472E-05  0.00000000000E+00 0.  1.
</event>
<event>
 5   0  0.6221259E+05  0.9118800E+02  0.7546771E-02  0.1180000E+00
      -11   -1    0    0    0    0  0.00000000000E+00  0.00000000000E+00  0.34996269501E-01  0.35000000000E-01  0.51099999109E-03 0.  1.
       11   -1    0    0    0    0 -0.00000000000E+00 -0.00000000000E+00 -0.34996269501E-01  0.35000000000E-01  0.51099999109E-03 0.  1.
       22    1    1    2    0    0  0.51308701435E-03  0.60924980050E-03  0.34990926567E-01  0.34999991224E-01  0.00000000000E+00 0.  1.
       22    1    1    2    0    0 -0.51308542858E-03 -0.60924914788E-03 -0.34990935279E-01  0.34999999898E-01  0.00000000000E+00 0.  1.
       22    1    1    2    0    0 -0.15857713400E-08 -0.65262091020E-09  0.87112379189E-08  0.88784148852E-08  0.00000000000E+00 0. -1.
</event>
<event>
 5   0  0.6221259E+05  0.9118800E+02  0.7546771E-02  0.1180000E+00
      -11   -1    0    0    0    0  0.00000000000E+00  0.00000000000E+00  0.34996269501E-01  0.35000000000E-01  0.51099999109E-03 0.  1.
       11   -1    0    0    0    0 -0.00000000000E+00 -0.00000000000E+00 -0.34996269501E-01  0.35000000000E-01  0.51099999109E-03 0.  1.
       22    1    1    2    0    0  0.47204484420E-03 -0.14002401733E-02 -0.34968704525E-01  0.34999911358E-01  0.00000000000E+00 0.  1.
       22    1    1    2    0    0  0.27774795569E-06  0.77969982312E-06  0.15831323539E-05  0.17864444550E-05  0.00000000000E+00 0. -1.
       22    1    1    2    0    0 -0.47232259216E-03  0.13994604735E-02  0.34967121393E-01  0.34998302198E-01  0.00000000000E+00 0.  1.
</event>
<event>
 5   0  0.6221259E+05  0.9118800E+02  0.7546771E-02  0.1180000E+00
      -11   -1    0    0    0    0  0.00000000000E+00  0.00000000000E+00  0.34996269501E-01  0.35000000000E-01  0.51099999109E-03 0. -1.
       11   -1    0    0    0    0 -0.00000000000E+00 -0.00000000000E+00 -0.34996269501E-01  0.35000000000E-01  0.51099999109E-03 0.  1.
       22    1    1    2    0    0  0.17046628942E-03 -0.19931756007E-03  0.34998823733E-01  0.34999806413E-01  0.00000000000E+00 0. -1.
       22    1    1    2    0    0 -0.17034392612E-03  0.19935574939E-03 -0.34998996313E-01  0.34999978610E-01  0.00000000000E+00 0.  1.
       22    1    1    2    0    0 -0.12236329746E-06 -0.38189319465E-07  0.17258034244E-06  0.21497715061E-06  0.00000000000E+00 0.  1.
</event>
<event>
 5   0  0.6221259E+05  0.9118800E+02  0.7546771E-02  0.1180000E+00
      -11   -1    0    0    0    0  0.00000000000E+00  0.00000000000E+00  0.34996269501E-01  0.35000000000E-01  0.51099999109E-03 0.  1.
       11   -1    0    0    0    0 -0.00000000000E+00 -0.00000000000E+00 -0.34996269501E-01  0.35000000000E-01  0.51099999109E-03 0. -1.
       22    1    1    2    0    0 -0.25213218946E-08 -0.30086718603E-08  0.57127688054E-07  0.57262395277E-07  0.00000000000E+00 0.  1.
       22    1    1    2    0    0 -0.10025415814E-01 -0.19070596178E-02 -0.33479158274E-01  0.34999998248E-01  0.00000000000E+00 0. -1.
       22    1    1    2    0    0  0.10025418335E-01  0.19070626265E-02  0.33479101147E-01  0.34999944489E-01  0.00000000000E+00 0.  1.
</event>
<event>
 5   0  0.6221259E+05  0.9118800E+02  0.7546771E-02  0.1180000E+00
      -11   -1    0    0    0    0  0.00000000000E+00  0.00000000000E+00  0.34996269501E-01  0.35000000000E-01  0.51099999109E-03 0. -1.
       11   -1    0    0    0    0 -0.00000000000E+00 -0.00000000000E+00 -0.34996269501E-01  0.35000000000E-01  0.51099999109E-03 0.  1.
       22    1    1    2    0    0 -0.91175869808E-02 -0.42587429469E-02 -0.33522119385E-01  0.34999996742E-01  0.00000000000E+00 0.  1.
       22    1    1    2    0    0 -0.40858547514E-08  0.21702138085E-09 -0.12523959277E-08  0.42789955468E-08  0.00000000000E+00 0. -1.
       22    1    1    2    0    0  0.91175910667E-02  0.42587427299E-02  0.33522120638E-01  0.34999998979E-01  0.00000000000E+00 0. -1.
</event>
<event>
 5   0  0.6221259E+05  0.9118800E+02  0.7546771E-02  0.1180000E+00
      -11   -1    0    0    0    0  0.00000000000E+00  0.00000000000E+00  0.34996269501E-01  0.35000000000E-01  0.51099999109E-03 0. -1.
       11   -1    0    0    0    0 -0.00000000000E+00 -0.00000000000E+00 -0.34996269501E-01  0.35000000000E-01  0.51099999109E-03 0.  1.
       22    1    1    2    0    0  0.38445745367E-02 -0.32918817517E-02  0.34632055425E-01  0.34999950026E-01  0.00000000000E+00 0. -1.
       22    1    1    2    0    0  0.13226791371E-07 -0.12358434725E-07  0.47240387788E-07  0.50589852314E-07  0.00000000000E+00 0. -1.
       22    1    1    2    0    0 -0.38445877635E-02  0.32918941101E-02 -0.34632102665E-01  0.34999999385E-01  0.00000000000E+00 0.  1.
</event>
<event>
 5   0  0.6221259E+05  0.9118800E+02  0.7546771E-02  0.1180000E+00
      -11   -1    0    0    0    0  0.00000000000E+00  0.00000000000E+00  0.34996269501E-01  0.35000000000E-01  0.51099999109E-03 0. -1.
       11   -1    0    0    0    0 -0.00000000000E+00 -0.00000000000E+00 -0.34996269501E-01  0.35000000000E-01  0.51099999109E-03 0.  1.
       22    1    1    2    0    0  0.87943236340E-05 -0.96714536423E-05  0.34733912974E-04  0.37112287106E-04  0.00000000000E+00 0. -1.
       22    1    1    2    0    0 -0.37481673469E-03  0.50223225508E-02  0.34600387964E-01  0.34964997621E-01  0.00000000000E+00 0. -1.
       22    1    1    2    0    0  0.36602241106E-03 -0.50126510971E-02 -0.34635121877E-01  0.34997890092E-01  0.00000000000E+00 0.  1.
</event>
<event>
 5   0  0.6221259E+05  0.9118800E+02  0.7546771E-02  0.1180000E+00
      -11   -1    0    0    0    0  0.00000000000E+00  0.00000000000E+00  0.34996269501E-01  0.35000000000E-01  0.51099999109E-03 0. -1.
       11   -1    0    0    0    0 -0.00000000000E+00 -0.00000000000E+00 -0.34996269501E-01  0.35000000000E-01  0.51099999109E-03 0.  1.
       22    1    1    2    0    0  0.32012221269E-02 -0.53364562181E-02  0.30905572335E-01  0.31525862232E-01  0.00000000000E+00 0. -1.
       22    1    1    2    0    0 -0.29692954366E-02  0.51794365439E-02 -0.34427383076E-01  0.34941207531E-01  0.00000000000E+00 0.  1.
       22    1    1    2    0    0 -0.23192669023E-03  0.15701967419E-03  0.35218107406E-02  0.35329302371E-02  0.00000000000E+00 0. -1.
</event>
<event>
 5   0  0.6221259E+05  0.9118800E+02  0.7546771E-02  0.1180000E+00
      -11   -1    0    0    0    0  0.00000000000E+00  0.00000000000E+00  0.34996269501E-01  0.35000000000E-01  0.51099999109E-03 0. -1.
       11   -1    0    0    0    0 -0.00000000000E+00 -0.00000000000E+00 -0.34996269501E-01  0.35000000000E-01  0.51099999109E-03 0.  1.
       22    1    1    2    0    0  0.13297477846E-03  0.42419545010E-03  0.91586511037E-02  0.91694336854E-02  0.00000000000E+00 0.  1.
       22    1    1    2    0    0 -0.96399162972E-03 -0.15551883631E-02  0.25789459542E-01  0.25854286186E-01  0.00000000000E+00 0. -1.
       22    1    1    2    0    0  0.83101685126E-03  0.11309929130E-02 -0.34948110645E-01  0.34976280129E-01  0.00000000000E+00 0.  1.
</event>
<event>
 5   0  0.6221259E+05  0.9118800E+02  0.7546771E-02  0.1180000E+00
      -11   -1    0    0    0    0  0.00000000000E+00  0.00000000000E+00  0.34996269501E-01  0.35000000000E-01  0.51099999109E-03 0.  1.
       11   -1    0    0    0    0 -0.00000000000E+00 -0.00000000000E+00 -0.34996269501E-01  0.35000000000E-01  0.51099999109E-03 0. -1.
       22    1    1    2    0    0  0.95603770359E-03  0.21279733962E-04  0.34986874729E-01  0.34999940917E-01  0.00000000000E+00 0.  1.
       22    1    1    2    0    0  0.42586569430E-08  0.10471011024E-07  0.58491005137E-07  0.59573281870E-07  0.00000000000E+00 0. -1.
       22    1    1    2    0    0 -0.95604196225E-03 -0.21290204973E-04 -0.34986933220E-01  0.34999999509E-01  0.00000000000E+00 0. -1.
</event>
<event>
 5   0  0.6221259E+05  0.9118800E+02  0.7546771E-02  0.1180000E+00
      -11   -1    0    0    0    0  0.00000000000E+00  0.00000000000E+00  0.34996269501E-01  0.35000000000E-01  0.51099999109E-03 0. -1.
       11   -1    0    0    0    0 -0.00000000000E+00 -0.00000000000E+00 -0.34996269501E-01  0.35000000000E-01  0.51099999109E-03 0.  1.
       22    1    1    2    0    0  0.43802129922E-02 -0.87854025265E-02  0.33486091181E-01  0.34895384594E-01  0.00000000000E+00 0. -1.
       22    1    1    2    0    0 -0.43702158424E-02  0.87939482087E-02 -0.33591983506E-01  0.34997909473E-01  0.00000000000E+00 0.  1.
       22    1    1    2    0    0 -0.99971497627E-05 -0.85456821325E-05  0.10589232496E-03  0.10670593316E-03  0.00000000000E+00 0.  1.
</event>
<event>
 5   0  0.6221259E+05  0.9118800E+02  0.7546771E-02  0.1180000E+00
      -11   -1    0    0    0    0  0.00000000000E+00  0.00000000000E+00  0.34996269501E-01  0.35000000000E-01  0.51099999109E-03 0. -1.
       11   -1    0    0    0    0 -0.00000000000E+00 -0.00000000000E+00 -0.34996269501E-01  0.35000000000E-01  0.51099999109E-03 0.  1.
       22    1    1    2    0    0  0.40536365794E-04  0.60241613628E-04 -0.56074204558E-03  0.56542363821E-03  0.00000000000E+00 0.  1.
       22    1    1    2    0    0 -0.94579989050E-02  0.58166744421E-03  0.33684571535E-01  0.34992033948E-01  0.00000000000E+00 0. -1.
       22    1    1    2    0    0  0.94174625392E-02 -0.64190905783E-03 -0.33123829489E-01  0.34442542414E-01  0.00000000000E+00 0.  1.
</event>
<event>
 5   0  0.6221259E+05  0.9118800E+02  0.7546771E-02  0.1180000E+00
      -11   -1    0    0    0    0  0.00000000000E+00  0.00000000000E+00  0.34996269501E-01  0.35000000000E-01  0.51099999109E-03 0.  1.
       11   -1    0    0    0    0 -0.00000000000E+00 -0.00000000000E+00 -0.34996269501E-01  0.35000000000E-01  0.51099999109E-03 0.  1.
       22    1    1    2    0    0 -0.20462097915E-13  0.51075092012E-13 -0.35002375272E-01  0.34999999972E-01  0.00000000000E+00 0.  1.
       22    1    1    2    0    0  0.23458856339E-09 -0.58555249368E-09  0.35002371775E-01  0.34999996475E-01  0.00000000000E+00 0.  1.
       22    1    1    2    0    0 -0.23456810129E-09  0.58550141859E-09  0.34968545087E-08  0.35532837714E-08  0.00000000000E+00 0. -1.
</event>
<event>
 5   0  0.6221259E+05  0.9118800E+02  0.7546771E-02  0.1180000E+00
      -11   -1    0    0    0    0  0.00000000000E+00  0.00000000000E+00  0.34996269501E-01  0.35000000000E-01  0.51099999109E-03 0.  1.
       11   -1    0    0    0    0 -0.00000000000E+00 -0.00000000000E+00 -0.34996269501E-01  0.35000000000E-01  0.51099999109E-03 0. -1.
       22    1    1    2    0    0 -0.49011518861E-05  0.17560184370E-02 -0.13236438459E-02  0.21990129156E-02  0.00000000000E+00 0.  1.
       22    1    1    2    0    0  0.64319357674E-03 -0.19217555752E-01 -0.27821358992E-01  0.33819464266E-01  0.00000000000E+00 0. -1.
       22    1    1    2    0    0 -0.63829242486E-03  0.17461537315E-01  0.29145002838E-01  0.33981522818E-01  0.00000000000E+00 0.  1.
</event>
<event>
 5   0  0.6221259E+05  0.9118800E+02  0.7546771E-02  0.1180000E+00
      -11   -1    0    0    0    0  0.00000000000E+00  0.00000000000E+00  0.34996269501E-01  0.35000000000E-01  0.51099999109E-03 0. -1.
       11   -1    0    0    0    0 -0.00000000000E+00 -0.00000000000E+00 -0.34996269501E-01  0.35000000000E-01  0.51099999109E-03 0.  1.
       22    1    1    2    0    0  0.72039849867E-09  0.11585630311E-09  0.66193100511E-09  0.98516462349E-09  0.00000000000E+00 0.  1.
       22    1    1    2    0    0  0.22955425983E-02  0.57221781419E-03 -0.34919951859E-01  0.34999999813E-01  0.00000000000E+00 0.  1.
       22    1    1    2    0    0 -0.22955433187E-02 -0.57221793004E-03  0.34919951198E-01  0.34999999202E-01  0.00000000000E+00 0. -1.
</event>
<event>
 5   0  0.6221259E+05  0.9118800E+02  0.7546771E-02  0.1180000E+00
      -11   -1    0    0    0    0  0.00000000000E+00  0.00000000000E+00  0.34996269501E-01  0.35000000000E-01  0.51099999109E-03 0. -1.
       11   -1    0    0    0    0 -0.00000000000E+00 -0.00000000000E+00 -0.34996269501E-01  0.35000000000E-01  0.51099999109E-03 0. -1.
       22    1    1    2    0    0 -0.30404574774E-05  0.22299660924E-05  0.16126731875E-04  0.16561660889E-04  0.00000000000E+00 0. -1.
       22    1    1    2    0    0 -0.22354688121E-09  0.16395623648E-09 -0.35001196019E-01  0.34999782760E-01  0.00000000000E+00 0. -1.
       22    1    1    2    0    0  0.30406810243E-05 -0.22301300486E-05  0.34985069287E-01  0.34983655579E-01  0.00000000000E+00 0. -1.
</event>
<event>
 5   0  0.6221259E+05  0.9118800E+02  0.7546771E-02  0.1180000E+00
      -11   -1    0    0    0    0  0.00000000000E+00  0.00000000000E+00  0.34996269501E-01  0.35000000000E-01  0.51099999109E-03 0. -1.
       11   -1    0    0    0    0 -0.00000000000E+00 -0.00000000000E+00 -0.34996269501E-01  0.35000000000E-01  0.51099999109E-03 0.  1.
       22    1    1    2    0    0  0.84558142025E-04  0.11592494183E-02 -0.56886704108E-02  0.58062018856E-02  0.00000000000E+00 0. -1.
       22    1    1    2    0    0  0.70392245429E-02 -0.27049988042E-01 -0.13646282831E-01  0.31104237176E-01  0.00000000000E+00 0.  1.
       22    1    1    2    0    0 -0.71237826849E-02  0.25890738624E-01  0.19334953242E-01  0.33089560938E-01  0.00000000000E+00 0. -1.
</event>
<event>
 5   0  0.6221259E+05  0.9118800E+02  0.7546771E-02  0.1180000E+00
      -11   -1    0    0    0    0  0.00000000000E+00  0.00000000000E+00  0.34996269501E-01  0.35000000000E-01  0.51099999109E-03 0.  1.
       11   -1    0    0    0    0 -0.00000000000E+00 -0.00000000000E+00 -0.34996269501E-01  0.35000000000E-01  0.51099999109E-03 0. -1.
       22    1    1    2    0    0  0.20569049288E-01  0.50726934832E-03 -0.28313545404E-01  0.34999999488E-01  0.00000000000E+00 0. -1.
       22    1    1    2    0    0 -0.77692691597E-08  0.52264140493E-08  0.12002966736E-07  0.15223276834E-07  0.00000000000E+00 0. -1.
       22    1    1    2    0    0 -0.20569041519E-01 -0.50727457474E-03  0.28313533401E-01  0.34999985288E-01  0.00000000000E+00 0.  1.
</event>
<event>
 5   0  0.6221259E+05  0.9118800E+02  0.7546771E-02  0.1180000E+00
      -11   -1    0    0    0    0  0.00000000000E+00  0.00000000000E+00  0.34996269501E-01  0.35000000000E-01  0.51099999109E-03 0. -1.
       11   -1    0    0    0    0 -0.00000000000E+00 -0.00000000000E+00 -0.34996269501E-01  0.35000000000E-01  0.51099999109E-03 0. -1.
       22    1    1    2    0    0 -0.13536129662E-04  0.24721720359E-03 -0.34931118294E-01  0.34931995718E-01  0.00000000000E+00 0. -1.
       22    1    1    2    0    0 -0.12373747669E-03 -0.22206436049E-03  0.34927472595E-01  0.34928397694E-01  0.00000000000E+00 0. -1.
       22    1    1    2    0    0  0.13727360635E-03 -0.25152843103E-04  0.36456980772E-05  0.13960658878E-03  0.00000000000E+00 0.  1.
</event>
<event>
 5   0  0.6221259E+05  0.9118800E+02  0.7546771E-02  0.1180000E+00
      -11   -1    0    0    0    0  0.00000000000E+00  0.00000000000E+00  0.34996269501E-01  0.35000000000E-01  0.51099999109E-03 0.  1.
       11   -1    0    0    0    0 -0.00000000000E+00 -0.00000000000E+00 -0.34996269501E-01  0.35000000000E-01  0.51099999109E-03 0.  1.
       22    1    1    2    0    0 -0.25198489246E-04 -0.18341606300E-03 -0.34277762266E-01  0.34278262243E-01  0.00000000000E+00 0.  1.
       22    1    1    2    0    0  0.25198489246E-04  0.18341606300E-03 -0.71032157408E-03  0.73405255577E-03  0.00000000000E+00 0. -1.
       22    1    1    2    0    0 -0.00000000000E+00  0.00000000000E+00  0.34988083840E-01  0.34987685202E-01  0.00000000000E+00 0.  1.
</event>
<event>
 5   0  0.6221259E+05  0.9118800E+02  0.7546771E-02  0.1180000E+00
      -11   -1    0    0    0    0  0.00000000000E+00  0.00000000000E+00  0.34996269501E-01  0.35000000000E-01  0.51099999109E-03 0.  1.
       11   -1    0    0    0    0 -0.00000000000E+00 -0.00000000000E+00 -0.34996269501E-01  0.35000000000E-01  0.51099999109E-03 0. -1.
       22    1    1    2    0    0 -0.17515372707E-02 -0.25789237097E-02  0.34458873859E-01  0.34599605748E-01  0.00000000000E+00 0.  1.
       22    1    1    2    0    0  0.58065332747E-03 -0.31518593711E-03  0.12794569926E-03  0.67295658375E-03  0.00000000000E+00 0.  1.
       22    1    1    2    0    0  0.11708839433E-02  0.28941096468E-02 -0.34586819558E-01  0.34727437668E-01  0.00000000000E+00 0. -1.
</event>
<event>
 5   0  0.6221259E+05  0.9118800E+02  0.7546771E-02  0.1180000E+00
      -11   -1    0    0    0    0  0.00000000000E+00  0.00000000000E+00  0.34996269501E-01  0.35000000000E-01  0.51099999109E-03 0.  1.
       11   -1    0    0    0    0 -0.00000000000E+00 -0.00000000000E+00 -0.34996269501E-01  0.35000000000E-01  0.51099999109E-03 0. -1.
       22    1    1    2    0    0 -0.25580037958E-02  0.22289408827E-03 -0.34905673978E-01  0.34999987729E-01  0.00000000000E+00 0. -1.
       22    1    1    2    0    0  0.13549038039E-05 -0.73550087363E-06  0.12531730742E-04  0.12626202962E-04  0.00000000000E+00 0. -1.
       22    1    1    2    0    0  0.25566488920E-02 -0.22215858740E-03  0.34893142247E-01  0.34987386068E-01  0.00000000000E+00 0.  1.
</event>
<event>
 5   0  0.6221259E+05  0.9118800E+02  0.7546771E-02  0.1180000E+00
      -11   -1    0    0    0    0  0.00000000000E+00  0.00000000000E+00  0.34996269501E-01  0.35000000000E-01  0.51099999109E-03 0. -1.
       11   -1    0    0    0    0 -0.00000000000E+00 -0.00000000000E+00 -0.34996269501E-01  0.35000000000E-01  0.51099999109E-03 0.  1.
       22    1    1    2    0    0  0.11267731932E-08  0.19938759894E-08  0.15958972424E-08  0.27914238837E-08  0.00000000000E+00 0. -1.
       22    1    1    2    0    0 -0.61233292275E-03  0.29664657666E-02 -0.34868683399E-01  0.34999999325E-01  0.00000000000E+00 0.  1.
       22    1    1    2    0    0  0.61233179598E-03 -0.29664677605E-02  0.34868681803E-01  0.34999997884E-01  0.00000000000E+00 0. -1.
</event>
<event>
 5   0  0.6221259E+05  0.9118800E+02  0.7546771E-02  0.1180000E+00
      -11   -1    0    0    0    0  0.00000000000E+00  0.00000000000E+00  0.34996269501E-01  0.35000000000E-01  0.51099999109E-03 0. -1.
       11   -1    0    0    0    0 -0.00000000000E+00 -0.00000000000E+00 -0.34996269501E-01  0.35000000000E-01  0.51099999109E-03 0.  1.
       22    1    1    2    0    0  0.30278268793E-02 -0.46095156966E-03  0.84804836426E-02  0.90165855385E-02  0.00000000000E+00 0. -1.
       22    1    1    2    0    0 -0.12887988583E-02  0.11113648695E-02  0.26199025572E-01  0.26254239187E-01  0.00000000000E+00 0.  1.
       22    1    1    2    0    0 -0.17390280210E-02 -0.65041329987E-03 -0.34679509214E-01  0.34729175275E-01  0.00000000000E+00 0.  1.
</event>
<event>
 5   0  0.6221259E+05  0.9118800E+02  0.7546771E-02  0.1180000E+00
      -11   -1    0    0    0    0  0.00000000000E+00  0.00000000000E+00  0.34996269501E-01  0.35000000000E-01  0.51099999109E-03 0. -1.
       11   -1    0    0    0    0 -0.00000000000E+00 -0.00000000000E+00 -0.34996269501E-01  0.35000000000E-01  0.51099999109E-03 0.  1.
       22    1    1    2    0    0  0.19041064047E-02  0.11661454928E-01  0.32917973591E-01  0.34974392598E-01  0.00000000000E+00 0. -1.
       22    1    1    2    0    0  0.42621525008E-05  0.35886187663E-05  0.25334963493E-04  0.25940402922E-04  0.00000000000E+00 0.  1.
       22    1    1    2    0    0 -0.19083685572E-02 -0.11665043547E-01 -0.32943308555E-01  0.34999666999E-01  0.00000000000E+00 0.  1.
</event>
<event>
 5   0  0.6221259E+05  0.9118800E+02  0.7546771E-02  0.1180000E+00
      -11   -1    0    0    0    0  0.00000000000E+00  0.00000000000E+00  0.34996269501E-01  0.35000000000E-01  0.51099999109E-03 0.  1.
       11   -1    0    0    0    0 -0.00000000000E+00 -0.00000000000E+00 -0.34996269501E-01  0.35000000000E-01  0.51099999109E-03 0. -1.
       22    1    1    2    0    0  0.29549234426E-03 -0.56247458233E-04 -0.34998379264E-01  0.34999671864E-01  0.00000000000E+00 0. -1.
       22    1    1    2    0    0 -0.30518413990E-03  0.75994958385E-04  0.34530333417E-01  0.34531765644E-01  0.00000000000E+00 0.  1.
       22    1    1    2    0    0  0.96917956397E-05 -0.19747500153E-04  0.46804584632E-03  0.46856249201E-03  0.00000000000E+00 0. -1.
</event>
<event>
 5   0  0.6221259E+05  0.9118800E+02  0.7546771E-02  0.1180000E+00
      -11   -1    0    0    0    0  0.00000000000E+00  0.00000000000E+00  0.34996269501E-01  0.35000000000E-01  0.51099999109E-03 0.  1.
       11   -1    0    0    0    0 -0.00000000000E+00 -0.00000000000E+00 -0.34996269501E-01  0.35000000000E-01  0.51099999109E-03 0. -1.
       22    1    1    2    0    0  0.69117327090E-03 -0.11587399741E-02  0.34973114865E-01  0.34999130877E-01  0.00000000000E+00 0.  1.
       22    1    1    2    0    0 -0.69096147265E-03  0.11589211508E-02 -0.34973961033E-01  0.34999978233E-01  0.00000000000E+00 0. -1.
       22    1    1    2    0    0 -0.21179824874E-06 -0.18117666548E-06  0.84616837043E-06  0.89088966399E-06  0.00000000000E+00 0.  1.
</event>
<event>
 5   0  0.6221259E+05  0.9118800E+02  0.7546771E-02  0.1180000E+00
      -11   -1    0    0    0    0  0.00000000000E+00  0.00000000000E+00  0.34996269501E-01  0.35000000000E-01  0.51099999109E-03 0. -1.
       11   -1    0    0    0    0 -0.00000000000E+00 -0.00000000000E+00 -0.34996269501E-01  0.35000000000E-01  0.51099999109E-03 0.  1.
       22    1    1    2    0    0  0.32799512049E-03 -0.53610030987E-02 -0.34585301940E-01  0.34999872075E-01  0.00000000000E+00 0.  1.
       22    1    1    2    0    0 -0.32800171580E-03  0.53604054968E-02  0.34556520817E-01  0.34971340597E-01  0.00000000000E+00 0. -1.
       22    1    1    2    0    0  0.65953170916E-08  0.59760189862E-06  0.28781123271E-04  0.28787327564E-04  0.00000000000E+00 0.  1.
</event>
<event>
 5   0  0.6221259E+05  0.9118800E+02  0.7546771E-02  0.1180000E+00
      -11   -1    0    0    0    0  0.00000000000E+00  0.00000000000E+00  0.34996269501E-01  0.35000000000E-01  0.51099999109E-03 0. -1.
       11   -1    0    0    0    0 -0.00000000000E+00 -0.00000000000E+00 -0.34996269501E-01  0.35000000000E-01  0.51099999109E-03 0.  1.
       22    1    1    2    0    0 -0.69133356526E-03  0.62778284685E-03  0.34980222423E-01  0.34992685152E-01  0.00000000000E+00 0. -1.
       22    1    1    2    0    0  0.56891293789E-03 -0.54660550193E-03 -0.34391365397E-01  0.34400413564E-01  0.00000000000E+00 0.  1.
       22    1    1    2    0    0  0.12242062736E-03 -0.81177344919E-04 -0.58885702621E-03  0.60690128411E-03  0.00000000000E+00 0. -1.
</event>
<event>
 5   0  0.6221259E+05  0.9118800E+02  0.7546771E-02  0.1180000E+00
      -11   -1    0    0    0    0  0.00000000000E+00  0.00000000000E+00  0.34996269501E-01  0.35000000000E-01  0.51099999109E-03 0. -1.
       11   -1    0    0    0    0 -0.00000000000E+00 -0.00000000000E+00 -0.34996269501E-01  0.35000000000E-01  0.51099999109E-03 0.  1.
       22    1    1    2    0    0 -0.79227121930E-02 -0.19835290292E-01 -0.27682855248E-01  0.34964962236E-01  0.00000000000E+00 0.  1.
       22    1    1    2    0    0 -0.40290544884E-04 -0.40357059056E-04  0.12002395691E-03  0.13288254384E-03  0.00000000000E+00 0.  1.
       22    1    1    2    0    0  0.79630027379E-02  0.19875647351E-01  0.27562831291E-01  0.34902155220E-01  0.00000000000E+00 0. -1.
</event>
<event>
 5   0  0.6221259E+05  0.9118800E+02  0.7546771E-02  0.1180000E+00
      -11   -1    0    0    0    0  0.00000000000E+00  0.00000000000E+00  0.34996269501E-01  0.35000000000E-01  0.51099999109E-03 0. -1.
       11   -1    0    0    0    0 -0.00000000000E+00 -0.00000000000E+00 -0.34996269501E-01  0.35000000000E-01  0.51099999109E-03 0. -1.
       22    1    1    2    0    0  0.32661971707E-03  0.69946992233E-03  0.34991483486E-01  0.34999997931E-01  0.00000000000E+00 0. -1.
       22    1    1    2    0    0 -0.99538337313E-09 -0.22976616427E-08  0.13496791302E-08  0.28445862332E-08  0.00000000000E+00 0. -1.
       22    1    1    2    0    0 -0.32661872168E-03 -0.69946762467E-03 -0.34991484835E-01  0.34999999225E-01  0.00000000000E+00 0. -1.
</event>
<event>
 5   0  0.6221259E+05  0.9118800E+02  0.7546771E-02  0.1180000E+00
      -11   -1    0    0    0    0  0.00000000000E+00  0.00000000000E+00  0.34996269501E-01  0.35000000000E-01  0.51099999109E-03 0.  1.
       11   -1    0    0    0    0 -0.00000000000E+00 -0.00000000000E+00 -0.34996269501E-01  0.35000000000E-01  0.51099999109E-03 0.  1.
       22    1    1    2    0    0 -0.15606256079E-07 -0.87079726671E-07  0.11019315077E-05  0.11054770381E-05  0.00000000000E+00 0. -1.
       22    1    1    2    0    0 -0.16554269250E-03 -0.53844733608E-03  0.34994361939E-01  0.34998895660E-01  0.00000000000E+00 0.  1.
       22    1    1    2    0    0  0.16555829875E-03  0.53853441581E-03 -0.34995463871E-01  0.34999998863E-01  0.00000000000E+00 0.  1.
</event>
<event>
 5   0  0.6221259E+05  0.9118800E+02  0.7546771E-02  0.1180000E+00
      -11   -1    0    0    0    0  0.00000000000E+00  0.00000000000E+00  0.34996269501E-01  0.35000000000E-01  0.51099999109E-03 0.  1.
       11   -1    0    0    0    0 -0.00000000000E+00 -0.00000000000E+00 -0.34996269501E-01  0.35000000000E-01  0.51099999109E-03 0. -1.
       22    1    1    2    0    0 -0.41890204967E-07  0.95749559577E-07  0.24590825143E-05  0.24613024153E-05  0.00000000000E+00 0. -1.
       22    1    1    2    0    0  0.22928892635E-01  0.17763534969E-01 -0.19587853101E-01  0.34999446869E-01  0.00000000000E+00 0. -1.
       22    1    1    2    0    0 -0.22928850745E-01 -0.17763630718E-01  0.19585394018E-01  0.34998091828E-01  0.00000000000E+00 0.  1.
</event>
<event>
 5   0  0.6221259E+05  0.9118800E+02  0.7546771E-02  0.1180000E+00
      -11   -1    0    0    0    0  0.00000000000E+00  0.00000000000E+00  0.34996269501E-01  0.35000000000E-01  0.51099999109E-03 0. -1.
       11   -1    0    0    0    0 -0.00000000000E+00 -0.00000000000E+00 -0.34996269501E-01  0.35000000000E-01  0.51099999109E-03 0.  1.
       22    1    1    2    0    0 -0.12651806966E-02 -0.79297684051E-02 -0.34066377651E-01  0.34999999934E-01  0.00000000000E+00 0.  1.
       22    1    1    2    0    0 -0.37128345877E-09 -0.10783440124E-09  0.11692345816E-08  0.12314987502E-08  0.00000000000E+00 0. -1.
       22    1    1    2    0    0  0.12651810679E-02  0.79297685129E-02  0.34066376482E-01  0.34999998834E-01  0.00000000000E+00 0. -1.
</event>
<event>
 5   0  0.6221259E+05  0.9118800E+02  0.7546771E-02  0.1180000E+00
      -11   -1    0    0    0    0  0.00000000000E+00  0.00000000000E+00  0.34996269501E-01  0.35000000000E-01  0.51099999109E-03 0. -1.
       11   -1    0    0    0    0 -0.00000000000E+00 -0.00000000000E+00 -0.34996269501E-01  0.35000000000E-01  0.51099999109E-03 0.  1.
       22    1    1    2    0    0 -0.15978815278E-03  0.45648519123E-05  0.50846759769E-02  0.50871881115E-02  0.00000000000E+00 0.  1.
       22    1    1    2    0    0 -0.75288149532E-03 -0.66450159746E-03  0.29896574891E-01  0.29913434827E-01  0.00000000000E+00 0. -1.
       22    1    1    2    0    0  0.91266964811E-03  0.65993674555E-03 -0.34981250868E-01  0.34999377062E-01  0.00000000000E+00 0.  1.
</event>
<event>
 5   0  0.6221259E+05  0.9118800E+02  0.7546771E-02  0.1180000E+00
      -11   -1    0    0    0    0  0.00000000000E+00  0.00000000000E+00  0.34996269501E-01  0.35000000000E-01  0.51099999109E-03 0. -1.
       11   -1    0    0    0    0 -0.00000000000E+00 -0.00000000000E+00 -0.34996269501E-01  0.35000000000E-01  0.51099999109E-03 0.  1.
       22    1    1    2    0    0  0.11671045215E-02  0.11547643326E-01 -0.32999232428E-01  0.34980845333E-01  0.00000000000E+00 0.  1.
       22    1    1    2    0    0 -0.11687938280E-02 -0.11484717691E-01  0.32011406024E-01  0.34029324635E-01  0.00000000000E+00 0. -1.
       22    1    1    2    0    0  0.16893065625E-05 -0.62925634513E-04  0.98782640417E-03  0.98983003289E-03  0.00000000000E+00 0. -1.
</event>
<event>
 5   0  0.6221259E+05  0.9118800E+02  0.7546771E-02  0.1180000E+00
      -11   -1    0    0    0    0  0.00000000000E+00  0.00000000000E+00  0.34996269501E-01  0.35000000000E-01  0.51099999109E-03 0.  1.
       11   -1    0    0    0    0 -0.00000000000E+00 -0.00000000000E+00 -0.34996269501E-01  0.35000000000E-01  0.51099999109E-03 0. -1.
       22    1    1    2    0    0  0.16692173425E-01 -0.38995557300E-02 -0.27132945351E-01  0.32094110238E-01  0.00000000000E+00 0. -1.
       22    1    1    2    0    0 -0.17275327695E-01  0.43205584852E-02  0.93583184908E-02  0.20116716868E-01  0.00000000000E+00 0.  1.
       22    1    1    2    0    0  0.58315426951E-03 -0.42100275521E-03  0.17774626860E-01  0.17789172894E-01  0.00000000000E+00 0. -1.
</event>
<event>
 5   0  0.6221259E+05  0.9118800E+02  0.7546771E-02  0.1180000E+00
      -11   -1    0    0    0    0  0.00000000000E+00  0.00000000000E+00  0.34996269501E-01  0.35000000000E-01  0.51099999109E-03 0.  1.
       11   -1    0    0    0    0 -0.00000000000E+00 -0.00000000000E+00 -0.34996269501E-01  0.35000000000E-01  0.51099999109E-03 0.  1.
       22    1    1    2    0    0 -0.17694985707E-02 -0.13948433804E-01 -0.44577324022E-02  0.14749959626E-01  0.00000000000E+00 0. -1.
       22    1    1    2    0    0 -0.59203288251E-03 -0.33605188830E-03  0.27785843986E-01  0.27794182122E-01  0.00000000000E+00 0.  1.
       22    1    1    2    0    0  0.23615314532E-02  0.14284485693E-01 -0.23328111584E-01  0.27455858252E-01  0.00000000000E+00 0.  1.
</event>
<event>
 5   0  0.6221259E+05  0.9118800E+02  0.7546771E-02  0.1180000E+00
      -11   -1    0    0    0    0  0.00000000000E+00  0.00000000000E+00  0.34996269501E-01  0.35000000000E-01  0.51099999109E-03 0.  1.
       11   -1    0    0    0    0 -0.00000000000E+00 -0.00000000000E+00 -0.34996269501E-01  0.35000000000E-01  0.51099999109E-03 0. -1.
       22    1    1    2    0    0 -0.10108185272E-02 -0.12398829771E-01  0.32709015140E-01  0.34994748252E-01  0.00000000000E+00 0.  1.
       22    1    1    2    0    0  0.53379545826E-07  0.30429382633E-07  0.54352127083E-05  0.54355599995E-05  0.00000000000E+00 0.  1.
       22    1    1    2    0    0  0.10107651477E-02  0.12398799341E-01 -0.32714450353E-01  0.34999816188E-01  0.00000000000E+00 0. -1.
</event>
<event>
 5   0  0.6221259E+05  0.9118800E+02  0.7546771E-02  0.1180000E+00
      -11   -1    0    0    0    0  0.00000000000E+00  0.00000000000E+00  0.34996269501E-01  0.35000000000E-01  0.51099999109E-03 0.  1.
       11   -1    0    0    0    0 -0.00000000000E+00 -0.00000000000E+00 -0.34996269501E-01  0.35000000000E-01  0.51099999109E-03 0.  1.
       22    1    1    2    0    0 -0.10639595585E-06 -0.34863408039E-06  0.34974880403E-01  0.34972761883E-01  0.00000000000E+00 0.  1.
       22    1    1    2    0    0  0.10638706105E-06  0.34860493428E-06  0.27236074011E-04  0.27238512645E-04  0.00000000000E+00 0. -1.
       22    1    1    2    0    0  0.88947939408E-11  0.29146110687E-10 -0.35002116477E-01  0.34999999604E-01  0.00000000000E+00 0.  1.
</event>
<event>
 5   0  0.6221259E+05  0.9118800E+02  0.7546771E-02  0.1180000E+00
      -11   -1    0    0    0    0  0.00000000000E+00  0.00000000000E+00  0.34996269501E-01  0.35000000000E-01  0.51099999109E-03 0.  1.
       11   -1    0    0    0    0 -0.00000000000E+00 -0.00000000000E+00 -0.34996269501E-01  0.35000000000E-01  0.51099999109E-03 0. -1.
       22    1    1    2    0    0  0.91826030367E-08 -0.33055161973E-09  0.14446723749E-07  0.17121252582E-07  0.00000000000E+00 0.  1.
       22    1    1    2    0    0 -0.47561850639E-02  0.10450442389E-02  0.34659566215E-01  0.34999984915E-01  0.00000000000E+00 0.  1.
       22    1    1    2    0    0  0.47561758812E-02 -0.10450439083E-02 -0.34659580662E-01  0.34999997964E-01  0.00000000000E+00 0. -1.
</event>
<event>
 5   0  0.6221259E+05  0.9118800E+02  0.7546771E-02  0.1180000E+00
      -11   -1    0    0    0    0  0.00000000000E+00  0.00000000000E+00  0.34996269501E-01  0.35000000000E-01  0.51099999109E-03 0. -1.
       11   -1    0    0    0    0 -0.00000000000E+00 -0.00000000000E+00 -0.34996269501E-01  0.35000000000E-01  0.51099999109E-03 0.  1.
       22    1    1    2    0    0 -0.14106723278E-02 -0.76102702858E-02  0.34133296889E-01  0.34999830953E-01  0.00000000000E+00 0. -1.
       22    1    1    2    0    0 -0.14541732058E-07  0.11831498118E-07  0.17165504016E-06  0.17267570510E-06  0.00000000000E+00 0.  1.
       22    1    1    2    0    0  0.14106868695E-02  0.76102584543E-02 -0.34133468544E-01  0.34999996371E-01  0.00000000000E+00 0.  1.
</event>
<event>
 5   0  0.6221259E+05  0.9118800E+02  0.7546771E-02  0.1180000E+00
      -11   -1    0    0    0    0  0.00000000000E+00  0.00000000000E+00  0.34996269501E-01  0.35000000000E-01  0.51099999109E-03 0. -1.
       11   -1    0    0    0    0 -0.00000000000E+00 -0.00000000000E+00 -0.34996269501E-01  0.35000000000E-01  0.51099999109E-03 0.  1.
       22    1    1    2    0    0  0.82519318190E-02 -0.88023876289E-02  0.32770886883E-01  0.34921446616E-01  0.00000000000E+00 0. -1.
       22    1    1    2    0    0 -0.82694958306E-02  0.88053688182E-02 -0.32848361844E-01  0.34999056518E-01  0.00000000000E+00 0.  1.
       22    1    1    2    0    0  0.17564011646E-04 -0.29811893017E-05  0.77474961439E-04  0.79496865629E-04  0.00000000000E+00 0. -1.
</event>
<event>
 5   0  0.6221259E+05  0.9118800E+02  0.7546771E-02  0.1180000E+00
      -11   -1    0    0    0    0  0.00000000000E+00  0.00000000000E+00  0.34996269501E-01  0.35000000000E-01  0.51099999109E-03 0.  1.
       11   -1    0    0    0    0 -0.00000000000E+00 -0.00000000000E+00 -0.34996269501E-01  0.35000000000E-01  0.51099999109E-03 0. -1.
       22    1    1    2    0    0  0.32936495266E-05  0.47914692489E-04  0.30988869833E-04  0.57157466153E-04  0.00000000000E+00 0.  1.
       22    1    1    2    0    0  0.43443489209E-03  0.36099378389E-03  0.34951080790E-01  0.34955644731E-01  0.00000000000E+00 0.  1.
       22    1    1    2    0    0 -0.43772854162E-03 -0.40890847638E-03 -0.34982069660E-01  0.34987197803E-01  0.00000000000E+00 0. -1.
</event>
<event>
 5   0  0.6221259E+05  0.9118800E+02  0.7546771E-02  0.1180000E+00
      -11   -1    0    0    0    0  0.00000000000E+00  0.00000000000E+00  0.34996269501E-01  0.35000000000E-01  0.51099999109E-03 0. -1.
       11   -1    0    0    0    0 -0.00000000000E+00 -0.00000000000E+00 -0.34996269501E-01  0.35000000000E-01  0.51099999109E-03 0.  1.
       22    1    1    2    0    0 -0.23469821998E-02 -0.10838694213E-01  0.33196577427E-01  0.34999976722E-01  0.00000000000E+00 0.  1.
       22    1    1    2    0    0  0.37756262928E-09 -0.62797005960E-09  0.23800926604E-07  0.23812202904E-07  0.00000000000E+00 0.  1.
       22    1    1    2    0    0  0.23469818223E-02  0.10838694841E-01 -0.33196601228E-01  0.34999999466E-01  0.00000000000E+00 0. -1.
</event>
<event>
 5   0  0.6221259E+05  0.9118800E+02  0.7546771E-02  0.1180000E+00
      -11   -1    0    0    0    0  0.00000000000E+00  0.00000000000E+00  0.34996269501E-01  0.35000000000E-01  0.51099999109E-03 0. -1.
       11   -1    0    0    0    0 -0.00000000000E+00 -0.00000000000E+00 -0.34996269501E-01  0.35000000000E-01  0.51099999109E-03 0.  1.
       22    1    1    2    0    0 -0.43764868003E-09  0.77169861876E-09  0.22981567283E-08  0.24634486950E-08  0.00000000000E+00 0. -1.
       22    1    1    2    0    0 -0.22220349499E-02  0.27069354766E-02 -0.34824345676E-01  0.34999999868E-01  0.00000000000E+00 0.  1.
       22    1    1    2    0    0  0.22220353876E-02 -0.27069362483E-02  0.34824343378E-01  0.34999997669E-01  0.00000000000E+00 0. -1.
</event>
<event>
 5   0  0.6221259E+05  0.9118800E+02  0.7546771E-02  0.1180000E+00
      -11   -1    0    0    0    0  0.00000000000E+00  0.00000000000E+00  0.34996269501E-01  0.35000000000E-01  0.51099999109E-03 0. -1.
       11   -1    0    0    0    0 -0.00000000000E+00 -0.00000000000E+00 -0.34996269501E-01  0.35000000000E-01  0.51099999109E-03 0.  1.
       22    1    1    2    0    0 -0.19419013511E-07 -0.24895877669E-07  0.17917320029E-06  0.18193388501E-06  0.00000000000E+00 0. -1.
       22    1    1    2    0    0  0.32297088868E-02 -0.28032671542E-02  0.34737560003E-01  0.34999820017E-01  0.00000000000E+00 0. -1.
       22    1    1    2    0    0 -0.32296894678E-02  0.28032920501E-02 -0.34737739176E-01  0.34999998049E-01  0.00000000000E+00 0.  1.
</event>
<event>
 5   0  0.6221259E+05  0.9118800E+02  0.7546771E-02  0.1180000E+00
      -11   -1    0    0    0    0  0.00000000000E+00  0.00000000000E+00  0.34996269501E-01  0.35000000000E-01  0.51099999109E-03 0. -1.
       11   -1    0    0    0    0 -0.00000000000E+00 -0.00000000000E+00 -0.34996269501E-01  0.35000000000E-01  0.51099999109E-03 0.  1.
       22    1    1    2    0    0  0.13447054982E-03 -0.10463755507E-03  0.26006971648E-03  0.31091414270E-03  0.00000000000E+00 0.  1.
       22    1    1    2    0    0  0.37167808917E-02  0.63650437970E-03 -0.34763444151E-01  0.34967365460E-01  0.00000000000E+00 0.  1.
       22    1    1    2    0    0 -0.38512514415E-02 -0.53186682463E-03  0.34503374434E-01  0.34721720397E-01  0.00000000000E+00 0. -1.
</event>
<event>
 5   0  0.6221259E+05  0.9118800E+02  0.7546771E-02  0.1180000E+00
      -11   -1    0    0    0    0  0.00000000000E+00  0.00000000000E+00  0.34996269501E-01  0.35000000000E-01  0.51099999109E-03 0.  1.
       11   -1    0    0    0    0 -0.00000000000E+00 -0.00000000000E+00 -0.34996269501E-01  0.35000000000E-01  0.51099999109E-03 0.  1.
       22    1    1    2    0    0 -0.27021953315E-03 -0.34609617496E-03 -0.34997244701E-01  0.34999999112E-01  0.00000000000E+00 0.  1.
       22    1    1    2    0    0  0.22737539253E-07 -0.86280922523E-08  0.15857447802E-06  0.16042850354E-06  0.00000000000E+00 0.  1.
       22    1    1    2    0    0  0.27019679561E-03  0.34610480306E-03  0.34997086127E-01  0.34999840460E-01  0.00000000000E+00 0.  1.
</event>
<event>
 5   0  0.6221259E+05  0.9118800E+02  0.7546771E-02  0.1180000E+00
      -11   -1    0    0    0    0  0.00000000000E+00  0.00000000000E+00  0.34996269501E-01  0.35000000000E-01  0.51099999109E-03 0.  1.
       11   -1    0    0    0    0 -0.00000000000E+00 -0.00000000000E+00 -0.34996269501E-01  0.35000000000E-01  0.51099999109E-03 0. -1.
       22    1    1    2    0    0  0.25513370026E-04  0.20185386151E-04  0.19471511554E-03  0.19741417904E-03  0.00000000000E+00 0. -1.
       22    1    1    2    0    0  0.13786160740E-02  0.13375721160E-01  0.32104869822E-01  0.34807084984E-01  0.00000000000E+00 0.  1.
       22    1    1    2    0    0 -0.14041294441E-02 -0.13395906546E-01 -0.32299584937E-01  0.34995500837E-01  0.00000000000E+00 0. -1.
</event>
<event>
 5   0  0.6221259E+05  0.9118800E+02  0.7546771E-02  0.1180000E+00
      -11   -1    0    0    0    0  0.00000000000E+00  0.00000000000E+00  0.34996269501E-01  0.35000000000E-01  0.51099999109E-03 0. -1.
       11   -1    0    0    0    0 -0.00000000000E+00 -0.00000000000E+00 -0.34996269501E-01  0.35000000000E-01  0.51099999109E-03 0. -1.
       22    1    1    2    0    0  0.11894392520E-07 -0.69403491589E-08 -0.34999585981E-01  0.34998919955E-01  0.00000000000E+00 0. -1.
       22    1    1    2    0    0  0.14660159740E-03 -0.85541676177E-04  0.79023090441E-02  0.79041316813E-02  0.00000000000E+00 0. -1.
       22    1    1    2    0    0 -0.14661349180E-03  0.85548616526E-04  0.27097276937E-01  0.27096948364E-01  0.00000000000E+00 0. -1.
</event>
<event>
 5   0  0.6221259E+05  0.9118800E+02  0.7546771E-02  0.1180000E+00
      -11   -1    0    0    0    0  0.00000000000E+00  0.00000000000E+00  0.34996269501E-01  0.35000000000E-01  0.51099999109E-03 0. -1.
       11   -1    0    0    0    0 -0.00000000000E+00 -0.00000000000E+00 -0.34996269501E-01  0.35000000000E-01  0.51099999109E-03 0.  1.
       22    1    1    2    0    0  0.23035098972E-08 -0.43871099146E-09  0.57044392368E-08  0.61675969540E-08  0.00000000000E+00 0.  1.
       22    1    1    2    0    0  0.54906829672E-02  0.32531016168E-01  0.11686963110E-01  0.34999995987E-01  0.00000000000E+00 0. -1.
       22    1    1    2    0    0 -0.54906852708E-02 -0.32531015729E-01 -0.11686968815E-01  0.34999997845E-01  0.00000000000E+00 0.  1.
</event>
<event>
 5   0  0.6221259E+05  0.9118800E+02  0.7546771E-02  0.1180000E+00
      -11   -1    0    0    0    0  0.00000000000E+00  0.00000000000E+00  0.34996269501E-01  0.35000000000E-01  0.51099999109E-03 0.  1.
       11   -1    0    0    0    0 -0.00000000000E+00 -0.00000000000E+00 -0.34996269501E-01  0.35000000000E-01  0.51099999109E-03 0. -1.
       22    1    1    2    0    0  0.20323449163E-02  0.13335838010E-04 -0.34934826240E-01  0.34993895012E-01  0.00000000000E+00 0. -1.
       22    1    1    2    0    0 -0.20879315722E-02 -0.99454436059E-04  0.34241538856E-01  0.34305281411E-01  0.00000000000E+00 0.  1.
       22    1    1    2    0    0  0.55586655917E-04  0.86118598049E-04  0.69328738396E-03  0.70082357695E-03  0.00000000000E+00 0. -1.
</event>
<event>
 5   0  0.6221259E+05  0.9118800E+02  0.7546771E-02  0.1180000E+00
      -11   -1    0    0    0    0  0.00000000000E+00  0.00000000000E+00  0.34996269501E-01  0.35000000000E-01  0.51099999109E-03 0.  1.
       11   -1    0    0    0    0 -0.00000000000E+00 -0.00000000000E+00 -0.34996269501E-01  0.35000000000E-01  0.51099999109E-03 0. -1.
       22    1    1    2    0    0  0.78436242752E-02 -0.36519441073E-03  0.19209718159E-02  0.80836836557E-02  0.00000000000E+00 0.  1.
       22    1    1    2    0    0 -0.18782610659E-01 -0.12749031010E-01  0.22601283889E-01  0.32033455766E-01  0.00000000000E+00 0.  1.
       22    1    1    2    0    0  0.10938986384E-01  0.13114225421E-01 -0.24522255705E-01  0.29882860578E-01  0.00000000000E+00 0. -1.
</event>
<event>
 5   0  0.6221259E+05  0.9118800E+02  0.7546771E-02  0.1180000E+00
      -11   -1    0    0    0    0  0.00000000000E+00  0.00000000000E+00  0.34996269501E-01  0.35000000000E-01  0.51099999109E-03 0. -1.
       11   -1    0    0    0    0 -0.00000000000E+00 -0.00000000000E+00 -0.34996269501E-01  0.35000000000E-01  0.51099999109E-03 0.  1.
       22    1    1    2    0    0  0.43921312782E-09  0.96699359556E-09  0.88254343450E-08  0.88891099759E-08  0.00000000000E+00 0.  1.
       22    1    1    2    0    0  0.98483663017E-03  0.82750979841E-03 -0.34976353736E-01  0.34999999948E-01  0.00000000000E+00 0.  1.
       22    1    1    2    0    0 -0.98483706938E-03 -0.82751076541E-03  0.34976344911E-01  0.34999991163E-01  0.00000000000E+00 0. -1.
</event>
<event>
 5   0  0.6221259E+05  0.9118800E+02  0.7546771E-02  0.1180000E+00
      -11   -1    0    0    0    0  0.00000000000E+00  0.00000000000E+00  0.34996269501E-01  0.35000000000E-01  0.51099999109E-03 0.  1.
       11   -1    0    0    0    0 -0.00000000000E+00 -0.00000000000E+00 -0.34996269501E-01  0.35000000000E-01  0.51099999109E-03 0. -1.
       22    1    1    2    0    0 -0.19922652219E-03 -0.10534721000E-02  0.10150102404E-01  0.10206570114E-01  0.00000000000E+00 0. -1.
       22    1    1    2    0    0 -0.13691186383E-02 -0.86550200222E-02  0.23318139443E-01  0.24910228512E-01  0.00000000000E+00 0.  1.
       22    1    1    2    0    0  0.15683451605E-02  0.97084921222E-02 -0.33468241847E-01  0.34883201375E-01  0.00000000000E+00 0. -1.
</event>
<event>
 5   0  0.6221259E+05  0.9118800E+02  0.7546771E-02  0.1180000E+00
      -11   -1    0    0    0    0  0.00000000000E+00  0.00000000000E+00  0.34996269501E-01  0.35000000000E-01  0.51099999109E-03 0. -1.
       11   -1    0    0    0    0 -0.00000000000E+00 -0.00000000000E+00 -0.34996269501E-01  0.35000000000E-01  0.51099999109E-03 0.  1.
       22    1    1    2    0    0 -0.32761057700E-02  0.13027136642E-02 -0.34718184434E-01  0.34896737130E-01  0.00000000000E+00 0.  1.
       22    1    1    2    0    0  0.37316535192E-02 -0.10484244928E-02  0.33974098894E-01  0.34194499961E-01  0.00000000000E+00 0. -1.
       22    1    1    2    0    0 -0.45554774925E-03 -0.25428917146E-03  0.74408553973E-03  0.90876290913E-03  0.00000000000E+00 0.  1.
</event>
<event>
 5   0  0.6221259E+05  0.9118800E+02  0.7546771E-02  0.1180000E+00
      -11   -1    0    0    0    0  0.00000000000E+00  0.00000000000E+00  0.34996269501E-01  0.35000000000E-01  0.51099999109E-03 0. -1.
       11   -1    0    0    0    0 -0.00000000000E+00 -0.00000000000E+00 -0.34996269501E-01  0.35000000000E-01  0.51099999109E-03 0.  1.
       22    1    1    2    0    0 -0.93313852722E-02 -0.19153426105E-01  0.25728453975E-01  0.33404817416E-01  0.00000000000E+00 0. -1.
       22    1    1    2    0    0  0.62340089209E-02  0.20533119661E-01 -0.25304290335E-01  0.33177989384E-01  0.00000000000E+00 0.  1.
       22    1    1    2    0    0  0.30973763513E-02 -0.13796935559E-02 -0.42416364021E-03  0.34171931996E-02  0.00000000000E+00 0.  1.
</event>
<event>
 5   0  0.6221259E+05  0.9118800E+02  0.7546771E-02  0.1180000E+00
      -11   -1    0    0    0    0  0.00000000000E+00  0.00000000000E+00  0.34996269501E-01  0.35000000000E-01  0.51099999109E-03 0. -1.
       11   -1    0    0    0    0 -0.00000000000E+00 -0.00000000000E+00 -0.34996269501E-01  0.35000000000E-01  0.51099999109E-03 0.  1.
       22    1    1    2    0    0 -0.11562551019E-02 -0.11428438969E-01  0.33061336579E-01  0.34999973136E-01  0.00000000000E+00 0. -1.
       22    1    1    2    0    0  0.96376602080E-08  0.78094464424E-09  0.27062090118E-07  0.28737624995E-07  0.00000000000E+00 0. -1.
       22    1    1    2    0    0  0.11562454642E-02  0.11428438188E-01 -0.33061363641E-01  0.34999998126E-01  0.00000000000E+00 0.  1.
</event>
<event>
 5   0  0.6221259E+05  0.9118800E+02  0.7546771E-02  0.1180000E+00
      -11   -1    0    0    0    0  0.00000000000E+00  0.00000000000E+00  0.34996269501E-01  0.35000000000E-01  0.51099999109E-03 0. -1.
       11   -1    0    0    0    0 -0.00000000000E+00 -0.00000000000E+00 -0.34996269501E-01  0.35000000000E-01  0.51099999109E-03 0.  1.
       22    1    1    2    0    0  0.24266571607E-01  0.12984918966E-01 -0.10086309735E-03  0.27522441597E-01  0.00000000000E+00 0.  1.
       22    1    1    2    0    0 -0.24721071659E-01 -0.12943043835E-01 -0.11994889263E-01  0.30373197660E-01  0.00000000000E+00 0. -1.
       22    1    1    2    0    0  0.45450005206E-03 -0.41875131501E-04  0.12095752360E-01  0.12104360742E-01  0.00000000000E+00 0.  1.
</event>
<event>
 5   0  0.6221259E+05  0.9118800E+02  0.7546771E-02  0.1180000E+00
      -11   -1    0    0    0    0  0.00000000000E+00  0.00000000000E+00  0.34996269501E-01  0.35000000000E-01  0.51099999109E-03 0. -1.
       11   -1    0    0    0    0 -0.00000000000E+00 -0.00000000000E+00 -0.34996269501E-01  0.35000000000E-01  0.51099999109E-03 0.  1.
       22    1    1    2    0    0 -0.14723363170E-01 -0.14626933889E-02  0.31718742921E-01  0.34999936393E-01  0.00000000000E+00 0. -1.
       22    1    1    2    0    0 -0.17855376757E-07 -0.11350889489E-08  0.61431505011E-07  0.63983847290E-07  0.00000000000E+00 0.  1.
       22    1    1    2    0    0  0.14723381025E-01  0.14626945240E-02 -0.31718804353E-01  0.34999999624E-01  0.00000000000E+00 0.  1.
</event>
<event>
 5   0  0.6221259E+05  0.9118800E+02  0.7546771E-02  0.1180000E+00
      -11   -1    0    0    0    0  0.00000000000E+00  0.00000000000E+00  0.34996269501E-01  0.35000000000E-01  0.51099999109E-03 0. -1.
       11   -1    0    0    0    0 -0.00000000000E+00 -0.00000000000E+00 -0.34996269501E-01  0.35000000000E-01  0.51099999109E-03 0.  1.
       22    1    1    2    0    0  0.15609391862E-01  0.31099735905E-02  0.30670949551E-01  0.34554770964E-01  0.00000000000E+00 0. -1.
       22    1    1    2    0    0 -0.15604441438E-01 -0.31486302832E-02 -0.31140817818E-01  0.34973747292E-01  0.00000000000E+00 0.  1.
       22    1    1    2    0    0 -0.49504238598E-05  0.38656692748E-04  0.46986826693E-03  0.47148174393E-03  0.00000000000E+00 0. -1.
</event>
<event>
 5   0  0.6221259E+05  0.9118800E+02  0.7546771E-02  0.1180000E+00
      -11   -1    0    0    0    0  0.00000000000E+00  0.00000000000E+00  0.34996269501E-01  0.35000000000E-01  0.51099999109E-03 0.  1.
       11   -1    0    0    0    0 -0.00000000000E+00 -0.00000000000E+00 -0.34996269501E-01  0.35000000000E-01  0.51099999109E-03 0. -1.
       22    1    1    2    0    0 -0.16132282286E-06  0.88682511340E-05  0.72120640107E-04  0.72664011950E-04  0.00000000000E+00 0. -1.
       22    1    1    2    0    0  0.30741499866E-02 -0.60311138172E-02  0.34266814005E-01  0.34929060595E-01  0.00000000000E+00 0.  1.
       22    1    1    2    0    0 -0.30739886638E-02  0.60222455661E-02 -0.34338934645E-01  0.34998275393E-01  0.00000000000E+00 0. -1.
</event>
<event>
 5   0  0.6221259E+05  0.9118800E+02  0.7546771E-02  0.1180000E+00
      -11   -1    0    0    0    0  0.00000000000E+00  0.00000000000E+00  0.34996269501E-01  0.35000000000E-01  0.51099999109E-03 0.  1.
       11   -1    0    0    0    0 -0.00000000000E+00 -0.00000000000E+00 -0.34996269501E-01  0.35000000000E-01  0.51099999109E-03 0. -1.
       22    1    1    2    0    0  0.26078396234E-07  0.35052455616E-08  0.40878999576E-06  0.40963597270E-06  0.00000000000E+00 0.  1.
       22    1    1    2    0    0  0.37695703110E-02 -0.39004864981E-02 -0.34577105975E-01  0.34999995898E-01  0.00000000000E+00 0. -1.
       22    1    1    2    0    0 -0.37695963894E-02  0.39004829929E-02  0.34576697185E-01  0.34999594466E-01  0.00000000000E+00 0.  1.
</event>
<event>
 5   0  0.6221259E+05  0.9118800E+02  0.7546771E-02  0.1180000E+00
      -11   -1    0    0    0    0  0.00000000000E+00  0.00000000000E+00  0.34996269501E-01  0.35000000000E-01  0.51099999109E-03 0.  1.
       11   -1    0    0    0    0 -0.00000000000E+00 -0.00000000000E+00 -0.34996269501E-01  0.35000000000E-01  0.51099999109E-03 0. -1.
       22    1    1    2    0    0  0.16647186997E-03  0.81879668648E-03 -0.34989928065E-01  0.34999902955E-01  0.00000000000E+00 0. -1.
       22    1    1    2    0    0 -0.17411126514E-03 -0.81753662952E-03  0.34641907138E-01  0.34651990001E-01  0.00000000000E+00 0.  1.
       22    1    1    2    0    0  0.76393951774E-05 -0.12600569647E-05  0.34802092680E-03  0.34810704329E-03  0.00000000000E+00 0. -1.
</event>
<event>
 5   0  0.6221259E+05  0.9118800E+02  0.7546771E-02  0.1180000E+00
      -11   -1    0    0    0    0  0.00000000000E+00  0.00000000000E+00  0.34996269501E-01  0.35000000000E-01  0.51099999109E-03 0. -1.
       11   -1    0    0    0    0 -0.00000000000E+00 -0.00000000000E+00 -0.34996269501E-01  0.35000000000E-01  0.51099999109E-03 0. -1.
       22    1    1    2    0    0  0.31209951276E-02 -0.39817286632E-03 -0.29782402364E-02  0.43323281412E-02  0.00000000000E+00 0.  1.
       22    1    1    2    0    0 -0.83633637643E-03 -0.14621193078E-03 -0.31298775084E-01  0.31310288377E-01  0.00000000000E+00 0. -1.
       22    1    1    2    0    0 -0.22846587511E-02  0.54438479710E-03  0.34277015321E-01  0.34357383482E-01  0.00000000000E+00 0. -1.
</event>
<event>
 5   0  0.6221259E+05  0.9118800E+02  0.7546771E-02  0.1180000E+00
      -11   -1    0    0    0    0  0.00000000000E+00  0.00000000000E+00  0.34996269501E-01  0.35000000000E-01  0.51099999109E-03 0. -1.
       11   -1    0    0    0    0 -0.00000000000E+00 -0.00000000000E+00 -0.34996269501E-01  0.35000000000E-01  0.51099999109E-03 0. -1.
       22    1    1    2    0    0  0.14235123368E-02 -0.38485219495E-03 -0.34968921884E-01  0.34999999948E-01  0.00000000000E+00 0. -1.
       22    1    1    2    0    0  0.25954617729E-09  0.61823464711E-09  0.22174145154E-08  0.23165719135E-08  0.00000000000E+00 0. -1.
       22    1    1    2    0    0 -0.14235125963E-02  0.38485157672E-03  0.34968919667E-01  0.34999997736E-01  0.00000000000E+00 0. -1.
</event>
<event>
 5   0  0.6221259E+05  0.9118800E+02  0.7546771E-02  0.1180000E+00
      -11   -1    0    0    0    0  0.00000000000E+00  0.00000000000E+00  0.34996269501E-01  0.35000000000E-01  0.51099999109E-03 0. -1.
       11   -1    0    0    0    0 -0.00000000000E+00 -0.00000000000E+00 -0.34996269501E-01  0.35000000000E-01  0.51099999109E-03 0.  1.
       22    1    1    2    0    0  0.16062559734E-02 -0.34192035746E-01  0.69293253105E-02  0.34924073588E-01  0.00000000000E+00 0.  1.
       22    1    1    2    0    0  0.52601995553E-04 -0.55849062668E-04  0.40376846221E-04  0.86697044055E-04  0.00000000000E+00 0.  1.
       22    1    1    2    0    0 -0.16588579690E-02  0.34247884809E-01 -0.69697021567E-02  0.34989229368E-01  0.00000000000E+00 0. -1.
</event>
<event>
 5   0  0.6221259E+05  0.9118800E+02  0.7546771E-02  0.1180000E+00
      -11   -1    0    0    0    0  0.00000000000E+00  0.00000000000E+00  0.34996269501E-01  0.35000000000E-01  0.51099999109E-03 0. -1.
       11   -1    0    0    0    0 -0.00000000000E+00 -0.00000000000E+00 -0.34996269501E-01  0.35000000000E-01  0.51099999109E-03 0.  1.
       22    1    1    2    0    0  0.16586008809E-02 -0.16161028681E-02  0.85158474168E-02  0.88251007127E-02  0.00000000000E+00 0. -1.
       22    1    1    2    0    0  0.14855354176E-02  0.38118902502E-02 -0.34584518403E-01  0.34825654853E-01  0.00000000000E+00 0.  1.
       22    1    1    2    0    0 -0.31441362985E-02 -0.21957873821E-02  0.26068670986E-01  0.26349244435E-01  0.00000000000E+00 0. -1.
</event>
<event>
 5   0  0.6221259E+05  0.9118800E+02  0.7546771E-02  0.1180000E+00
      -11   -1    0    0    0    0  0.00000000000E+00  0.00000000000E+00  0.34996269501E-01  0.35000000000E-01  0.51099999109E-03 0. -1.
       11   -1    0    0    0    0 -0.00000000000E+00 -0.00000000000E+00 -0.34996269501E-01  0.35000000000E-01  0.51099999109E-03 0.  1.
       22    1    1    2    0    0 -0.59761105849E-02  0.41380463091E-02  0.34236858145E-01  0.34999996866E-01  0.00000000000E+00 0. -1.
       22    1    1    2    0    0 -0.28911065748E-09  0.68216777865E-09  0.30581914853E-08  0.31466606126E-08  0.00000000000E+00 0. -1.
       22    1    1    2    0    0  0.59761108740E-02 -0.41380469912E-02 -0.34236861203E-01  0.34999999987E-01  0.00000000000E+00 0.  1.
</event>
<event>
 5   0  0.6221259E+05  0.9118800E+02  0.7546771E-02  0.1180000E+00
      -11   -1    0    0    0    0  0.00000000000E+00  0.00000000000E+00  0.34996269501E-01  0.35000000000E-01  0.51099999109E-03 0.  1.
       11   -1    0    0    0    0 -0.00000000000E+00 -0.00000000000E+00 -0.34996269501E-01  0.35000000000E-01  0.51099999109E-03 0. -1.
       22    1    1    2    0    0 -0.31407219059E-09  0.54927117680E-08  0.17749861183E-06  0.17758385547E-06  0.00000000000E+00 0.  1.
       22    1    1    2    0    0  0.28288548237E-01 -0.18418439969E-01  0.92472353142E-02  0.34999889332E-01  0.00000000000E+00 0. -1.
       22    1    1    2    0    0 -0.28288547923E-01  0.18418434477E-01 -0.92474128128E-02  0.34999933084E-01  0.00000000000E+00 0.  1.
</event>
<event>
 5   0  0.6221259E+05  0.9118800E+02  0.7546771E-02  0.1180000E+00
      -11   -1    0    0    0    0  0.00000000000E+00  0.00000000000E+00  0.34996269501E-01  0.35000000000E-01  0.51099999109E-03 0. -1.
       11   -1    0    0    0    0 -0.00000000000E+00 -0.00000000000E+00 -0.34996269501E-01  0.35000000000E-01  0.51099999109E-03 0.  1.
       22    1    1    2    0    0 -0.77518354294E-02  0.16458391338E-01 -0.30518904944E-02  0.18446778406E-01  0.00000000000E+00 0. -1.
       22    1    1    2    0    0  0.10289486112E-04 -0.70777250469E-03  0.24121374182E-01  0.24131757918E-01  0.00000000000E+00 0. -1.
       22    1    1    2    0    0  0.77415459433E-02 -0.15750618834E-01 -0.21069483688E-01  0.27421463676E-01  0.00000000000E+00 0.  1.
</event>
<event>
 5   0  0.6221259E+05  0.9118800E+02  0.7546771E-02  0.1180000E+00
      -11   -1    0    0    0    0  0.00000000000E+00  0.00000000000E+00  0.34996269501E-01  0.35000000000E-01  0.51099999109E-03 0.  1.
       11   -1    0    0    0    0 -0.00000000000E+00 -0.00000000000E+00 -0.34996269501E-01  0.35000000000E-01  0.51099999109E-03 0. -1.
       22    1    1    2    0    0  0.29402532850E-05  0.32332237725E-05  0.11243231077E-05  0.45125300878E-05  0.00000000000E+00 0. -1.
       22    1    1    2    0    0  0.18990869288E-03  0.95437419741E-03  0.34983598791E-01  0.34997129593E-01  0.00000000000E+00 0.  1.
       22    1    1    2    0    0 -0.19284894617E-03 -0.95760742119E-03 -0.34984723114E-01  0.34998357876E-01  0.00000000000E+00 0. -1.
</event>
<event>
 5   0  0.6221259E+05  0.9118800E+02  0.7546771E-02  0.1180000E+00
      -11   -1    0    0    0    0  0.00000000000E+00  0.00000000000E+00  0.34996269501E-01  0.35000000000E-01  0.51099999109E-03 0. -1.
       11   -1    0    0    0    0 -0.00000000000E+00 -0.00000000000E+00 -0.34996269501E-01  0.35000000000E-01  0.51099999109E-03 0.  1.
       22    1    1    2    0    0 -0.61856191923E-04 -0.87854732874E-04  0.40792191487E-03  0.42183519436E-03  0.00000000000E+00 0.  1.
       22    1    1    2    0    0 -0.10858025963E-02 -0.16466593481E-03  0.34566532840E-01  0.34583974248E-01  0.00000000000E+00 0. -1.
       22    1    1    2    0    0  0.11476587883E-02  0.25252066768E-03 -0.34974454755E-01  0.34994190558E-01  0.00000000000E+00 0.  1.
</event>
<event>
 5   0  0.6221259E+05  0.9118800E+02  0.7546771E-02  0.1180000E+00
      -11   -1    0    0    0    0  0.00000000000E+00  0.00000000000E+00  0.34996269501E-01  0.35000000000E-01  0.51099999109E-03 0. -1.
       11   -1    0    0    0    0 -0.00000000000E+00 -0.00000000000E+00 -0.34996269501E-01  0.35000000000E-01  0.51099999109E-03 0.  1.
       22    1    1    2    0    0 -0.14485041289E-05 -0.75125009462E-05  0.19331845194E-03  0.19346979014E-03  0.00000000000E+00 0.  1.
       22    1    1    2    0    0 -0.80291972094E-03 -0.42451641130E-02  0.34537697707E-01  0.34806876639E-01  0.00000000000E+00 0. -1.
       22    1    1    2    0    0  0.80436822506E-03  0.42526766139E-02 -0.34731016159E-01  0.34999653571E-01  0.00000000000E+00 0.  1.
</event>
<event>
 5   0  0.6221259E+05  0.9118800E+02  0.7546771E-02  0.1180000E+00
      -11   -1    0    0    0    0  0.00000000000E+00  0.00000000000E+00  0.34996269501E-01  0.35000000000E-01  0.51099999109E-03 0. -1.
       11   -1    0    0    0    0 -0.00000000000E+00 -0.00000000000E+00 -0.34996269501E-01  0.35000000000E-01  0.51099999109E-03 0.  1.
       22    1    1    2    0    0  0.18599490600E-02  0.30544247744E-02  0.34816753681E-01  0.34999932259E-01  0.00000000000E+00 0. -1.
       22    1    1    2    0    0  0.29563905161E-08  0.34490773216E-07  0.61802288705E-07  0.70836971781E-07  0.00000000000E+00 0. -1.
       22    1    1    2    0    0 -0.18599520164E-02 -0.30544592652E-02 -0.34816815483E-01  0.34999996904E-01  0.00000000000E+00 0.  1.
</event>
<event>
 5   0  0.6221259E+05  0.9118800E+02  0.7546771E-02  0.1180000E+00
      -11   -1    0    0    0    0  0.00000000000E+00  0.00000000000E+00  0.34996269501E-01  0.35000000000E-01  0.51099999109E-03 0.  1.
       11   -1    0    0    0    0 -0.00000000000E+00 -0.00000000000E+00 -0.34996269501E-01  0.35000000000E-01  0.51099999109E-03 0. -1.
       22    1    1    2    0    0  0.19476762362E-01 -0.69426893052E-02  0.28239233890E-01  0.34999993394E-01  0.00000000000E+00 0.  1.
       22    1    1    2    0    0 -0.19476763035E-01  0.69426898043E-02 -0.28239240912E-01  0.34999999534E-01  0.00000000000E+00 0. -1.
       22    1    1    2    0    0  0.67394871989E-09 -0.49914395857E-09  0.70223504262E-08  0.70722526169E-08  0.00000000000E+00 0. -1.
</event>
<event>
 5   0  0.6221259E+05  0.9118800E+02  0.7546771E-02  0.1180000E+00
      -11   -1    0    0    0    0  0.00000000000E+00  0.00000000000E+00  0.34996269501E-01  0.35000000000E-01  0.51099999109E-03 0.  1.
       11   -1    0    0    0    0 -0.00000000000E+00 -0.00000000000E+00 -0.34996269501E-01  0.35000000000E-01  0.51099999109E-03 0. -1.
       22    1    1    2    0    0  0.13267063406E-02 -0.19134222316E-02 -0.34922458380E-01  0.34999991909E-01  0.00000000000E+00 0. -1.
       22    1    1    2    0    0 -0.35952585130E-06 -0.90983532204E-07  0.49583305148E-05  0.49721804407E-05  0.00000000000E+00 0. -1.
       22    1    1    2    0    0 -0.13263468147E-02  0.19135132151E-02  0.34917500049E-01  0.34995035911E-01  0.00000000000E+00 0.  1.
</event>
<event>
 5   0  0.6221259E+05  0.9118800E+02  0.7546771E-02  0.1180000E+00
      -11   -1    0    0    0    0  0.00000000000E+00  0.00000000000E+00  0.34996269501E-01  0.35000000000E-01  0.51099999109E-03 0.  1.
       11   -1    0    0    0    0 -0.00000000000E+00 -0.00000000000E+00 -0.34996269501E-01  0.35000000000E-01  0.51099999109E-03 0. -1.
       22    1    1    2    0    0  0.11347182405E-01  0.28580930440E-01  0.16709611202E-01  0.34997703351E-01  0.00000000000E+00 0.  1.
       22    1    1    2    0    0 -0.11347496434E-01 -0.28580442027E-01 -0.16712886535E-01  0.34998970244E-01  0.00000000000E+00 0. -1.
       22    1    1    2    0    0  0.31402905063E-06 -0.48841324589E-06  0.32753336676E-05  0.33264053237E-05  0.00000000000E+00 0.  1.
</event>
<event>
 5   0  0.6221259E+05  0.9118800E+02  0.7546771E-02  0.1180000E+00
      -11   -1    0    0    0    0  0.00000000000E+00  0.00000000000E+00  0.34996269501E-01  0.35000000000E-01  0.51099999109E-03 0. -1.
       11   -1    0    0    0    0 -0.00000000000E+00 -0.00000000000E+00 -0.34996269501E-01  0.35000000000E-01  0.51099999109E-03 0.  1.
       22    1    1    2    0    0 -0.27149135536E-03 -0.40991164542E-03 -0.34241967215E-01  0.34245496841E-01  0.00000000000E+00 0.  1.
       22    1    1    2    0    0 -0.26270694960E-03  0.81555205516E-04 -0.72835101463E-03  0.77856367333E-03  0.00000000000E+00 0.  1.
       22    1    1    2    0    0  0.53419830496E-03  0.32835643991E-03  0.34970318230E-01  0.34975939486E-01  0.00000000000E+00 0. -1.
</event>
<event>
 5   0  0.6221259E+05  0.9118800E+02  0.7546771E-02  0.1180000E+00
      -11   -1    0    0    0    0  0.00000000000E+00  0.00000000000E+00  0.34996269501E-01  0.35000000000E-01  0.51099999109E-03 0. -1.
       11   -1    0    0    0    0 -0.00000000000E+00 -0.00000000000E+00 -0.34996269501E-01  0.35000000000E-01  0.51099999109E-03 0.  1.
       22    1    1    2    0    0 -0.26982526191E-02 -0.16805667043E-02 -0.34854921465E-01  0.34999577455E-01  0.00000000000E+00 0.  1.
       22    1    1    2    0    0  0.34427708947E-04  0.54356179180E-05  0.69415802509E-03  0.69503250059E-03  0.00000000000E+00 0. -1.
       22    1    1    2    0    0  0.26638249102E-02  0.16751310864E-02  0.34160763440E-01  0.34305390045E-01  0.00000000000E+00 0. -1.
</event>
<event>
 5   0  0.6221259E+05  0.9118800E+02  0.7546771E-02  0.1180000E+00
      -11   -1    0    0    0    0  0.00000000000E+00  0.00000000000E+00  0.34996269501E-01  0.35000000000E-01  0.51099999109E-03 0. -1.
       11   -1    0    0    0    0 -0.00000000000E+00 -0.00000000000E+00 -0.34996269501E-01  0.35000000000E-01  0.51099999109E-03 0.  1.
       22    1    1    2    0    0  0.52813848172E-03  0.16438557790E-03  0.33447984133E-01  0.33452557382E-01  0.00000000000E+00 0. -1.
       22    1    1    2    0    0 -0.70645926709E-03  0.10592328391E-03 -0.34977109739E-01  0.34984403813E-01  0.00000000000E+00 0.  1.
       22    1    1    2    0    0  0.17832078537E-03 -0.27030886181E-03  0.15291256066E-02  0.15630388044E-02  0.00000000000E+00 0. -1.
</event>
<event>
 5   0  0.6221259E+05  0.9118800E+02  0.7546771E-02  0.1180000E+00
      -11   -1    0    0    0    0  0.00000000000E+00  0.00000000000E+00  0.34996269501E-01  0.35000000000E-01  0.51099999109E-03 0.  1.
       11   -1    0    0    0    0 -0.00000000000E+00 -0.00000000000E+00 -0.34996269501E-01  0.35000000000E-01  0.51099999109E-03 0. -1.
       22    1    1    2    0    0 -0.20626936665E-05  0.19842885421E-05  0.68614152900E-04  0.68673823866E-04  0.00000000000E+00 0. -1.
       22    1    1    2    0    0 -0.15840195449E-01  0.26573994685E-02  0.31023475616E-01  0.34934647602E-01  0.00000000000E+00 0.  1.
       22    1    1    2    0    0  0.15842258143E-01 -0.26593837570E-02 -0.31092089769E-01  0.34996678574E-01  0.00000000000E+00 0. -1.
</event>
<event>
 5   0  0.6221259E+05  0.9118800E+02  0.7546771E-02  0.1180000E+00
      -11   -1    0    0    0    0  0.00000000000E+00  0.00000000000E+00  0.34996269501E-01  0.35000000000E-01  0.51099999109E-03 0. -1.
       11   -1    0    0    0    0 -0.00000000000E+00 -0.00000000000E+00 -0.34996269501E-01  0.35000000000E-01  0.51099999109E-03 0. -1.
       22    1    1    2    0    0 -0.14153741692E-06  0.19421762540E-06  0.14780456203E-05  0.14974552354E-05  0.00000000000E+00 0.  1.
       22    1    1    2    0    0 -0.83648433044E-03  0.65545175788E-03  0.34982371486E-01  0.34998509080E-01  0.00000000000E+00 0. -1.
       22    1    1    2    0    0  0.83662586786E-03 -0.65564597551E-03 -0.34983849532E-01  0.34999993465E-01  0.00000000000E+00 0. -1.
</event>
<event>
 5   0  0.6221259E+05  0.9118800E+02  0.7546771E-02  0.1180000E+00
      -11   -1    0    0    0    0  0.00000000000E+00  0.00000000000E+00  0.34996269501E-01  0.35000000000E-01  0.51099999109E-03 0. -1.
       11   -1    0    0    0    0 -0.00000000000E+00 -0.00000000000E+00 -0.34996269501E-01  0.35000000000E-01  0.51099999109E-03 0. -1.
       22    1    1    2    0    0 -0.24605376005E-02 -0.16820911643E-02  0.16105908645E-02  0.33878723266E-02  0.00000000000E+00 0.  1.
       22    1    1    2    0    0  0.44658676554E-03 -0.34668430845E-03 -0.34046148361E-01  0.34050842103E-01  0.00000000000E+00 0. -1.
       22    1    1    2    0    0  0.20139508350E-02  0.20287754728E-02  0.32435557496E-01  0.32561285570E-01  0.00000000000E+00 0. -1.
</event>
<event>
 5   0  0.6221259E+05  0.9118800E+02  0.7546771E-02  0.1180000E+00
      -11   -1    0    0    0    0  0.00000000000E+00  0.00000000000E+00  0.34996269501E-01  0.35000000000E-01  0.51099999109E-03 0. -1.
       11   -1    0    0    0    0 -0.00000000000E+00 -0.00000000000E+00 -0.34996269501E-01  0.35000000000E-01  0.51099999109E-03 0.  1.
       22    1    1    2    0    0  0.17725786395E-01 -0.51014457865E-02  0.29744409524E-01  0.34999402143E-01  0.00000000000E+00 0. -1.
       22    1    1    2    0    0 -0.17725807075E-01  0.51014741203E-02 -0.29745047491E-01  0.34999958927E-01  0.00000000000E+00 0.  1.
       22    1    1    2    0    0  0.20680537910E-07 -0.28333819967E-07  0.63796647275E-06  0.63893012948E-06  0.00000000000E+00 0. -1.
</event>
<event>
 5   0  0.6221259E+05  0.9118800E+02  0.7546771E-02  0.1180000E+00
      -11   -1    0    0    0    0  0.00000000000E+00  0.00000000000E+00  0.34996269501E-01  0.35000000000E-01  0.51099999109E-03 0. -1.
       11   -1    0    0    0    0 -0.00000000000E+00 -0.00000000000E+00 -0.34996269501E-01  0.35000000000E-01  0.51099999109E-03 0.  1.
       22    1    1    2    0    0 -0.59691477150E-06 -0.95588713980E-06  0.38206165238E-06  0.11899573836E-05  0.00000000000E+00 0.  1.
       22    1    1    2    0    0  0.12376912387E-01  0.10076152617E-02  0.32722331084E-01  0.34999345713E-01  0.00000000000E+00 0. -1.
       22    1    1    2    0    0 -0.12376315472E-01 -0.10066593745E-02 -0.32722713146E-01  0.34999464330E-01  0.00000000000E+00 0.  1.
</event>
<event>
 5   0  0.6221259E+05  0.9118800E+02  0.7546771E-02  0.1180000E+00
      -11   -1    0    0    0    0  0.00000000000E+00  0.00000000000E+00  0.34996269501E-01  0.35000000000E-01  0.51099999109E-03 0.  1.
       11   -1    0    0    0    0 -0.00000000000E+00 -0.00000000000E+00 -0.34996269501E-01  0.35000000000E-01  0.51099999109E-03 0. -1.
       22    1    1    2    0    0 -0.45437757736E-05 -0.41261770963E-03 -0.34997513994E-01  0.34999946569E-01  0.00000000000E+00 0. -1.
       22    1    1    2    0    0  0.13829779523E-05  0.35180427600E-06  0.91570829474E-05  0.92676082336E-05  0.00000000000E+00 0. -1.
       22    1    1    2    0    0  0.31607978213E-05  0.41226590535E-03  0.34988356911E-01  0.34990785823E-01  0.00000000000E+00 0.  1.
</event>
<event>
 5   0  0.6221259E+05  0.9118800E+02  0.7546771E-02  0.1180000E+00
      -11   -1    0    0    0    0  0.00000000000E+00  0.00000000000E+00  0.34996269501E-01  0.35000000000E-01  0.51099999109E-03 0.  1.
       11   -1    0    0    0    0 -0.00000000000E+00 -0.00000000000E+00 -0.34996269501E-01  0.35000000000E-01  0.51099999109E-03 0.  1.
       22    1    1    2    0    0  0.52493960394E-07 -0.15591359646E-06  0.11622561147E-05  0.11738415317E-05  0.00000000000E+00 0. -1.
       22    1    1    2    0    0 -0.52499501607E-07  0.15593005455E-06  0.35002489613E-01  0.34998831891E-01  0.00000000000E+00 0.  1.
       22    1    1    2    0    0  0.55412125297E-11 -0.16458090945E-10 -0.35003651869E-01  0.34999994268E-01  0.00000000000E+00 0.  1.
</event>
<event>
 5   0  0.6221259E+05  0.9118800E+02  0.7546771E-02  0.1180000E+00
      -11   -1    0    0    0    0  0.00000000000E+00  0.00000000000E+00  0.34996269501E-01  0.35000000000E-01  0.51099999109E-03 0. -1.
       11   -1    0    0    0    0 -0.00000000000E+00 -0.00000000000E+00 -0.34996269501E-01  0.35000000000E-01  0.51099999109E-03 0.  1.
       22    1    1    2    0    0 -0.35811905011E-03 -0.24039213067E-02 -0.34914884423E-01  0.34999374868E-01  0.00000000000E+00 0.  1.
       22    1    1    2    0    0  0.37366736533E-03  0.23940173558E-02  0.34801953159E-01  0.34886199134E-01  0.00000000000E+00 0. -1.
       22    1    1    2    0    0 -0.15548315215E-04  0.99039508712E-05  0.11293126445E-03  0.11442599722E-03  0.00000000000E+00 0.  1.
</event>
<event>
 5   0  0.6221259E+05  0.9118800E+02  0.7546771E-02  0.1180000E+00
      -11   -1    0    0    0    0  0.00000000000E+00  0.00000000000E+00  0.34996269501E-01  0.35000000000E-01  0.51099999109E-03 0.  1.
       11   -1    0    0    0    0 -0.00000000000E+00 -0.00000000000E+00 -0.34996269501E-01  0.35000000000E-01  0.51099999109E-03 0. -1.
       22    1    1    2    0    0 -0.19050902935E-06  0.17999687417E-05 -0.95855736573E-06  0.20481731823E-05  0.00000000000E+00 0. -1.
       22    1    1    2    0    0 -0.60731329869E-03 -0.78144241193E-03 -0.34984519257E-01  0.34998515244E-01  0.00000000000E+00 0. -1.
       22    1    1    2    0    0  0.60750380772E-03  0.77964244319E-03  0.34985477814E-01  0.34999436583E-01  0.00000000000E+00 0.  1.
</event>
<event>
 5   0  0.6221259E+05  0.9118800E+02  0.7546771E-02  0.1180000E+00
      -11   -1    0    0    0    0  0.00000000000E+00  0.00000000000E+00  0.34996269501E-01  0.35000000000E-01  0.51099999109E-03 0.  1.
       11   -1    0    0    0    0 -0.00000000000E+00 -0.00000000000E+00 -0.34996269501E-01  0.35000000000E-01  0.51099999109E-03 0. -1.
       22    1    1    2    0    0  0.35295114115E-02  0.11626387875E-01  0.27221957628E-01  0.29810490149E-01  0.00000000000E+00 0.  1.
       22    1    1    2    0    0 -0.53898499686E-02 -0.91647551017E-02  0.19885077180E-02  0.10816532795E-01  0.00000000000E+00 0. -1.
       22    1    1    2    0    0  0.18603385570E-02 -0.24616327732E-02 -0.29210465346E-01  0.29372977057E-01  0.00000000000E+00 0. -1.
</event>
<event>
 5   0  0.6221259E+05  0.9118800E+02  0.7546771E-02  0.1180000E+00
      -11   -1    0    0    0    0  0.00000000000E+00  0.00000000000E+00  0.34996269501E-01  0.35000000000E-01  0.51099999109E-03 0. -1.
       11   -1    0    0    0    0 -0.00000000000E+00 -0.00000000000E+00 -0.34996269501E-01  0.35000000000E-01  0.51099999109E-03 0.  1.
       22    1    1    2    0    0  0.13687642811E-02 -0.18634556380E-03  0.34972552036E-01  0.34999823375E-01  0.00000000000E+00 0. -1.
       22    1    1    2    0    0 -0.18654916519E-06  0.88110647763E-07  0.12161960212E-06  0.23948988476E-06  0.00000000000E+00 0.  1.
       22    1    1    2    0    0 -0.13685777319E-02  0.18625745316E-03 -0.34972673656E-01  0.34999937135E-01  0.00000000000E+00 0.  1.
</event>
<event>
 5   0  0.6221259E+05  0.9118800E+02  0.7546771E-02  0.1180000E+00
      -11   -1    0    0    0    0  0.00000000000E+00  0.00000000000E+00  0.34996269501E-01  0.35000000000E-01  0.51099999109E-03 0. -1.
       11   -1    0    0    0    0 -0.00000000000E+00 -0.00000000000E+00 -0.34996269501E-01  0.35000000000E-01  0.51099999109E-03 0.  1.
       22    1    1    2    0    0  0.33861011444E-02  0.31215580165E-02  0.34693947619E-01  0.34998282913E-01  0.00000000000E+00 0. -1.
       22    1    1    2    0    0 -0.33849917446E-02 -0.31200958481E-02 -0.34695332354E-01  0.34999417915E-01  0.00000000000E+00 0.  1.
       22    1    1    2    0    0 -0.11093997996E-05 -0.14621684210E-05  0.13847348060E-05  0.22991726533E-05  0.00000000000E+00 0. -1.
</event>
<event>
 5   0  0.6221259E+05  0.9118800E+02  0.7546771E-02  0.1180000E+00
      -11   -1    0    0    0    0  0.00000000000E+00  0.00000000000E+00  0.34996269501E-01  0.35000000000E-01  0.51099999109E-03 0.  1.
       11   -1    0    0    0    0 -0.00000000000E+00 -0.00000000000E+00 -0.34996269501E-01  0.35000000000E-01  0.51099999109E-03 0. -1.
       22    1    1    2    0    0  0.97000114675E-02  0.78471532110E-03  0.33619830231E-01  0.34999985506E-01  0.00000000000E+00 0.  1.
       22    1    1    2    0    0 -0.27186933760E-08 -0.12595206209E-08  0.15033752934E-07  0.15329429642E-07  0.00000000000E+00 0.  1.
       22    1    1    2    0    0 -0.97000087488E-02 -0.78471406158E-03 -0.33619845265E-01  0.34999999165E-01  0.00000000000E+00 0. -1.
</event>
<event>
 5   0  0.6221259E+05  0.9118800E+02  0.7546771E-02  0.1180000E+00
      -11   -1    0    0    0    0  0.00000000000E+00  0.00000000000E+00  0.34996269501E-01  0.35000000000E-01  0.51099999109E-03 0. -1.
       11   -1    0    0    0    0 -0.00000000000E+00 -0.00000000000E+00 -0.34996269501E-01  0.35000000000E-01  0.51099999109E-03 0.  1.
       22    1    1    2    0    0 -0.36555336285E-02  0.13504042492E-02  0.34781281062E-01  0.34998914699E-01  0.00000000000E+00 0. -1.
       22    1    1    2    0    0  0.36543023533E-02 -0.13501058407E-02 -0.34782092371E-01  0.34999580872E-01  0.00000000000E+00 0.  1.
       22    1    1    2    0    0  0.12312751589E-05 -0.29840849275E-06  0.81130904361E-06  0.15044296294E-05  0.00000000000E+00 0. -1.
</event>
<event>
 5   0  0.6221259E+05  0.9118800E+02  0.7546771E-02  0.1180000E+00
      -11   -1    0    0    0    0  0.00000000000E+00  0.00000000000E+00  0.34996269501E-01  0.35000000000E-01  0.51099999109E-03 0.  1.
       11   -1    0    0    0    0 -0.00000000000E+00 -0.00000000000E+00 -0.34996269501E-01  0.35000000000E-01  0.51099999109E-03 0. -1.
       22    1    1    2    0    0 -0.17500616511E-02  0.12122501251E-01 -0.59962661808E-02  0.13637190344E-01  0.00000000000E+00 0. -1.
       22    1    1    2    0    0  0.41874927306E-02 -0.80702544985E-02  0.30283811004E-01  0.31619192146E-01  0.00000000000E+00 0.  1.
       22    1    1    2    0    0 -0.24374310795E-02 -0.40522467522E-02 -0.24287544823E-01  0.24743617511E-01  0.00000000000E+00 0. -1.
</event>
<event>
 5   0  0.6221259E+05  0.9118800E+02  0.7546771E-02  0.1180000E+00
      -11   -1    0    0    0    0  0.00000000000E+00  0.00000000000E+00  0.34996269501E-01  0.35000000000E-01  0.51099999109E-03 0. -1.
       11   -1    0    0    0    0 -0.00000000000E+00 -0.00000000000E+00 -0.34996269501E-01  0.35000000000E-01  0.51099999109E-03 0.  1.
       22    1    1    2    0    0 -0.18076852713E-04 -0.47432904537E-05  0.71387256041E-03  0.71411714999E-03  0.00000000000E+00 0.  1.
       22    1    1    2    0    0  0.27938193108E-02 -0.18465177914E-02  0.34124338265E-01  0.34288270827E-01  0.00000000000E+00 0. -1.
       22    1    1    2    0    0 -0.27757424581E-02  0.18512610819E-02 -0.34838210825E-01  0.34997612023E-01  0.00000000000E+00 0.  1.
</event>
<event>
 5   0  0.6221259E+05  0.9118800E+02  0.7546771E-02  0.1180000E+00
      -11   -1    0    0    0    0  0.00000000000E+00  0.00000000000E+00  0.34996269501E-01  0.35000000000E-01  0.51099999109E-03 0. -1.
       11   -1    0    0    0    0 -0.00000000000E+00 -0.00000000000E+00 -0.34996269501E-01  0.35000000000E-01  0.51099999109E-03 0.  1.
       22    1    1    2    0    0  0.68812756569E-03  0.88143377339E-04 -0.10999760875E-01  0.11021616402E-01  0.00000000000E+00 0. -1.
       22    1    1    2    0    0  0.39689575505E-02  0.71531727344E-02 -0.22735177137E-01  0.24162135329E-01  0.00000000000E+00 0.  1.
       22    1    1    2    0    0 -0.46570851162E-02 -0.72413161118E-02  0.33734938012E-01  0.34816248269E-01  0.00000000000E+00 0. -1.
</event>
<event>
 5   0  0.6221259E+05  0.9118800E+02  0.7546771E-02  0.1180000E+00
      -11   -1    0    0    0    0  0.00000000000E+00  0.00000000000E+00  0.34996269501E-01  0.35000000000E-01  0.51099999109E-03 0. -1.
       11   -1    0    0    0    0 -0.00000000000E+00 -0.00000000000E+00 -0.34996269501E-01  0.35000000000E-01  0.51099999109E-03 0.  1.
       22    1    1    2    0    0 -0.77244541072E-03  0.15263091767E-02 -0.34079031491E-01  0.34121938382E-01  0.00000000000E+00 0.  1.
       22    1    1    2    0    0 -0.48189405924E-03 -0.14397194555E-02 -0.23907048635E-03  0.15369348367E-02  0.00000000000E+00 0. -1.
       22    1    1    2    0    0  0.12543394700E-02 -0.86589721230E-04  0.34318101977E-01  0.34341126781E-01  0.00000000000E+00 0. -1.
</event>
<event>
 5   0  0.6221259E+05  0.9118800E+02  0.7546771E-02  0.1180000E+00
      -11   -1    0    0    0    0  0.00000000000E+00  0.00000000000E+00  0.34996269501E-01  0.35000000000E-01  0.51099999109E-03 0. -1.
       11   -1    0    0    0    0 -0.00000000000E+00 -0.00000000000E+00 -0.34996269501E-01  0.35000000000E-01  0.51099999109E-03 0.  1.
       22    1    1    2    0    0  0.59147863049E-03 -0.19101605161E-01  0.29287601142E-01  0.34971198827E-01  0.00000000000E+00 0. -1.
       22    1    1    2    0    0 -0.53980919840E-03  0.19012662058E-01 -0.29292335242E-01  0.34925830218E-01  0.00000000000E+00 0.  1.
       22    1    1    2    0    0 -0.51669432087E-04  0.88943103363E-04  0.47341001250E-05  0.10297095489E-03  0.00000000000E+00 0.  1.
</event>
<event>
 5   0  0.6221259E+05  0.9118800E+02  0.7546771E-02  0.1180000E+00
      -11   -1    0    0    0    0  0.00000000000E+00  0.00000000000E+00  0.34996269501E-01  0.35000000000E-01  0.51099999109E-03 0. -1.
       11   -1    0    0    0    0 -0.00000000000E+00 -0.00000000000E+00 -0.34996269501E-01  0.35000000000E-01  0.51099999109E-03 0.  1.
       22    1    1    2    0    0 -0.25227139921E-02 -0.18948371374E-02 -0.34857471971E-01  0.34999969227E-01  0.00000000000E+00 0.  1.
       22    1    1    2    0    0  0.25230664230E-02  0.18948728730E-02  0.34851774242E-01  0.34994322043E-01  0.00000000000E+00 0. -1.
       22    1    1    2    0    0 -0.35243089045E-06 -0.35735581443E-07  0.56977291174E-05  0.57087303019E-05  0.00000000000E+00 0.  1.
</event>
<event>
 5   0  0.6221259E+05  0.9118800E+02  0.7546771E-02  0.1180000E+00
      -11   -1    0    0    0    0  0.00000000000E+00  0.00000000000E+00  0.34996269501E-01  0.35000000000E-01  0.51099999109E-03 0. -1.
       11   -1    0    0    0    0 -0.00000000000E+00 -0.00000000000E+00 -0.34996269501E-01  0.35000000000E-01  0.51099999109E-03 0.  1.
       22    1    1    2    0    0  0.11108407693E-02  0.14154342849E-02 -0.34662779206E-01  0.34709446606E-01  0.00000000000E+00 0.  1.
       22    1    1    2    0    0 -0.14270580031E-02 -0.13646165918E-02  0.34859048361E-01  0.34914924111E-01  0.00000000000E+00 0. -1.
       22    1    1    2    0    0  0.31621723381E-03 -0.50817693080E-04 -0.19626915530E-03  0.37562928295E-03  0.00000000000E+00 0. -1.
</event>
<event>
 5   0  0.6221259E+05  0.9118800E+02  0.7546771E-02  0.1180000E+00
      -11   -1    0    0    0    0  0.00000000000E+00  0.00000000000E+00  0.34996269501E-01  0.35000000000E-01  0.51099999109E-03 0. -1.
       11   -1    0    0    0    0 -0.00000000000E+00 -0.00000000000E+00 -0.34996269501E-01  0.35000000000E-01  0.51099999109E-03 0. -1.
       22    1    1    2    0    0  0.53821897543E-08  0.27413432388E-08  0.35134595442E-07  0.35650003172E-07  0.00000000000E+00 0.  1.
       22    1    1    2    0    0 -0.53826865734E-08 -0.27415962867E-08  0.35002694970E-01  0.34999964606E-01  0.00000000000E+00 0. -1.
       22    1    1    2    0    0  0.49681909345E-12  0.25304787177E-12 -0.35002730105E-01  0.34999999744E-01  0.00000000000E+00 0. -1.
</event>
<event>
 5   0  0.6221259E+05  0.9118800E+02  0.7546771E-02  0.1180000E+00
      -11   -1    0    0    0    0  0.00000000000E+00  0.00000000000E+00  0.34996269501E-01  0.35000000000E-01  0.51099999109E-03 0.  1.
       11   -1    0    0    0    0 -0.00000000000E+00 -0.00000000000E+00 -0.34996269501E-01  0.35000000000E-01  0.51099999109E-03 0. -1.
       22    1    1    2    0    0  0.34983037757E-06 -0.64266996100E-05 -0.35073667090E-03  0.35079571999E-03  0.00000000000E+00 0.  1.
       22    1    1    2    0    0 -0.10914937186E-01  0.18871471540E-02 -0.32840816707E-01  0.34658569216E-01  0.00000000000E+00 0. -1.
       22    1    1    2    0    0  0.10914587356E-01 -0.18807204544E-02  0.33191553377E-01  0.34990635064E-01  0.00000000000E+00 0.  1.
</event>
<event>
 5   0  0.6221259E+05  0.9118800E+02  0.7546771E-02  0.1180000E+00
      -11   -1    0    0    0    0  0.00000000000E+00  0.00000000000E+00  0.34996269501E-01  0.35000000000E-01  0.51099999109E-03 0. -1.
       11   -1    0    0    0    0 -0.00000000000E+00 -0.00000000000E+00 -0.34996269501E-01  0.35000000000E-01  0.51099999109E-03 0.  1.
       22    1    1    2    0    0  0.13049161305E-02 -0.33716315817E-02 -0.34686973310E-01  0.34874873807E-01  0.00000000000E+00 0.  1.
       22    1    1    2    0    0 -0.77633769901E-03  0.21556934590E-02  0.32405297602E-01  0.32486197488E-01  0.00000000000E+00 0. -1.
       22    1    1    2    0    0 -0.52857843151E-03  0.12159381227E-02  0.22816757078E-02  0.26389287054E-02  0.00000000000E+00 0.  1.
</event>
<event>
 5   0  0.6221259E+05  0.9118800E+02  0.7546771E-02  0.1180000E+00
      -11   -1    0    0    0    0  0.00000000000E+00  0.00000000000E+00  0.34996269501E-01  0.35000000000E-01  0.51099999109E-03 0. -1.
       11   -1    0    0    0    0 -0.00000000000E+00 -0.00000000000E+00 -0.34996269501E-01  0.35000000000E-01  0.51099999109E-03 0. -1.
       22    1    1    2    0    0  0.11948584632E-03 -0.42156658350E-03  0.34621626728E-01  0.34624399382E-01  0.00000000000E+00 0. -1.
       22    1    1    2    0    0 -0.39303630989E-03 -0.32098298380E-03 -0.34579418400E-01  0.34583141623E-01  0.00000000000E+00 0. -1.
       22    1    1    2    0    0  0.27355046357E-03  0.74254956730E-03 -0.42208327763E-04  0.79245899512E-03  0.00000000000E+00 0.  1.
</event>
<event>
 5   0  0.6221259E+05  0.9118800E+02  0.7546771E-02  0.1180000E+00
      -11   -1    0    0    0    0  0.00000000000E+00  0.00000000000E+00  0.34996269501E-01  0.35000000000E-01  0.51099999109E-03 0. -1.
       11   -1    0    0    0    0 -0.00000000000E+00 -0.00000000000E+00 -0.34996269501E-01  0.35000000000E-01  0.51099999109E-03 0.  1.
       22    1    1    2    0    0  0.24693537933E-02  0.88624667513E-02  0.32927644948E-01  0.34188752930E-01  0.00000000000E+00 0. -1.
       22    1    1    2    0    0 -0.27863176000E-04  0.16670190467E-03  0.79639817320E-03  0.81413508208E-03  0.00000000000E+00 0. -1.
       22    1    1    2    0    0 -0.24414906173E-02 -0.90291686560E-02 -0.33724043121E-01  0.34997111988E-01  0.00000000000E+00 0.  1.
</event>
<event>
 5   0  0.6221259E+05  0.9118800E+02  0.7546771E-02  0.1180000E+00
      -11   -1    0    0    0    0  0.00000000000E+00  0.00000000000E+00  0.34996269501E-01  0.35000000000E-01  0.51099999109E-03 0. -1.
       11   -1    0    0    0    0 -0.00000000000E+00 -0.00000000000E+00 -0.34996269501E-01  0.35000000000E-01  0.51099999109E-03 0.  1.
       22    1    1    2    0    0 -0.27996787736E-07  0.79314269889E-07  0.72745152170E-07  0.11120445448E-06  0.00000000000E+00 0.  1.
       22    1    1    2    0    0 -0.10832253108E-04  0.35312695502E-03  0.34998124487E-01  0.34999907623E-01  0.00000000000E+00 0. -1.
       22    1    1    2    0    0  0.10860249896E-04 -0.35320626929E-03 -0.34998197232E-01  0.34999981173E-01  0.00000000000E+00 0.  1.
</event>
<event>
 5   0  0.6221259E+05  0.9118800E+02  0.7546771E-02  0.1180000E+00
      -11   -1    0    0    0    0  0.00000000000E+00  0.00000000000E+00  0.34996269501E-01  0.35000000000E-01  0.51099999109E-03 0.  1.
       11   -1    0    0    0    0 -0.00000000000E+00 -0.00000000000E+00 -0.34996269501E-01  0.35000000000E-01  0.51099999109E-03 0. -1.
       22    1    1    2    0    0 -0.30122241113E-03  0.33806935829E-04 -0.11504487913E-02  0.11897101627E-02  0.00000000000E+00 0.  1.
       22    1    1    2    0    0 -0.12498791644E-02 -0.21649407421E-03  0.34950831326E-01  0.34973842769E-01  0.00000000000E+00 0.  1.
       22    1    1    2    0    0  0.15511015755E-02  0.18268713838E-03 -0.33800382535E-01  0.33836447068E-01  0.00000000000E+00 0. -1.
</event>
<event>
 5   0  0.6221259E+05  0.9118800E+02  0.7546771E-02  0.1180000E+00
      -11   -1    0    0    0    0  0.00000000000E+00  0.00000000000E+00  0.34996269501E-01  0.35000000000E-01  0.51099999109E-03 0. -1.
       11   -1    0    0    0    0 -0.00000000000E+00 -0.00000000000E+00 -0.34996269501E-01  0.35000000000E-01  0.51099999109E-03 0.  1.
       22    1    1    2    0    0  0.11788980554E-01 -0.60174896895E-02  0.23337183539E-01  0.26829356687E-01  0.00000000000E+00 0. -1.
       22    1    1    2    0    0  0.12029925296E-02  0.17144788077E-02 -0.28475065570E-01  0.28551987458E-01  0.00000000000E+00 0.  1.
       22    1    1    2    0    0 -0.12991973084E-01  0.43030108819E-02  0.51378820303E-02  0.14618655855E-01  0.00000000000E+00 0.  1.
</event>
<event>
 5   0  0.6221259E+05  0.9118800E+02  0.7546771E-02  0.1180000E+00
      -11   -1    0    0    0    0  0.00000000000E+00  0.00000000000E+00  0.34996269501E-01  0.35000000000E-01  0.51099999109E-03 0.  1.
       11   -1    0    0    0    0 -0.00000000000E+00 -0.00000000000E+00 -0.34996269501E-01  0.35000000000E-01  0.51099999109E-03 0. -1.
       22    1    1    2    0    0  0.27297207992E-07  0.49963841211E-08  0.54431721176E-06  0.54502415399E-06  0.00000000000E+00 0.  1.
       22    1    1    2    0    0  0.30125926690E-02 -0.40863426269E-02  0.34629295436E-01  0.34999457325E-01  0.00000000000E+00 0.  1.
       22    1    1    2    0    0 -0.30126199662E-02  0.40863376305E-02 -0.34629839753E-01  0.34999997651E-01  0.00000000000E+00 0. -1.
</event>
<event>
 5   0  0.6221259E+05  0.9118800E+02  0.7546771E-02  0.1180000E+00
      -11   -1    0    0    0    0  0.00000000000E+00  0.00000000000E+00  0.34996269501E-01  0.35000000000E-01  0.51099999109E-03 0. -1.
       11   -1    0    0    0    0 -0.00000000000E+00 -0.00000000000E+00 -0.34996269501E-01  0.35000000000E-01  0.51099999109E-03 0.  1.
       22    1    1    2    0    0  0.30094523656E-06 -0.64035988100E-07  0.40275795434E-06  0.50683588366E-06  0.00000000000E+00 0.  1.
       22    1    1    2    0    0  0.91588487963E-02  0.50902852623E-03  0.33776061229E-01  0.34999513331E-01  0.00000000000E+00 0. -1.
       22    1    1    2    0    0 -0.91591497416E-02 -0.50896449025E-03 -0.33776463987E-01  0.34999979833E-01  0.00000000000E+00 0.  1.
</event>
<event>
 5   0  0.6221259E+05  0.9118800E+02  0.7546771E-02  0.1180000E+00
      -11   -1    0    0    0    0  0.00000000000E+00  0.00000000000E+00  0.34996269501E-01  0.35000000000E-01  0.51099999109E-03 0.  1.
       11   -1    0    0    0    0 -0.00000000000E+00 -0.00000000000E+00 -0.34996269501E-01  0.35000000000E-01  0.51099999109E-03 0. -1.
       22    1    1    2    0    0 -0.45050966389E-03 -0.31564068241E-01 -0.15116290514E-01  0.34999937168E-01  0.00000000000E+00 0. -1.
       22    1    1    2    0    0  0.63330164638E-08  0.87780173865E-08  0.23483583368E-06  0.23508515365E-06  0.00000000000E+00 0.  1.
       22    1    1    2    0    0  0.45050333087E-03  0.31564059463E-01  0.15116055679E-01  0.34999827747E-01  0.00000000000E+00 0.  1.
</event>
<event>
 5   0  0.6221259E+05  0.9118800E+02  0.7546771E-02  0.1180000E+00
      -11   -1    0    0    0    0  0.00000000000E+00  0.00000000000E+00  0.34996269501E-01  0.35000000000E-01  0.51099999109E-03 0. -1.
       11   -1    0    0    0    0 -0.00000000000E+00 -0.00000000000E+00 -0.34996269501E-01  0.35000000000E-01  0.51099999109E-03 0.  1.
       22    1    1    2    0    0 -0.11877556102E-01  0.10843910467E-01 -0.31015601281E-01  0.34937576562E-01  0.00000000000E+00 0.  1.
       22    1    1    2    0    0 -0.13030117398E-03 -0.12135681031E-04  0.75652898091E-04  0.15115896164E-03  0.00000000000E+00 0.  1.
       22    1    1    2    0    0  0.12007857276E-01 -0.10831774786E-01  0.30939948383E-01  0.34911264476E-01  0.00000000000E+00 0. -1.
</event>
<event>
 5   0  0.6221259E+05  0.9118800E+02  0.7546771E-02  0.1180000E+00
      -11   -1    0    0    0    0  0.00000000000E+00  0.00000000000E+00  0.34996269501E-01  0.35000000000E-01  0.51099999109E-03 0. -1.
       11   -1    0    0    0    0 -0.00000000000E+00 -0.00000000000E+00 -0.34996269501E-01  0.35000000000E-01  0.51099999109E-03 0.  1.
       22    1    1    2    0    0 -0.32507173847E-02 -0.15350052637E-01  0.21493299829E-01  0.26611148360E-01  0.00000000000E+00 0. -1.
       22    1    1    2    0    0  0.94717054130E-03  0.12257804533E-02 -0.27733428354E-01  0.27776657790E-01  0.00000000000E+00 0.  1.
       22    1    1    2    0    0  0.23035468434E-02  0.14124272184E-01  0.62401285243E-02  0.15612193849E-01  0.00000000000E+00 0.  1.
</event>
<event>
 5   0  0.6221259E+05  0.9118800E+02  0.7546771E-02  0.1180000E+00
      -11   -1    0    0    0    0  0.00000000000E+00  0.00000000000E+00  0.34996269501E-01  0.35000000000E-01  0.51099999109E-03 0. -1.
       11   -1    0    0    0    0 -0.00000000000E+00 -0.00000000000E+00 -0.34996269501E-01  0.35000000000E-01  0.51099999109E-03 0.  1.
       22    1    1    2    0    0 -0.10463546288E-01 -0.13948974225E-02  0.33228780467E-01  0.34865217496E-01  0.00000000000E+00 0. -1.
       22    1    1    2    0    0 -0.13192171827E-04 -0.37750642564E-05  0.13555662815E-03  0.13624934475E-03  0.00000000000E+00 0. -1.
       22    1    1    2    0    0  0.10476738460E-01  0.13986724868E-02 -0.33364337095E-01  0.34998533159E-01  0.00000000000E+00 0.  1.
</event>
<event>
 5   0  0.6221259E+05  0.9118800E+02  0.7546771E-02  0.1180000E+00
      -11   -1    0    0    0    0  0.00000000000E+00  0.00000000000E+00  0.34996269501E-01  0.35000000000E-01  0.51099999109E-03 0.  1.
       11   -1    0    0    0    0 -0.00000000000E+00 -0.00000000000E+00 -0.34996269501E-01  0.35000000000E-01  0.51099999109E-03 0. -1.
       22    1    1    2    0    0 -0.40566194232E-02  0.76318756872E-02 -0.35931278502E-02  0.93601418471E-02  0.00000000000E+00 0. -1.
       22    1    1    2    0    0  0.24672058741E-02 -0.11668380201E-01 -0.27117540811E-01  0.29624301190E-01  0.00000000000E+00 0. -1.
       22    1    1    2    0    0  0.15894135491E-02  0.40365045140E-02  0.30710668661E-01  0.31015556963E-01  0.00000000000E+00 0.  1.
</event>
<event>
 5   0  0.6221259E+05  0.9118800E+02  0.7546771E-02  0.1180000E+00
      -11   -1    0    0    0    0  0.00000000000E+00  0.00000000000E+00  0.34996269501E-01  0.35000000000E-01  0.51099999109E-03 0. -1.
       11   -1    0    0    0    0 -0.00000000000E+00 -0.00000000000E+00 -0.34996269501E-01  0.35000000000E-01  0.51099999109E-03 0.  1.
       22    1    1    2    0    0 -0.36277090380E-02 -0.22914084711E-02  0.34666387179E-01  0.34930920768E-01  0.00000000000E+00 0. -1.
       22    1    1    2    0    0  0.27342356964E-05 -0.12533624448E-05  0.69409572198E-04  0.69474712485E-04  0.00000000000E+00 0. -1.
       22    1    1    2    0    0  0.36249748023E-02  0.22926618336E-02 -0.34735796751E-01  0.34999604520E-01  0.00000000000E+00 0.  1.
</event>
<event>
 5   0  0.6221259E+05  0.9118800E+02  0.7546771E-02  0.1180000E+00
      -11   -1    0    0    0    0  0.00000000000E+00  0.00000000000E+00  0.34996269501E-01  0.35000000000E-01  0.51099999109E-03 0. -1.
       11   -1    0    0    0    0 -0.00000000000E+00 -0.00000000000E+00 -0.34996269501E-01  0.35000000000E-01  0.51099999109E-03 0.  1.
       22    1    1    2    0    0 -0.19506082863E-04  0.26812948343E-03  0.34401896980E-01  0.34402947399E-01  0.00000000000E+00 0. -1.
       22    1    1    2    0    0  0.44951942784E-03  0.46064377970E-03  0.41762579160E-03  0.76724944418E-03  0.00000000000E+00 0. -1.
       22    1    1    2    0    0 -0.43001334498E-03 -0.72877326313E-03 -0.34819522771E-01  0.34829803157E-01  0.00000000000E+00 0.  1.
</event>
<event>
 5   0  0.6221259E+05  0.9118800E+02  0.7546771E-02  0.1180000E+00
      -11   -1    0    0    0    0  0.00000000000E+00  0.00000000000E+00  0.34996269501E-01  0.35000000000E-01  0.51099999109E-03 0. -1.
       11   -1    0    0    0    0 -0.00000000000E+00 -0.00000000000E+00 -0.34996269501E-01  0.35000000000E-01  0.51099999109E-03 0.  1.
       22    1    1    2    0    0 -0.88503874499E-04 -0.55881212339E-04 -0.31153845296E-03  0.32865156833E-03  0.00000000000E+00 0. -1.
       22    1    1    2    0    0  0.75813963963E-02  0.75479016323E-02 -0.33012837110E-01  0.34702965355E-01  0.00000000000E+00 0.  1.
       22    1    1    2    0    0 -0.74928925218E-02 -0.74920204200E-02  0.33324375563E-01  0.34968383077E-01  0.00000000000E+00 0. -1.
</event>
<event>
 5   0  0.6221259E+05  0.9118800E+02  0.7546771E-02  0.1180000E+00
      -11   -1    0    0    0    0  0.00000000000E+00  0.00000000000E+00  0.34996269501E-01  0.35000000000E-01  0.51099999109E-03 0. -1.
       11   -1    0    0    0    0 -0.00000000000E+00 -0.00000000000E+00 -0.34996269501E-01  0.35000000000E-01  0.51099999109E-03 0.  1.
       22    1    1    2    0    0 -0.37911738290E-02 -0.81496218957E-04 -0.34447903345E-01  0.34655990615E-01  0.00000000000E+00 0.  1.
       22    1    1    2    0    0  0.35940815785E-02 -0.14844896047E-02  0.84899351128E-02  0.93381009847E-02  0.00000000000E+00 0. -1.
       22    1    1    2    0    0  0.19709225049E-03  0.15659858237E-02  0.25957968232E-01  0.26005908400E-01  0.00000000000E+00 0. -1.
</event>
<event>
 5   0  0.6221259E+05  0.9118800E+02  0.7546771E-02  0.1180000E+00
      -11   -1    0    0    0    0  0.00000000000E+00  0.00000000000E+00  0.34996269501E-01  0.35000000000E-01  0.51099999109E-03 0. -1.
       11   -1    0    0    0    0 -0.00000000000E+00 -0.00000000000E+00 -0.34996269501E-01  0.35000000000E-01  0.51099999109E-03 0.  1.
       22    1    1    2    0    0  0.79793233178E-02  0.52294586038E-02 -0.33484661481E-01  0.34817228384E-01  0.00000000000E+00 0.  1.
       22    1    1    2    0    0 -0.74551252152E-02 -0.52038671004E-02  0.23699809652E-01  0.25383855151E-01  0.00000000000E+00 0. -1.
       22    1    1    2    0    0 -0.52419810254E-03 -0.25591503403E-04  0.97848518282E-02  0.97989164644E-02  0.00000000000E+00 0. -1.
</event>
<event>
 5   0  0.6221259E+05  0.9118800E+02  0.7546771E-02  0.1180000E+00
      -11   -1    0    0    0    0  0.00000000000E+00  0.00000000000E+00  0.34996269501E-01  0.35000000000E-01  0.51099999109E-03 0.  1.
       11   -1    0    0    0    0 -0.00000000000E+00 -0.00000000000E+00 -0.34996269501E-01  0.35000000000E-01  0.51099999109E-03 0.  1.
       22    1    1    2    0    0 -0.19350938312E-09  0.36105404816E-07  0.17834985845E-06  0.18196788099E-06  0.00000000000E+00 0.  1.
       22    1    1    2    0    0 -0.10509776996E-13  0.19609372262E-11 -0.35000069071E-01  0.34999998191E-01  0.00000000000E+00 0.  1.
       22    1    1    2    0    0  0.19351989289E-09 -0.36107365753E-07  0.34999890721E-01  0.34999819841E-01  0.00000000000E+00 0.  1.
</event>
<event>
 5   0  0.6221259E+05  0.9118800E+02  0.7546771E-02  0.1180000E+00
      -11   -1    0    0    0    0  0.00000000000E+00  0.00000000000E+00  0.34996269501E-01  0.35000000000E-01  0.51099999109E-03 0.  1.
       11   -1    0    0    0    0 -0.00000000000E+00 -0.00000000000E+00 -0.34996269501E-01  0.35000000000E-01  0.51099999109E-03 0. -1.
       22    1    1    2    0    0 -0.20694935583E-03  0.36012347251E-02  0.34796988532E-01  0.34983455096E-01  0.00000000000E+00 0.  1.
       22    1    1    2    0    0  0.20360733064E-03 -0.36067772483E-02 -0.34812657582E-01  0.34999591797E-01  0.00000000000E+00 0. -1.
       22    1    1    2    0    0  0.33420251838E-05  0.55425231981E-05  0.15669050250E-04  0.16953106838E-04  0.00000000000E+00 0. -1.
</event>
<event>
 5   0  0.6221259E+05  0.9118800E+02  0.7546771E-02  0.1180000E+00
      -11   -1    0    0    0    0  0.00000000000E+00  0.00000000000E+00  0.34996269501E-01  0.35000000000E-01  0.51099999109E-03 0. -1.
       11   -1    0    0    0    0 -0.00000000000E+00 -0.00000000000E+00 -0.34996269501E-01  0.35000000000E-01  0.51099999109E-03 0.  1.
       22    1    1    2    0    0 -0.86005943101E-02 -0.48249414137E-02  0.25904782975E-01  0.27718370499E-01  0.00000000000E+00 0. -1.
       22    1    1    2    0    0  0.19096446760E-02 -0.24012689582E-02  0.71556057119E-02  0.77855975045E-02  0.00000000000E+00 0.  1.
       22    1    1    2    0    0  0.66909496341E-02  0.72262103719E-02 -0.33060388687E-01  0.34496031996E-01  0.00000000000E+00 0.  1.
</event>
<event>
 5   0  0.6221259E+05  0.9118800E+02  0.7546771E-02  0.1180000E+00
      -11   -1    0    0    0    0  0.00000000000E+00  0.00000000000E+00  0.34996269501E-01  0.35000000000E-01  0.51099999109E-03 0.  1.
       11   -1    0    0    0    0 -0.00000000000E+00 -0.00000000000E+00 -0.34996269501E-01  0.35000000000E-01  0.51099999109E-03 0. -1.
       22    1    1    2    0    0  0.23097012200E-01 -0.15698858131E-01  0.21096724289E-01  0.34999969928E-01  0.00000000000E+00 0.  1.
       22    1    1    2    0    0  0.11046926200E-08 -0.62426030063E-08  0.34968017096E-07  0.35538045215E-07  0.00000000000E+00 0. -1.
       22    1    1    2    0    0 -0.23097013305E-01  0.15698864374E-01 -0.21096759257E-01  0.34999994534E-01  0.00000000000E+00 0. -1.
</event>
<event>
 5   0  0.6221259E+05  0.9118800E+02  0.7546771E-02  0.1180000E+00
      -11   -1    0    0    0    0  0.00000000000E+00  0.00000000000E+00  0.34996269501E-01  0.35000000000E-01  0.51099999109E-03 0.  1.
       11   -1    0    0    0    0 -0.00000000000E+00 -0.00000000000E+00 -0.34996269501E-01  0.35000000000E-01  0.51099999109E-03 0. -1.
       22    1    1    2    0    0  0.24533418746E-02 -0.14101326809E-02 -0.34885421549E-01  0.34999999960E-01  0.00000000000E+00 0. -1.
       22    1    1    2    0    0 -0.24533411005E-02  0.14101323685E-02  0.34885419112E-01  0.34999997464E-01  0.00000000000E+00 0.  1.
       22    1    1    2    0    0 -0.77412845267E-09  0.31240017687E-09  0.24372557137E-08  0.25762538977E-08  0.00000000000E+00 0.  1.
</event>
<event>
 5   0  0.6221259E+05  0.9118800E+02  0.7546771E-02  0.1180000E+00
      -11   -1    0    0    0    0  0.00000000000E+00  0.00000000000E+00  0.34996269501E-01  0.35000000000E-01  0.51099999109E-03 0. -1.
       11   -1    0    0    0    0 -0.00000000000E+00 -0.00000000000E+00 -0.34996269501E-01  0.35000000000E-01  0.51099999109E-03 0.  1.
       22    1    1    2    0    0  0.85689536581E-02 -0.32837958036E-01  0.84118230131E-02  0.34964513741E-01  0.00000000000E+00 0. -1.
       22    1    1    2    0    0  0.32408680069E-05 -0.36418210877E-05  0.53603468782E-04  0.53824696485E-04  0.00000000000E+00 0.  1.
       22    1    1    2    0    0 -0.85721945261E-02  0.32841599857E-01 -0.84654264819E-02  0.34981661562E-01  0.00000000000E+00 0.  1.
</event>
<event>
 5   0  0.6221259E+05  0.9118800E+02  0.7546771E-02  0.1180000E+00
      -11   -1    0    0    0    0  0.00000000000E+00  0.00000000000E+00  0.34996269501E-01  0.35000000000E-01  0.51099999109E-03 0. -1.
       11   -1    0    0    0    0 -0.00000000000E+00 -0.00000000000E+00 -0.34996269501E-01  0.35000000000E-01  0.51099999109E-03 0.  1.
       22    1    1    2    0    0 -0.21159985006E-03 -0.42931413740E-04 -0.34588201936E-01  0.34588875824E-01  0.00000000000E+00 0.  1.
       22    1    1    2    0    0 -0.31339947079E-03 -0.33272493206E-04 -0.34880083677E-03  0.47009393830E-03  0.00000000000E+00 0.  1.
       22    1    1    2    0    0  0.52499932085E-03  0.76203906946E-04  0.34937002773E-01  0.34941030238E-01  0.00000000000E+00 0. -1.
</event>
<event>
 5   0  0.6221259E+05  0.9118800E+02  0.7546771E-02  0.1180000E+00
      -11   -1    0    0    0    0  0.00000000000E+00  0.00000000000E+00  0.34996269501E-01  0.35000000000E-01  0.51099999109E-03 0.  1.
       11   -1    0    0    0    0 -0.00000000000E+00 -0.00000000000E+00 -0.34996269501E-01  0.35000000000E-01  0.51099999109E-03 0. -1.
       22    1    1    2    0    0  0.73678578260E-02 -0.40030026697E-02  0.33980528697E-01  0.34999795569E-01  0.00000000000E+00 0.  1.
       22    1    1    2    0    0 -0.73676323398E-02  0.40031564251E-02 -0.33980665950E-01  0.34999898943E-01  0.00000000000E+00 0. -1.
       22    1    1    2    0    0 -0.22548615260E-06 -0.15375534894E-06  0.13725232327E-06  0.30548799090E-06  0.00000000000E+00 0. -1.
</event>
<event>
 5   0  0.6221259E+05  0.9118800E+02  0.7546771E-02  0.1180000E+00
      -11   -1    0    0    0    0  0.00000000000E+00  0.00000000000E+00  0.34996269501E-01  0.35000000000E-01  0.51099999109E-03 0.  1.
       11   -1    0    0    0    0 -0.00000000000E+00 -0.00000000000E+00 -0.34996269501E-01  0.35000000000E-01  0.51099999109E-03 0.  1.
       22    1    1    2    0    0 -0.43345304816E-03  0.28074176271E-03  0.34995887871E-01  0.34999698075E-01  0.00000000000E+00 0.  1.
       22    1    1    2    0    0 -0.32821543254E-07  0.30655194247E-07  0.29994348567E-06  0.30328713991E-06  0.00000000000E+00 0.  1.
       22    1    1    2    0    0  0.43348586970E-03 -0.28077241790E-03 -0.34996187814E-01  0.34999998638E-01  0.00000000000E+00 0.  1.
</event>
<event>
 5   0  0.6221259E+05  0.9118800E+02  0.7546771E-02  0.1180000E+00
      -11   -1    0    0    0    0  0.00000000000E+00  0.00000000000E+00  0.34996269501E-01  0.35000000000E-01  0.51099999109E-03 0.  1.
       11   -1    0    0    0    0 -0.00000000000E+00 -0.00000000000E+00 -0.34996269501E-01  0.35000000000E-01  0.51099999109E-03 0. -1.
       22    1    1    2    0    0  0.11021632781E-02 -0.22411092434E-03 -0.34616993647E-01  0.34635260050E-01  0.00000000000E+00 0. -1.
       22    1    1    2    0    0 -0.54349856666E-03  0.22893344545E-02  0.37725527258E-02  0.44461890430E-02  0.00000000000E+00 0. -1.
       22    1    1    2    0    0 -0.55866471146E-03 -0.20652235302E-02  0.30844440921E-01  0.30918550907E-01  0.00000000000E+00 0.  1.
</event>
<event>
 5   0  0.6221259E+05  0.9118800E+02  0.7546771E-02  0.1180000E+00
      -11   -1    0    0    0    0  0.00000000000E+00  0.00000000000E+00  0.34996269501E-01  0.35000000000E-01  0.51099999109E-03 0. -1.
       11   -1    0    0    0    0 -0.00000000000E+00 -0.00000000000E+00 -0.34996269501E-01  0.35000000000E-01  0.51099999109E-03 0. -1.
       22    1    1    2    0    0 -0.17923215766E-03 -0.83713197069E-04 -0.34549383843E-01  0.34549950159E-01  0.00000000000E+00 0. -1.
       22    1    1    2    0    0 -0.00000000000E+00 -0.00000000000E+00  0.34978965307E-01  0.34977109782E-01  0.00000000000E+00 0. -1.
       22    1    1    2    0    0  0.17923215766E-03  0.83713197069E-04 -0.42958146399E-03  0.47294005953E-03  0.00000000000E+00 0. -1.
</event>
<event>
 5   0  0.6221259E+05  0.9118800E+02  0.7546771E-02  0.1180000E+00
      -11   -1    0    0    0    0  0.00000000000E+00  0.00000000000E+00  0.34996269501E-01  0.35000000000E-01  0.51099999109E-03 0.  1.
       11   -1    0    0    0    0 -0.00000000000E+00 -0.00000000000E+00 -0.34996269501E-01  0.35000000000E-01  0.51099999109E-03 0. -1.
       22    1    1    2    0    0 -0.13051796698E-01  0.50860207776E-02  0.32074642142E-01  0.34999995327E-01  0.00000000000E+00 0.  1.
       22    1    1    2    0    0  0.13051797179E-01 -0.50860222070E-02 -0.32074646689E-01  0.34999999882E-01  0.00000000000E+00 0. -1.
       22    1    1    2    0    0 -0.48104361738E-09  0.14294636633E-08  0.45473750215E-08  0.47909695169E-08  0.00000000000E+00 0.  1.
</event>
<event>
 5   0  0.6221259E+05  0.9118800E+02  0.7546771E-02  0.1180000E+00
      -11   -1    0    0    0    0  0.00000000000E+00  0.00000000000E+00  0.34996269501E-01  0.35000000000E-01  0.51099999109E-03 0.  1.
       11   -1    0    0    0    0 -0.00000000000E+00 -0.00000000000E+00 -0.34996269501E-01  0.35000000000E-01  0.51099999109E-03 0. -1.
       22    1    1    2    0    0  0.80747550278E-09 -0.41238389747E-08  0.14224227757E-07  0.14831949294E-07  0.00000000000E+00 0. -1.
       22    1    1    2    0    0 -0.24320627956E-03  0.30235167412E-02  0.34868297848E-01  0.34999985680E-01  0.00000000000E+00 0.  1.
       22    1    1    2    0    0  0.24320547208E-03 -0.30235126174E-02 -0.34868312072E-01  0.34999999488E-01  0.00000000000E+00 0. -1.
</event>
<event>
 5   0  0.6221259E+05  0.9118800E+02  0.7546771E-02  0.1180000E+00
      -11   -1    0    0    0    0  0.00000000000E+00  0.00000000000E+00  0.34996269501E-01  0.35000000000E-01  0.51099999109E-03 0. -1.
       11   -1    0    0    0    0 -0.00000000000E+00 -0.00000000000E+00 -0.34996269501E-01  0.35000000000E-01  0.51099999109E-03 0. -1.
       22    1    1    2    0    0  0.32739991778E-05  0.16888943590E-05  0.17506842911E-04  0.17890248279E-04  0.00000000000E+00 0.  1.
       22    1    1    2    0    0 -0.52117452487E-03  0.22612467218E-03  0.34977708008E-01  0.34982321432E-01  0.00000000000E+00 0. -1.
       22    1    1    2    0    0  0.51790052569E-03 -0.22781356654E-03 -0.34995214851E-01  0.34999788320E-01  0.00000000000E+00 0. -1.
</event>
<event>
 5   0  0.6221259E+05  0.9118800E+02  0.7546771E-02  0.1180000E+00
      -11   -1    0    0    0    0  0.00000000000E+00  0.00000000000E+00  0.34996269501E-01  0.35000000000E-01  0.51099999109E-03 0. -1.
       11   -1    0    0    0    0 -0.00000000000E+00 -0.00000000000E+00 -0.34996269501E-01  0.35000000000E-01  0.51099999109E-03 0.  1.
       22    1    1    2    0    0 -0.91287044572E-04 -0.81408438811E-03 -0.16073250414E-01  0.16094112141E-01  0.00000000000E+00 0.  1.
       22    1    1    2    0    0  0.61503329224E-02 -0.13904120347E-01  0.29431546346E-01  0.33126531330E-01  0.00000000000E+00 0. -1.
       22    1    1    2    0    0 -0.60590458779E-02  0.14718204735E-01 -0.13358295931E-01  0.20779356529E-01  0.00000000000E+00 0.  1.
</event>
<event>
 5   0  0.6221259E+05  0.9118800E+02  0.7546771E-02  0.1180000E+00
      -11   -1    0    0    0    0  0.00000000000E+00  0.00000000000E+00  0.34996269501E-01  0.35000000000E-01  0.51099999109E-03 0.  1.
       11   -1    0    0    0    0 -0.00000000000E+00 -0.00000000000E+00 -0.34996269501E-01  0.35000000000E-01  0.51099999109E-03 0. -1.
       22    1    1    2    0    0  0.96850189057E-02 -0.15999645997E-01  0.29191228649E-01  0.34668661545E-01  0.00000000000E+00 0.  1.
       22    1    1    2    0    0 -0.72858339601E-02  0.15073587469E-01 -0.21679310817E-01  0.27391402541E-01  0.00000000000E+00 0. -1.
       22    1    1    2    0    0 -0.23991849456E-02  0.92605852898E-03 -0.75119178320E-02  0.79399359139E-02  0.00000000000E+00 0. -1.
</event>
<event>
 5   0  0.6221259E+05  0.9118800E+02  0.7546771E-02  0.1180000E+00
      -11   -1    0    0    0    0  0.00000000000E+00  0.00000000000E+00  0.34996269501E-01  0.35000000000E-01  0.51099999109E-03 0. -1.
       11   -1    0    0    0    0 -0.00000000000E+00 -0.00000000000E+00 -0.34996269501E-01  0.35000000000E-01  0.51099999109E-03 0.  1.
       22    1    1    2    0    0  0.34628857511E-05  0.57040816907E-05  0.71995217056E-05  0.98163760344E-05  0.00000000000E+00 0.  1.
       22    1    1    2    0    0  0.85939108405E-02  0.14407357005E-01 -0.30713813668E-01  0.34996651118E-01  0.00000000000E+00 0.  1.
       22    1    1    2    0    0 -0.85973737262E-02 -0.14413061087E-01  0.30706614147E-01  0.34993532506E-01  0.00000000000E+00 0. -1.
</event>
<event>
 5   0  0.6221259E+05  0.9118800E+02  0.7546771E-02  0.1180000E+00
      -11   -1    0    0    0    0  0.00000000000E+00  0.00000000000E+00  0.34996269501E-01  0.35000000000E-01  0.51099999109E-03 0.  1.
       11   -1    0    0    0    0 -0.00000000000E+00 -0.00000000000E+00 -0.34996269501E-01  0.35000000000E-01  0.51099999109E-03 0. -1.
       22    1    1    2    0    0  0.41112872240E-03  0.78700353039E-03 -0.34988734188E-01  0.34999998878E-01  0.00000000000E+00 0. -1.
       22    1    1    2    0    0  0.34565173126E-08  0.82732256318E-08  0.18977769353E-07  0.20989271161E-07  0.00000000000E+00 0.  1.
       22    1    1    2    0    0 -0.41113217891E-03 -0.78701180362E-03  0.34988715210E-01  0.34999980133E-01  0.00000000000E+00 0.  1.
</event>
<event>
 5   0  0.6221259E+05  0.9118800E+02  0.7546771E-02  0.1180000E+00
      -11   -1    0    0    0    0  0.00000000000E+00  0.00000000000E+00  0.34996269501E-01  0.35000000000E-01  0.51099999109E-03 0.  1.
       11   -1    0    0    0    0 -0.00000000000E+00 -0.00000000000E+00 -0.34996269501E-01  0.35000000000E-01  0.51099999109E-03 0. -1.
       22    1    1    2    0    0 -0.52983669557E-04  0.97701010289E-03 -0.88942620444E-02  0.89479189382E-02  0.00000000000E+00 0. -1.
       22    1    1    2    0    0 -0.21232865546E-02 -0.27531575939E-01 -0.89007060538E-02  0.29012386799E-01  0.00000000000E+00 0. -1.
       22    1    1    2    0    0  0.21762702241E-02  0.26554565837E-01  0.17794968098E-01  0.32039694263E-01  0.00000000000E+00 0.  1.
</event>
<event>
 5   0  0.6221259E+05  0.9118800E+02  0.7546771E-02  0.1180000E+00
      -11   -1    0    0    0    0  0.00000000000E+00  0.00000000000E+00  0.34996269501E-01  0.35000000000E-01  0.51099999109E-03 0.  1.
       11   -1    0    0    0    0 -0.00000000000E+00 -0.00000000000E+00 -0.34996269501E-01  0.35000000000E-01  0.51099999109E-03 0. -1.
       22    1    1    2    0    0 -0.39758418676E-02 -0.95422188535E-02  0.21084993482E-01  0.23482721506E-01  0.00000000000E+00 0.  1.
       22    1    1    2    0    0  0.45032025612E-02  0.90977747459E-02 -0.33028797881E-01  0.34553579092E-01  0.00000000000E+00 0. -1.
       22    1    1    2    0    0 -0.52736069365E-03  0.44444410759E-03  0.11943804399E-01  0.11963699402E-01  0.00000000000E+00 0. -1.
</event>
<event>
 5   0  0.6221259E+05  0.9118800E+02  0.7546771E-02  0.1180000E+00
      -11   -1    0    0    0    0  0.00000000000E+00  0.00000000000E+00  0.34996269501E-01  0.35000000000E-01  0.51099999109E-03 0.  1.
       11   -1    0    0    0    0 -0.00000000000E+00 -0.00000000000E+00 -0.34996269501E-01  0.35000000000E-01  0.51099999109E-03 0. -1.
       22    1    1    2    0    0 -0.42289926142E-03  0.30636541571E-04  0.93237955225E-03  0.10242626677E-02  0.00000000000E+00 0.  1.
       22    1    1    2    0    0 -0.21127196858E-03  0.17869683750E-02 -0.34903632001E-01  0.34949984531E-01  0.00000000000E+00 0. -1.
       22    1    1    2    0    0  0.63417123001E-03 -0.18176049166E-02  0.33971252449E-01  0.34025752802E-01  0.00000000000E+00 0.  1.
</event>
<event>
 5   0  0.6221259E+05  0.9118800E+02  0.7546771E-02  0.1180000E+00
      -11   -1    0    0    0    0  0.00000000000E+00  0.00000000000E+00  0.34996269501E-01  0.35000000000E-01  0.51099999109E-03 0.  1.
       11   -1    0    0    0    0 -0.00000000000E+00 -0.00000000000E+00 -0.34996269501E-01  0.35000000000E-01  0.51099999109E-03 0. -1.
       22    1    1    2    0    0 -0.84927227230E-03  0.68337891467E-02 -0.29058229400E-01  0.29863064701E-01  0.00000000000E+00 0. -1.
       22    1    1    2    0    0  0.96093297516E-03 -0.73888126255E-02 -0.30301109815E-02  0.80436009820E-02  0.00000000000E+00 0.  1.
       22    1    1    2    0    0 -0.11166070286E-03  0.55502347874E-03  0.32088340381E-01  0.32093334317E-01  0.00000000000E+00 0.  1.
</event>
<event>
 5   0  0.6221259E+05  0.9118800E+02  0.7546771E-02  0.1180000E+00
      -11   -1    0    0    0    0  0.00000000000E+00  0.00000000000E+00  0.34996269501E-01  0.35000000000E-01  0.51099999109E-03 0.  1.
       11   -1    0    0    0    0 -0.00000000000E+00 -0.00000000000E+00 -0.34996269501E-01  0.35000000000E-01  0.51099999109E-03 0. -1.
       22    1    1    2    0    0  0.64514612206E-02 -0.55034374124E-02  0.33911863100E-01  0.34956024290E-01  0.00000000000E+00 0.  1.
       22    1    1    2    0    0 -0.63746247343E-02  0.55704915437E-02 -0.33900313018E-01  0.34941342837E-01  0.00000000000E+00 0. -1.
       22    1    1    2    0    0 -0.76836486300E-04 -0.67054131252E-04 -0.11550082434E-04  0.10263287265E-03  0.00000000000E+00 0.  1.
</event>
<event>
 5   0  0.6221259E+05  0.9118800E+02  0.7546771E-02  0.1180000E+00
      -11   -1    0    0    0    0  0.00000000000E+00  0.00000000000E+00  0.34996269501E-01  0.35000000000E-01  0.51099999109E-03 0.  1.
       11   -1    0    0    0    0 -0.00000000000E+00 -0.00000000000E+00 -0.34996269501E-01  0.35000000000E-01  0.51099999109E-03 0. -1.
       22    1    1    2    0    0 -0.33208445894E-02  0.22999909195E-02 -0.34765881476E-01  0.34999778311E-01  0.00000000000E+00 0. -1.
       22    1    1    2    0    0  0.10677348668E-05  0.44804155482E-06  0.10653540008E-05  0.15734605580E-05  0.00000000000E+00 0. -1.
       22    1    1    2    0    0  0.33197768545E-02 -0.23004389610E-02  0.34764816122E-01  0.34998648228E-01  0.00000000000E+00 0.  1.
</event>
<event>
 5   0  0.6221259E+05  0.9118800E+02  0.7546771E-02  0.1180000E+00
      -11   -1    0    0    0    0  0.00000000000E+00  0.00000000000E+00  0.34996269501E-01  0.35000000000E-01  0.51099999109E-03 0.  1.
       11   -1    0    0    0    0 -0.00000000000E+00 -0.00000000000E+00 -0.34996269501E-01  0.35000000000E-01  0.51099999109E-03 0. -1.
       22    1    1    2    0    0  0.47461086645E-03  0.37342864381E-03  0.12031342690E-01  0.12046489587E-01  0.00000000000E+00 0. -1.
       22    1    1    2    0    0 -0.18171625813E-02 -0.13900699911E-02 -0.34924068185E-01  0.34998927313E-01  0.00000000000E+00 0. -1.
       22    1    1    2    0    0  0.13425517149E-02  0.10166413472E-02  0.22892725495E-01  0.22954583101E-01  0.00000000000E+00 0.  1.
</event>
<event>
 5   0  0.6221259E+05  0.9118800E+02  0.7546771E-02  0.1180000E+00
      -11   -1    0    0    0    0  0.00000000000E+00  0.00000000000E+00  0.34996269501E-01  0.35000000000E-01  0.51099999109E-03 0. -1.
       11   -1    0    0    0    0 -0.00000000000E+00 -0.00000000000E+00 -0.34996269501E-01  0.35000000000E-01  0.51099999109E-03 0.  1.
       22    1    1    2    0    0 -0.58992886158E-03  0.19056327369E-02 -0.34881215696E-01  0.34938212041E-01  0.00000000000E+00 0.  1.
       22    1    1    2    0    0 -0.10840010008E-03  0.31894648398E-03  0.50774580418E-03  0.60933015928E-03  0.00000000000E+00 0.  1.
       22    1    1    2    0    0  0.69832896166E-03 -0.22245792209E-02  0.34373469892E-01  0.34452457800E-01  0.00000000000E+00 0. -1.
</event>
<event>
 5   0  0.6221259E+05  0.9118800E+02  0.7546771E-02  0.1180000E+00
      -11   -1    0    0    0    0  0.00000000000E+00  0.00000000000E+00  0.34996269501E-01  0.35000000000E-01  0.51099999109E-03 0.  1.
       11   -1    0    0    0    0 -0.00000000000E+00 -0.00000000000E+00 -0.34996269501E-01  0.35000000000E-01  0.51099999109E-03 0. -1.
       22    1    1    2    0    0 -0.42481252173E-02  0.98240547129E-03  0.34611485092E-01  0.34885048210E-01  0.00000000000E+00 0.  1.
       22    1    1    2    0    0 -0.10897098214E-03  0.15665866095E-04  0.80373532180E-04  0.13630846997E-03  0.00000000000E+00 0. -1.
       22    1    1    2    0    0  0.43570961995E-02 -0.99807133738E-03 -0.34691858624E-01  0.34978643320E-01  0.00000000000E+00 0. -1.
</event>
<event>
 5   0  0.6221259E+05  0.9118800E+02  0.7546771E-02  0.1180000E+00
      -11   -1    0    0    0    0  0.00000000000E+00  0.00000000000E+00  0.34996269501E-01  0.35000000000E-01  0.51099999109E-03 0. -1.
       11   -1    0    0    0    0 -0.00000000000E+00 -0.00000000000E+00 -0.34996269501E-01  0.35000000000E-01  0.51099999109E-03 0.  1.
       22    1    1    2    0    0 -0.76458784227E-07 -0.35643788323E-06  0.13992019159E-05  0.14459114467E-05  0.00000000000E+00 0. -1.
       22    1    1    2    0    0  0.18187959785E-01 -0.12886878963E-01  0.26982121973E-01  0.34998691929E-01  0.00000000000E+00 0. -1.
       22    1    1    2    0    0 -0.18187883326E-01  0.12887235401E-01 -0.26983521175E-01  0.34999862160E-01  0.00000000000E+00 0.  1.
</event>
<event>
 5   0  0.6221259E+05  0.9118800E+02  0.7546771E-02  0.1180000E+00
      -11   -1    0    0    0    0  0.00000000000E+00  0.00000000000E+00  0.34996269501E-01  0.35000000000E-01  0.51099999109E-03 0. -1.
       11   -1    0    0    0    0 -0.00000000000E+00 -0.00000000000E+00 -0.34996269501E-01  0.35000000000E-01  0.51099999109E-03 0.  1.
       22    1    1    2    0    0 -0.45738536870E-03  0.92845986140E-03 -0.14889722612E-01  0.14925651696E-01  0.00000000000E+00 0.  1.
       22    1    1    2    0    0  0.20882113968E-02  0.12093671396E-02  0.34850166625E-01  0.34933612890E-01  0.00000000000E+00 0. -1.
       22    1    1    2    0    0 -0.16308260281E-02 -0.21378270010E-02 -0.19960444013E-01  0.20140735414E-01  0.00000000000E+00 0.  1.
</event>
</LesHouchesEvents>
