<LesHouchesEvents version="3.0">
<header>
<!--
#*********************************************************************
#                                                                    *
#                        MadGraph5_aMC@NLO                           *
#                                                                    *
#                           Going Beyond                             *
#                                                                    *
#                   http://madgraph.hep.uiuc.edu                     *
#                   http://madgraph.phys.ucl.ac.be                   *
#                   http://amcatnlo.cern.ch                          *
#                                                                    *
#                     The MadGraph5_aMC@NLO team                     *
#                                                                    *
#....................................................................*
#                                                                    *
# This file contains all the information necessary to reproduce      *
# the events generated:                                              *
#                                                                    *
# 1. software version                                                *
# 2. proc_card          : code generation info including model       *
# 3. param_card         : model primary parameters in the LH format  *
# 4. run_card           : running parameters (collider and cuts)     *
# 5. pythia_card        : present only if pythia has been run        *
# 6. pgs_card           : present only if pgs has been run           *
# 7. delphes_cards      : present only if delphes has been run       *
#                                                                    *
#                                                                    *
#*********************************************************************
-->
<MGVersion>
#5.2.1.2
</MGVersion>
<MG5ProcCard>
#************************************************************
#*                     MadGraph5_aMC@NLO                    *
#*                                                          *
#*                *                       *                 *
#*                  *        * *        *                   *
#*                    * * * * 5 * * * *                     *
#*                  *        * *        *                   *
#*                *                       *                 *
#*                                                          *
#*                                                          *
#*         VERSION 2.1.2                 2014-07-03         *
#*                                                          *
#*    The MadGraph5_aMC@NLO Development Team - Find us at   *
#*    https://server06.fynu.ucl.ac.be/projects/madgraph     *
#*                                                          *
#************************************************************
#*                                                          *
#*               Command File for MadGraph5_aMC@NLO         *
#*                                                          *
#*     run as ./bin/mg5_aMC  filename                       *
#*                                                          *
#************************************************************
set group_subprocesses Auto
set ignore_six_quark_processes False
set gauge unitary
set complex_mass_scheme False
import model DarkPhotonTest_UFO
generate e+ e- > a dp
output ../../DarkPhotonSignalTest
</MG5ProcCard>
<MGProcCard>
#*********************************************************************
#                        MadGraph/MadEvent                           *
#                   http://madgraph.hep.uiuc.edu                     *
#                                                                    *
#                          proc_card.dat                             *
#*********************************************************************
#                                                                    *
#            This Files is generated by MADGRAPH 5                   *
#                                                                    *
# WARNING: This Files is generated for MADEVENT (compatibility issue)*
#          This files is NOT a valid MG4 proc_card.dat               *
#          Running this in MG4 will NEVER reproduce the result of MG5*
#                                                                    *
#*********************************************************************
#*********************************************************************
# Process(es) requested : mg2 input                                  *
#*********************************************************************
# Begin PROCESS # This is TAG. Do not modify this line
e+ e- > a dp           #Process
# Be carefull the coupling are here in MG5 convention
          
end_coup           # End the couplings input

done               # this tells MG there are no more procs
# End PROCESS  # This is TAG. Do not modify this line
#*********************************************************************
# Model information                                                  *
#*********************************************************************
# Begin MODEL  # This is TAG. Do not modify this line
DarkPhotonTest_UFO
# End   MODEL  # This is TAG. Do not modify this line
#*********************************************************************
# Start multiparticle definitions                                    *
#*********************************************************************
# Begin MULTIPARTICLES # This is TAG. Do not modify this line

# End  MULTIPARTICLES # This is TAG. Do not modify this line
</MGProcCard>
<MGRunCard>
#*********************************************************************
#                       MadGraph5_aMC@NLO                            *
#                                                                    *
#                     run_card.dat MadEvent                          *
#                                                                    *
#  This file is used to set the parameters of the run.               *
#                                                                    *
#  Some notation/conventions:                                        *
#                                                                    *
#   Lines starting with a '# ' are info or comments                  *
#                                                                    *
#   mind the format:   value    = variable     ! comment             *
#*********************************************************************
#
#*******************                                                 
# Running parameters
#*******************                                                 
#                                                                    
#*********************************************************************
# Tag name for the run (one word)                                    *
#*********************************************************************
  tag_1     = run_tag ! name of the run 
#*********************************************************************
# Run to generate the grid pack                                      *
#*********************************************************************
  .false.     = gridpack  !True = setting up the grid pack
#*********************************************************************
# Number of events and rnd seed                                      *
# Warning: Do not generate more than 1M events in a single run       *
# If you want to run Pythia, avoid more than 50k events in a run.    *
#*********************************************************************
  1000 = nevents ! Number of unweighted events requested 
 48 = iseed   ! rnd seed (0=assigned automatically=default))
#*********************************************************************
# Collider type and energy                                           *
# lpp: 0=No PDF, 1=proton, -1=antiproton, 2=photon from proton,      *
#                                         3=photon from electron     *
#*********************************************************************
        0     = lpp1    ! beam 1 type 
        -0     = lpp2    ! beam 2 type

     0.035744     = ebeam1  ! beam 1 total energy in GeV
     0.035744     = ebeam2  ! beam 2 total energy in GeV

#*********************************************************************
# Beam polarization from -100 (left-handed) to 100 (right-handed)    *
#*********************************************************************
        0     = polbeam1 ! beam polarization for beam 1
        0     = polbeam2 ! beam polarization for beam 2
#*********************************************************************
# PDF CHOICE: this automatically fixes also alpha_s and its evol.    *
#*********************************************************************
 'nn23lo1'    = pdlabel     ! PDF set                                     
#*********************************************************************
# Renormalization and factorization scales                           *
#*********************************************************************
 T        = fixed_ren_scale  ! if .true. use fixed ren scale
 T        = fixed_fac_scale  ! if .true. use fixed fac scale
 91.1880  = scale            ! fixed ren scale
 91.1880  = dsqrt_q2fact1    ! fixed fact scale for pdf1
 91.1880  = dsqrt_q2fact2    ! fixed fact scale for pdf2
 1        = scalefact        ! scale factor for event-by-event scales
#*********************************************************************
# Matching - Warning! ickkw > 1 is still beta
#*********************************************************************
 0        = ickkw            ! 0 no matching, 1 MLM, 2 CKKW matching
 1        = highestmult      ! for ickkw=2, highest mult group
 1        = ktscheme         ! for ickkw=1, 1 Durham kT, 2 Pythia pTE
 1        = alpsfact         ! scale factor for QCD emission vx
 F        = chcluster        ! cluster only according to channel diag
 T        = pdfwgt           ! for ickkw=1, perform pdf reweighting
 5        = asrwgtflavor     ! highest quark flavor for a_s reweight
 T        = clusinfo         ! include clustering tag in output
 3.0      = lhe_version       ! Change the way clustering information pass to shower.        
#*********************************************************************
#**********************************************************
#
#**********************************************************
# Automatic ptj and mjj cuts if xqcut > 0
# (turn off for VBF and single top processes)
#**********************************************************
   T  = auto_ptj_mjj  ! Automatic setting of ptj and mjj
#**********************************************************
#                                                                    
#**********************************
# BW cutoff (M+/-bwcutoff*Gamma)
#**********************************
  15  = bwcutoff      ! (M+/-bwcutoff*Gamma)
#**********************************************************
# Apply pt/E/eta/dr/mij cuts on decay products or not
# (note that etmiss/ptll/ptheavy/ht/sorted cuts always apply)
#**********************************************************
   T  = cut_decays    ! Cut decay products 
#*************************************************************
# Number of helicities to sum per event (0 = all helicities)
# 0 gives more stable result, but longer run time (needed for
# long decay chains e.g.).
# Use >=2 if most helicities contribute, e.g. pure QCD.
#*************************************************************
   0  = nhel          ! Number of helicities used per event
#*******************                                                 
# Standard Cuts
#*******************                                                 
#                                                                    
#*********************************************************************
# Minimum and maximum pt's (for max, -1 means no cut)                *
#*********************************************************************
 20  = ptj       ! minimum pt for the jets 
  0  = ptb       ! minimum pt for the b 

0.003  = pta       ! minimum pt for the photons 

# 0.013753  = pta       ! minimum pt for the photons 

 0  = ptl       ! minimum pt for the charged leptons 
  0  = misset    ! minimum missing Et (sum of neutrino's momenta)
  0  = ptheavy   ! minimum pt for one heavy final state
 1.0 = ptonium   ! minimum pt for the quarkonium states
 -1  = ptjmax    ! maximum pt for the jets
 -1  = ptbmax    ! maximum pt for the b

 #0.01778  = ptamax    ! maximum pt for the photons
-1 = ptamax 
-1  = ptlmax    ! maximum pt for the charged leptons

 #0.01778  = ptamax    ! maximum pt for the photons
 #-1  = ptlmax    ! maximum pt for the charged leptons

 -1  = missetmax ! maximum missing Et (sum of neutrino's momenta)
#*********************************************************************
# Minimum and maximum E's (in the center of mass frame)              *
#*********************************************************************
  0  = ej     ! minimum E for the jets 
  0  = eb     ! minimum E for the b 
  0  = ea     ! minimum E for the photons 
  0  = el     ! minimum E for the charged leptons 
 -1   = ejmax ! maximum E for the jets
 -1   = ebmax ! maximum E for the b
 -1   = eamax ! maximum E for the photons
 -1   = elmax ! maximum E for the charged leptons
#*********************************************************************
# Maximum and minimum absolute rapidity (for max, -1 means no cut)   *
#*********************************************************************
   5  = etaj    ! max rap for the jets 
  -1  = etab    ! max rap for the b
  -1 = etaa
#  1.58619 = etaa    ! max rap for the photons 
 -1  = etal    ! max rap for the charged leptons 
 0.6  = etaonium ! max rap for the quarkonium states
   0  = etajmin ! min rap for the jets
   0  = etabmin ! min rap for the b
   0 = etaamin 
#   1.29833  = etaamin ! min rap for the photons
   0  = etalmin ! main rap for the charged leptons
#*********************************************************************
# Minimum and maximum DeltaR distance                                *
#*********************************************************************
 0.4 = drjj    ! min distance between jets 
 0   = drbb    ! min distance between b's 
 0.4 = drll    ! min distance between leptons 
 0 = draa    ! min distance between gammas 
 0   = drbj    ! min distance between b and jet 
 0.4 = draj    ! min distance between gamma and jet 
 0.4 = drjl    ! min distance between jet and lepton 
 0   = drab    ! min distance between gamma and b 
 0   = drbl    ! min distance between b and lepton 
 0 = dral    ! min distance between gamma and lepton 
 -1  = drjjmax ! max distance between jets
 -1  = drbbmax ! max distance between b's
 -1  = drllmax ! max distance between leptons
 -1  = draamax ! max distance between gammas
 -1  = drbjmax ! max distance between b and jet
 -1  = drajmax ! max distance between gamma and jet
 -1  = drjlmax ! max distance between jet and lepton
 -1  = drabmax ! max distance between gamma and b
 -1  = drblmax ! max distance between b and lepton
 -1  = dralmax ! maxdistance between gamma and lepton
#*********************************************************************
# Minimum and maximum invariant mass for pairs                       *
# WARNING: for four lepton final state mmll cut require to have      *
#          different lepton masses for each flavor!                  *           
#*********************************************************************
 0   = mmjj    ! min invariant mass of a jet pair 
 0   = mmbb    ! min invariant mass of a b pair 
 0   = mmaa    ! min invariant mass of gamma gamma pair
 0   = mmll    ! min invariant mass of l+l- (same flavour) lepton pair
 -1  = mmjjmax ! max invariant mass of a jet pair
 -1  = mmbbmax ! max invariant mass of a b pair
 -1  = mmaamax ! max invariant mass of gamma gamma pair
 -1  = mmllmax ! max invariant mass of l+l- (same flavour) lepton pair
#*********************************************************************
# Minimum and maximum invariant mass for all letpons                 *
#*********************************************************************
 0   = mmnl    ! min invariant mass for all letpons (l+- and vl) 
 -1  = mmnlmax ! max invariant mass for all letpons (l+- and vl) 
#*********************************************************************
# Minimum and maximum pt for 4-momenta sum of leptons                *
#*********************************************************************
 0   = ptllmin  ! Minimum pt for 4-momenta sum of leptons(l and vl)
 -1  = ptllmax  ! Maximum pt for 4-momenta sum of leptons(l and vl)
#*********************************************************************
# Inclusive cuts                                                     *
#*********************************************************************
 0  = xptj ! minimum pt for at least one jet  
 0  = xptb ! minimum pt for at least one b 
 0  = xpta ! minimum pt for at least one photon 
 0  = xptl ! minimum pt for at least one charged lepton 
#*********************************************************************
# Control the pt's of the jets sorted by pt                          *
#*********************************************************************
 0   = ptj1min ! minimum pt for the leading jet in pt
 0   = ptj2min ! minimum pt for the second jet in pt
 0   = ptj3min ! minimum pt for the third jet in pt
 0   = ptj4min ! minimum pt for the fourth jet in pt
 -1  = ptj1max ! maximum pt for the leading jet in pt 
 -1  = ptj2max ! maximum pt for the second jet in pt
 -1  = ptj3max ! maximum pt for the third jet in pt
 -1  = ptj4max ! maximum pt for the fourth jet in pt
 0   = cutuse  ! reject event if fails any (0) / all (1) jet pt cuts
#*********************************************************************
# Control the pt's of leptons sorted by pt                           *
#*********************************************************************
 0   = ptl1min ! minimum pt for the leading lepton in pt
 0   = ptl2min ! minimum pt for the second lepton in pt
 0   = ptl3min ! minimum pt for the third lepton in pt
 0   = ptl4min ! minimum pt for the fourth lepton in pt
 -1  = ptl1max ! maximum pt for the leading lepton in pt 
 -1  = ptl2max ! maximum pt for the second lepton in pt
 -1  = ptl3max ! maximum pt for the third lepton in pt
 -1  = ptl4max ! maximum pt for the fourth lepton in pt
#*********************************************************************
# Control the Ht(k)=Sum of k leading jets                            *
#*********************************************************************
 0   = htjmin ! minimum jet HT=Sum(jet pt)
 -1  = htjmax ! maximum jet HT=Sum(jet pt)
 0   = ihtmin  !inclusive Ht for all partons (including b)
 -1  = ihtmax  !inclusive Ht for all partons (including b)
 0   = ht2min ! minimum Ht for the two leading jets
 0   = ht3min ! minimum Ht for the three leading jets
 0   = ht4min ! minimum Ht for the four leading jets
 -1  = ht2max ! maximum Ht for the two leading jets
 -1  = ht3max ! maximum Ht for the three leading jets
 -1  = ht4max ! maximum Ht for the four leading jets
#***********************************************************************
# Photon-isolation cuts, according to hep-ph/9801442                   *
# When ptgmin=0, all the other parameters are ignored                  *
# When ptgmin>0, pta and draj are not going to be used                 *
#***********************************************************************
   0 = ptgmin ! Min photon transverse momentum
 0.0 = R0gamma ! Radius of isolation code
 1.0 = xn ! n parameter of eq.(3.4) in hep-ph/9801442
 1.0 = epsgamma ! epsilon_gamma parameter of eq.(3.4) in hep-ph/9801442
 .true. = isoEM ! isolate photons from EM energy (photons and leptons)
#*********************************************************************
# WBF cuts                                                           *
#*********************************************************************
 0   = xetamin ! minimum rapidity for two jets in the WBF case  
 0   = deltaeta ! minimum rapidity for two jets in the WBF case 
#*********************************************************************
# KT DURHAM CUT                                                      *
#*********************************************************************
 -1    =  ktdurham        
 0.4  =  dparameter 
#*********************************************************************
# maximal pdg code for quark to be considered as a light jet         *
# (otherwise b cuts are applied)                                     *
#*********************************************************************
 4 = maxjetflavor    ! Maximum jet pdg code
#*********************************************************************
# Jet measure cuts                                                   *
#*********************************************************************
 0   = xqcut   ! minimum kt jet measure between partons
#*********************************************************************
#
#*********************************************************************
# Store info for systematics studies                                 *
# WARNING: If use_syst is T, matched Pythia output is                *
#          meaningful ONLY if plotted taking matchscale              *
#          reweighting into account!                                 *
#*********************************************************************
   F  = use_syst      ! Enable systematics studies
#
#**************************************
# Parameter of the systematics study
#  will be used by SysCalc (if installed)
#**************************************                                  
#
0.5 1 2 = sys_scalefact  # factorization/renormalization scale factor
0.5 1 2 = sys_alpsfact  # \alpha_s emission scale factors
30 50 = sys_matchscale # variation of merging scale
# PDF sets and number of members (0 or none for all members).
CT10nlo.LHgrid = sys_pdf # matching scales
# MSTW2008nlo68cl.LHgrid 1  = sys_pdf
</MGRunCard>
<slha>
######################################################################
## PARAM_CARD AUTOMATICALY GENERATED BY MG5 FOLLOWING UFO MODEL   ####
######################################################################
##                                                                  ##
##  Width set on Auto will be computed following the information    ##
##        present in the decay.py files of the model.               ##
##        See  arXiv:1402.1178 for more details.                    ##
##                                                                  ##
######################################################################

###################################
## INFORMATION FOR DARKPHOTONINPUTS
###################################
Block darkphotoninputs 
    1 1.000000e-04 # gedP 
    2 1.000000e-02 # gdFdP 

###################################
## INFORMATION FOR MASS
###################################
Block mass 
   11 5.110000e-04 # Me 
  9000001 50.000000e-03 # MdP 
  9000002 30.110000e-04 # MdF 
## Dependent parameters, given by model restrictions.
## Those values should be edited following the 
## analytical expression. MG5 ignores those values 
## but they are important for interfacing the output of MG5
## to external program such as Pythia.
  22 0.000000 # a : 0.0 

###################################
## INFORMATION FOR SMINPUTS
###################################
Block sminputs 
    1 1.279000e+02 # aEWM1 

###################################
## INFORMATION FOR DECAY
###################################
DECAY 9000001 1.000000e-08 # WdP 
## Dependent parameters, given by model restrictions.
## Those values should be edited following the 
## analytical expression. MG5 ignores those values 
## but they are important for interfacing the output of MG5
## to external program such as Pythia.
DECAY  11 0.000000 # e- : 0.0 
DECAY  22 0.000000 # a : 0.0 
DECAY  9000002 0.000000 # df- : 0.0 
#===========================================================
# QUANTUM NUMBERS OF NEW STATE(S) (NON SM PDG CODE)
#===========================================================

Block QNUMBERS 9000001  # dp 
        1 0  # 3 times electric charge
        2 3  # number of spin states (2S+1)
        3 1  # colour rep (1: singlet, 3: triplet, 8: octet)
        4 0  # Particle/Antiparticle distinction (0=own anti)
Block QNUMBERS 9000002  # df- 
        1 0  # 3 times electric charge
        2 2  # number of spin states (2S+1)
        3 1  # colour rep (1: singlet, 3: triplet, 8: octet)
        4 1  # Particle/Antiparticle distinction (0=own anti)
</slha>
## END BANNER##
<MGGenerationInfo>
#  Number of Events        :         1000
#  Integrated weight (pb)  :  0.68869E+02
#  Truncated wgt (pb)      :  0.00000E+00
#  Unit wgt                :  0.68869E-01
</MGGenerationInfo>
</header>
<init>
      -11       11  0.35744000000E-01  0.35744000000E-01 0 0       0       0 3   1
  0.68868303550E+02  0.67135321075E-01  0.68869000000E-01   0
<generator name='MadGraph5_aMC@NLO' version='#5.2.1.2'>please cite 1405.0301 </generator>
</init>
<event>
 4   0  0.6886900E-01  0.9118800E+02  0.7818609E-02  0.1379984E+01
      -11   -1    0    0    0    0  0.00000000000E+00  0.00000000000E+00  0.35740347158E-01  0.35744000000E-01  0.51099999109E-03 0. -1.
       11   -1    0    0    0    0 -0.00000000000E+00 -0.00000000000E+00 -0.35740347158E-01  0.35744000000E-01  0.51099999109E-03 0.  1.
       22    1    1    2    0    0 -0.73497528103E-02  0.86167142405E-03 -0.16691710764E-01  0.18258547375E-01  0.00000000000E+00 0.  1.
  9000001    1    1    2    0    0  0.73497528103E-02 -0.86167142405E-03  0.16691710764E-01  0.53229452625E-01  0.50000000745E-01 0. -1.
</event>
<event>
 4   0  0.6886900E-01  0.9118800E+02  0.7818609E-02  0.1379984E+01
      -11   -1    0    0    0    0  0.00000000000E+00  0.00000000000E+00  0.35740347158E-01  0.35744000000E-01  0.51099999109E-03 0. -1.
       11   -1    0    0    0    0 -0.00000000000E+00 -0.00000000000E+00 -0.35740347158E-01  0.35744000000E-01  0.51099999109E-03 0.  1.
       22    1    1    2    0    0  0.77948945026E-02 -0.15267205688E-01  0.62870185630E-02  0.18258547375E-01  0.00000000000E+00 0. -1.
  9000001    1    1    2    0    0 -0.77948945026E-02  0.15267205688E-01 -0.62870185630E-02  0.53229452625E-01  0.50000000745E-01 0.  1.
</event>
<event>
 4   0  0.6886900E-01  0.9118800E+02  0.7818609E-02  0.1379984E+01
      -11   -1    0    0    0    0  0.00000000000E+00  0.00000000000E+00  0.35740347158E-01  0.35744000000E-01  0.51099999109E-03 0.  1.
       11   -1    0    0    0    0 -0.00000000000E+00 -0.00000000000E+00 -0.35740347158E-01  0.35744000000E-01  0.51099999109E-03 0. -1.
       22    1    1    2    0    0  0.24518132835E-02  0.93186190909E-02 -0.15508916858E-01  0.18258547375E-01  0.00000000000E+00 0. -1.
  9000001    1    1    2    0    0 -0.24518132835E-02 -0.93186190909E-02  0.15508916858E-01  0.53229452625E-01  0.50000000745E-01 0.  1.
</event>
<event>
 4   0  0.6886900E-01  0.9118800E+02  0.7818609E-02  0.1379984E+01
      -11   -1    0    0    0    0  0.00000000000E+00  0.00000000000E+00  0.35740347158E-01  0.35744000000E-01  0.51099999109E-03 0.  1.
       11   -1    0    0    0    0 -0.00000000000E+00 -0.00000000000E+00 -0.35740347158E-01  0.35744000000E-01  0.51099999109E-03 0. -1.
       22    1    1    2    0    0 -0.13559081620E-01  0.11462008542E-01 -0.42600725417E-02  0.18258547375E-01  0.00000000000E+00 0. -1.
  9000001    1    1    2    0    0  0.13559081620E-01 -0.11462008542E-01  0.42600725417E-02  0.53229452625E-01  0.50000000745E-01 0.  1.
</event>
<event>
 4   0  0.6886900E-01  0.9118800E+02  0.7818609E-02  0.1379984E+01
      -11   -1    0    0    0    0  0.00000000000E+00  0.00000000000E+00  0.35740347158E-01  0.35744000000E-01  0.51099999109E-03 0.  1.
       11   -1    0    0    0    0 -0.00000000000E+00 -0.00000000000E+00 -0.35740347158E-01  0.35744000000E-01  0.51099999109E-03 0. -1.
       22    1    1    2    0    0  0.41338112971E-02  0.23289457498E-02  0.17631283791E-01  0.18258547375E-01  0.00000000000E+00 0.  1.
  9000001    1    1    2    0    0 -0.41338112971E-02 -0.23289457498E-02 -0.17631283791E-01  0.53229452625E-01  0.50000000745E-01 0. -1.
</event>
<event>
 4   0  0.6886900E-01  0.9118800E+02  0.7818609E-02  0.1379984E+01
      -11   -1    0    0    0    0  0.00000000000E+00  0.00000000000E+00  0.35740347158E-01  0.35744000000E-01  0.51099999109E-03 0. -1.
       11   -1    0    0    0    0 -0.00000000000E+00 -0.00000000000E+00 -0.35740347158E-01  0.35744000000E-01  0.51099999109E-03 0.  1.
       22    1    1    2    0    0  0.71171305923E-02  0.59522141169E-02  0.15725525476E-01  0.18258547375E-01  0.00000000000E+00 0. -1.
  9000001    1    1    2    0    0 -0.71171305923E-02 -0.59522141169E-02 -0.15725525476E-01  0.53229452625E-01  0.50000000745E-01 0.  1.
</event>
<event>
 4   0  0.6886900E-01  0.9118800E+02  0.7818609E-02  0.1379984E+01
      -11   -1    0    0    0    0  0.00000000000E+00  0.00000000000E+00  0.35740347158E-01  0.35744000000E-01  0.51099999109E-03 0.  1.
       11   -1    0    0    0    0 -0.00000000000E+00 -0.00000000000E+00 -0.35740347158E-01  0.35744000000E-01  0.51099999109E-03 0. -1.
       22    1    1    2    0    0 -0.30275781895E-02  0.11663060302E-01 -0.13717920650E-01  0.18258547375E-01  0.00000000000E+00 0. -1.
  9000001    1    1    2    0    0  0.30275781895E-02 -0.11663060302E-01  0.13717920650E-01  0.53229452625E-01  0.50000000745E-01 0.  1.
</event>
<event>
 4   0  0.6886900E-01  0.9118800E+02  0.7818609E-02  0.1379984E+01
      -11   -1    0    0    0    0  0.00000000000E+00  0.00000000000E+00  0.35740347158E-01  0.35744000000E-01  0.51099999109E-03 0.  1.
       11   -1    0    0    0    0 -0.00000000000E+00 -0.00000000000E+00 -0.35740347158E-01  0.35744000000E-01  0.51099999109E-03 0. -1.
       22    1    1    2    0    0  0.11511331038E-01 -0.13497024770E-01 -0.43236711632E-02  0.18258547375E-01  0.00000000000E+00 0. -1.
  9000001    1    1    2    0    0 -0.11511331038E-01  0.13497024770E-01  0.43236711632E-02  0.53229452625E-01  0.50000000745E-01 0.  1.
</event>
<event>
 4   0  0.6886900E-01  0.9118800E+02  0.7818609E-02  0.1379984E+01
      -11   -1    0    0    0    0  0.00000000000E+00  0.00000000000E+00  0.35740347158E-01  0.35744000000E-01  0.51099999109E-03 0.  1.
       11   -1    0    0    0    0 -0.00000000000E+00 -0.00000000000E+00 -0.35740347158E-01  0.35744000000E-01  0.51099999109E-03 0. -1.
       22    1    1    2    0    0  0.38174140735E-02 -0.73861239318E-02  0.16255678248E-01  0.18258547375E-01  0.00000000000E+00 0. -1.
  9000001    1    1    2    0    0 -0.38174140735E-02  0.73861239318E-02 -0.16255678248E-01  0.53229452625E-01  0.50000000745E-01 0. -1.
</event>
<event>
 4   0  0.6886900E-01  0.9118800E+02  0.7818609E-02  0.1379984E+01
      -11   -1    0    0    0    0  0.00000000000E+00  0.00000000000E+00  0.35740347158E-01  0.35744000000E-01  0.51099999109E-03 0. -1.
       11   -1    0    0    0    0 -0.00000000000E+00 -0.00000000000E+00 -0.35740347158E-01  0.35744000000E-01  0.51099999109E-03 0.  1.
       22    1    1    2    0    0 -0.15940093352E-01  0.65053601318E-02  0.60801534306E-02  0.18258547375E-01  0.00000000000E+00 0. -1.
  9000001    1    1    2    0    0  0.15940093352E-01 -0.65053601318E-02 -0.60801534306E-02  0.53229452625E-01  0.50000000745E-01 0.  1.
</event>
<event>
 4   0  0.6886900E-01  0.9118800E+02  0.7818609E-02  0.1379984E+01
      -11   -1    0    0    0    0  0.00000000000E+00  0.00000000000E+00  0.35740347158E-01  0.35744000000E-01  0.51099999109E-03 0.  1.
       11   -1    0    0    0    0 -0.00000000000E+00 -0.00000000000E+00 -0.35740347158E-01  0.35744000000E-01  0.51099999109E-03 0. -1.
       22    1    1    2    0    0 -0.12920638550E-01 -0.10704267903E-01 -0.72007152678E-02  0.18258547375E-01  0.00000000000E+00 0. -1.
  9000001    1    1    2    0    0  0.12920638550E-01  0.10704267903E-01  0.72007152678E-02  0.53229452625E-01  0.50000000745E-01 0.  1.
</event>
<event>
 4   0  0.6886900E-01  0.9118800E+02  0.7818609E-02  0.1379984E+01
      -11   -1    0    0    0    0  0.00000000000E+00  0.00000000000E+00  0.35740347158E-01  0.35744000000E-01  0.51099999109E-03 0. -1.
       11   -1    0    0    0    0 -0.00000000000E+00 -0.00000000000E+00 -0.35740347158E-01  0.35744000000E-01  0.51099999109E-03 0.  1.
       22    1    1    2    0    0  0.38702583243E-02  0.17840273818E-01 -0.34681815609E-03  0.18258547375E-01  0.00000000000E+00 0. -1.
  9000001    1    1    2    0    0 -0.38702583243E-02 -0.17840273818E-01  0.34681815609E-03  0.53229452625E-01  0.50000000745E-01 0.  1.
</event>
<event>
 4   0  0.6886900E-01  0.9118800E+02  0.7818609E-02  0.1379984E+01
      -11   -1    0    0    0    0  0.00000000000E+00  0.00000000000E+00  0.35740347158E-01  0.35744000000E-01  0.51099999109E-03 0. -1.
       11   -1    0    0    0    0 -0.00000000000E+00 -0.00000000000E+00 -0.35740347158E-01  0.35744000000E-01  0.51099999109E-03 0.  1.
       22    1    1    2    0    0 -0.28216591663E-02  0.31147861201E-02  0.17768255379E-01  0.18258547375E-01  0.00000000000E+00 0. -1.
  9000001    1    1    2    0    0  0.28216591663E-02 -0.31147861201E-02 -0.17768255379E-01  0.53229452625E-01  0.50000000745E-01 0.  1.
</event>
<event>
 4   0  0.6886900E-01  0.9118800E+02  0.7818609E-02  0.1379984E+01
      -11   -1    0    0    0    0  0.00000000000E+00  0.00000000000E+00  0.35740347158E-01  0.35744000000E-01  0.51099999109E-03 0.  1.
       11   -1    0    0    0    0 -0.00000000000E+00 -0.00000000000E+00 -0.35740347158E-01  0.35744000000E-01  0.51099999109E-03 0. -1.
       22    1    1    2    0    0  0.44977610155E-02 -0.13377649323E-01  0.11583747092E-01  0.18258547375E-01  0.00000000000E+00 0.  1.
  9000001    1    1    2    0    0 -0.44977610155E-02  0.13377649323E-01 -0.11583747092E-01  0.53229452625E-01  0.50000000745E-01 0. -1.
</event>
<event>
 4   0  0.6886900E-01  0.9118800E+02  0.7818609E-02  0.1379984E+01
      -11   -1    0    0    0    0  0.00000000000E+00  0.00000000000E+00  0.35740347158E-01  0.35744000000E-01  0.51099999109E-03 0. -1.
       11   -1    0    0    0    0 -0.00000000000E+00 -0.00000000000E+00 -0.35740347158E-01  0.35744000000E-01  0.51099999109E-03 0.  1.
       22    1    1    2    0    0 -0.15142705447E-01 -0.12305984187E-03 -0.10200876447E-01  0.18258547375E-01  0.00000000000E+00 0. -1.
  9000001    1    1    2    0    0  0.15142705447E-01  0.12305984187E-03  0.10200876447E-01  0.53229452625E-01  0.50000000745E-01 0.  0.
</event>
<event>
 4   0  0.6886900E-01  0.9118800E+02  0.7818609E-02  0.1379984E+01
      -11   -1    0    0    0    0  0.00000000000E+00  0.00000000000E+00  0.35740347158E-01  0.35744000000E-01  0.51099999109E-03 0.  1.
       11   -1    0    0    0    0 -0.00000000000E+00 -0.00000000000E+00 -0.35740347158E-01  0.35744000000E-01  0.51099999109E-03 0. -1.
       22    1    1    2    0    0 -0.34067670409E-02 -0.17643115512E-01  0.32386672584E-02  0.18258547375E-01  0.00000000000E+00 0.  1.
  9000001    1    1    2    0    0  0.34067670409E-02  0.17643115512E-01 -0.32386672584E-02  0.53229452625E-01  0.50000000745E-01 0.  1.
</event>
<event>
 4   0  0.6886900E-01  0.9118800E+02  0.7818609E-02  0.1379984E+01
      -11   -1    0    0    0    0  0.00000000000E+00  0.00000000000E+00  0.35740347158E-01  0.35744000000E-01  0.51099999109E-03 0.  1.
       11   -1    0    0    0    0 -0.00000000000E+00 -0.00000000000E+00 -0.35740347158E-01  0.35744000000E-01  0.51099999109E-03 0. -1.
       22    1    1    2    0    0 -0.29335253499E-02  0.66150758438E-02  0.16763345515E-01  0.18258547375E-01  0.00000000000E+00 0.  1.
  9000001    1    1    2    0    0  0.29335253499E-02 -0.66150758438E-02 -0.16763345515E-01  0.53229452625E-01  0.50000000745E-01 0. -1.
</event>
<event>
 4   0  0.6886900E-01  0.9118800E+02  0.7818609E-02  0.1379984E+01
      -11   -1    0    0    0    0  0.00000000000E+00  0.00000000000E+00  0.35740347158E-01  0.35744000000E-01  0.51099999109E-03 0. -1.
       11   -1    0    0    0    0 -0.00000000000E+00 -0.00000000000E+00 -0.35740347158E-01  0.35744000000E-01  0.51099999109E-03 0.  1.
       22    1    1    2    0    0 -0.31077310104E-02 -0.36200964061E-02  0.17624172668E-01  0.18258547375E-01  0.00000000000E+00 0. -1.
  9000001    1    1    2    0    0  0.31077310104E-02  0.36200964061E-02 -0.17624172668E-01  0.53229452625E-01  0.50000000745E-01 0.  1.
</event>
<event>
 4   0  0.6886900E-01  0.9118800E+02  0.7818609E-02  0.1379984E+01
      -11   -1    0    0    0    0  0.00000000000E+00  0.00000000000E+00  0.35740347158E-01  0.35744000000E-01  0.51099999109E-03 0. -1.
       11   -1    0    0    0    0 -0.00000000000E+00 -0.00000000000E+00 -0.35740347158E-01  0.35744000000E-01  0.51099999109E-03 0.  1.
       22    1    1    2    0    0 -0.34079510658E-02  0.12075419362E-01  0.13264413632E-01  0.18258547375E-01  0.00000000000E+00 0. -1.
  9000001    1    1    2    0    0  0.34079510658E-02 -0.12075419362E-01 -0.13264413632E-01  0.53229452625E-01  0.50000000745E-01 0.  1.
</event>
<event>
 4   0  0.6886900E-01  0.9118800E+02  0.7818609E-02  0.1379984E+01
      -11   -1    0    0    0    0  0.00000000000E+00  0.00000000000E+00  0.35740347158E-01  0.35744000000E-01  0.51099999109E-03 0. -1.
       11   -1    0    0    0    0 -0.00000000000E+00 -0.00000000000E+00 -0.35740347158E-01  0.35744000000E-01  0.51099999109E-03 0.  1.
       22    1    1    2    0    0 -0.28846733086E-02 -0.92521571084E-02  0.15474197911E-01  0.18258547375E-01  0.00000000000E+00 0. -1.
  9000001    1    1    2    0    0  0.28846733086E-02  0.92521571084E-02 -0.15474197911E-01  0.53229452625E-01  0.50000000745E-01 0.  0.
</event>
<event>
 4   0  0.6886900E-01  0.9118800E+02  0.7818609E-02  0.1379984E+01
      -11   -1    0    0    0    0  0.00000000000E+00  0.00000000000E+00  0.35740347158E-01  0.35744000000E-01  0.51099999109E-03 0. -1.
       11   -1    0    0    0    0 -0.00000000000E+00 -0.00000000000E+00 -0.35740347158E-01  0.35744000000E-01  0.51099999109E-03 0.  1.
       22    1    1    2    0    0 -0.59208078322E-02  0.77533258748E-02  0.15433875882E-01  0.18258547375E-01  0.00000000000E+00 0. -1.
  9000001    1    1    2    0    0  0.59208078322E-02 -0.77533258748E-02 -0.15433875882E-01  0.53229452625E-01  0.50000000745E-01 0.  1.
</event>
<event>
 4   0  0.6886900E-01  0.9118800E+02  0.7818609E-02  0.1379984E+01
      -11   -1    0    0    0    0  0.00000000000E+00  0.00000000000E+00  0.35740347158E-01  0.35744000000E-01  0.51099999109E-03 0. -1.
       11   -1    0    0    0    0 -0.00000000000E+00 -0.00000000000E+00 -0.35740347158E-01  0.35744000000E-01  0.51099999109E-03 0.  1.
       22    1    1    2    0    0  0.93654748293E-03 -0.10587155181E-01  0.14846197366E-01  0.18258547375E-01  0.00000000000E+00 0. -1.
  9000001    1    1    2    0    0 -0.93654748293E-03  0.10587155181E-01 -0.14846197366E-01  0.53229452625E-01  0.50000000745E-01 0.  1.
</event>
<event>
 4   0  0.6886900E-01  0.9118800E+02  0.7818609E-02  0.1379984E+01
      -11   -1    0    0    0    0  0.00000000000E+00  0.00000000000E+00  0.35740347158E-01  0.35744000000E-01  0.51099999109E-03 0. -1.
       11   -1    0    0    0    0 -0.00000000000E+00 -0.00000000000E+00 -0.35740347158E-01  0.35744000000E-01  0.51099999109E-03 0.  1.
       22    1    1    2    0    0 -0.69789316559E-02  0.81665883699E-03 -0.16852362847E-01  0.18258547375E-01  0.00000000000E+00 0.  1.
  9000001    1    1    2    0    0  0.69789316559E-02 -0.81665883699E-03  0.16852362847E-01  0.53229452625E-01  0.50000000745E-01 0. -1.
</event>
<event>
 4   0  0.6886900E-01  0.9118800E+02  0.7818609E-02  0.1379984E+01
      -11   -1    0    0    0    0  0.00000000000E+00  0.00000000000E+00  0.35740347158E-01  0.35744000000E-01  0.51099999109E-03 0. -1.
       11   -1    0    0    0    0 -0.00000000000E+00 -0.00000000000E+00 -0.35740347158E-01  0.35744000000E-01  0.51099999109E-03 0.  1.
       22    1    1    2    0    0 -0.10197078530E-01  0.13316502403E-01 -0.72156015300E-02  0.18258547375E-01  0.00000000000E+00 0. -1.
  9000001    1    1    2    0    0  0.10197078530E-01 -0.13316502403E-01  0.72156015300E-02  0.53229452625E-01  0.50000000745E-01 0. -1.
</event>
<event>
 4   0  0.6886900E-01  0.9118800E+02  0.7818609E-02  0.1379984E+01
      -11   -1    0    0    0    0  0.00000000000E+00  0.00000000000E+00  0.35740347158E-01  0.35744000000E-01  0.51099999109E-03 0. -1.
       11   -1    0    0    0    0 -0.00000000000E+00 -0.00000000000E+00 -0.35740347158E-01  0.35744000000E-01  0.51099999109E-03 0.  1.
       22    1    1    2    0    0  0.96259067631E-02 -0.44561125238E-02  0.14861343560E-01  0.18258547375E-01  0.00000000000E+00 0.  1.
  9000001    1    1    2    0    0 -0.96259067631E-02  0.44561125238E-02 -0.14861343560E-01  0.53229452625E-01  0.50000000745E-01 0.  1.
</event>
<event>
 4   0  0.6886900E-01  0.9118800E+02  0.7818609E-02  0.1379984E+01
      -11   -1    0    0    0    0  0.00000000000E+00  0.00000000000E+00  0.35740347158E-01  0.35744000000E-01  0.51099999109E-03 0. -1.
       11   -1    0    0    0    0 -0.00000000000E+00 -0.00000000000E+00 -0.35740347158E-01  0.35744000000E-01  0.51099999109E-03 0.  1.
       22    1    1    2    0    0  0.90507759449E-03 -0.17987678851E-01  0.29997993837E-02  0.18258547375E-01  0.00000000000E+00 0.  1.
  9000001    1    1    2    0    0 -0.90507759449E-03  0.17987678851E-01 -0.29997993837E-02  0.53229452625E-01  0.50000000745E-01 0. -1.
</event>
<event>
 4   0  0.6886900E-01  0.9118800E+02  0.7818609E-02  0.1379984E+01
      -11   -1    0    0    0    0  0.00000000000E+00  0.00000000000E+00  0.35740347158E-01  0.35744000000E-01  0.51099999109E-03 0. -1.
       11   -1    0    0    0    0 -0.00000000000E+00 -0.00000000000E+00 -0.35740347158E-01  0.35744000000E-01  0.51099999109E-03 0.  1.
       22    1    1    2    0    0 -0.55415471488E-03 -0.13228472532E-01  0.12572787252E-01  0.18258547375E-01  0.00000000000E+00 0. -1.
  9000001    1    1    2    0    0  0.55415471488E-03  0.13228472532E-01 -0.12572787252E-01  0.53229452625E-01  0.50000000745E-01 0.  1.
</event>
<event>
 4   0  0.6886900E-01  0.9118800E+02  0.7818609E-02  0.1379984E+01
      -11   -1    0    0    0    0  0.00000000000E+00  0.00000000000E+00  0.35740347158E-01  0.35744000000E-01  0.51099999109E-03 0.  1.
       11   -1    0    0    0    0 -0.00000000000E+00 -0.00000000000E+00 -0.35740347158E-01  0.35744000000E-01  0.51099999109E-03 0. -1.
       22    1    1    2    0    0 -0.11377078107E-01  0.20014813784E-02  0.14139685933E-01  0.18258547375E-01  0.00000000000E+00 0.  1.
  9000001    1    1    2    0    0  0.11377078107E-01 -0.20014813784E-02 -0.14139685933E-01  0.53229452625E-01  0.50000000745E-01 0. -1.
</event>
<event>
 4   0  0.6886900E-01  0.9118800E+02  0.7818609E-02  0.1379984E+01
      -11   -1    0    0    0    0  0.00000000000E+00  0.00000000000E+00  0.35740347158E-01  0.35744000000E-01  0.51099999109E-03 0. -1.
       11   -1    0    0    0    0 -0.00000000000E+00 -0.00000000000E+00 -0.35740347158E-01  0.35744000000E-01  0.51099999109E-03 0.  1.
       22    1    1    2    0    0  0.37018474439E-02 -0.12382719776E-01  0.12897252757E-01  0.18258547375E-01  0.00000000000E+00 0. -1.
  9000001    1    1    2    0    0 -0.37018474439E-02  0.12382719776E-01 -0.12897252757E-01  0.53229452625E-01  0.50000000745E-01 0.  1.
</event>
<event>
 4   0  0.6886900E-01  0.9118800E+02  0.7818609E-02  0.1379984E+01
      -11   -1    0    0    0    0  0.00000000000E+00  0.00000000000E+00  0.35740347158E-01  0.35744000000E-01  0.51099999109E-03 0. -1.
       11   -1    0    0    0    0 -0.00000000000E+00 -0.00000000000E+00 -0.35740347158E-01  0.35744000000E-01  0.51099999109E-03 0.  1.
       22    1    1    2    0    0 -0.38201205004E-03  0.17986691757E-01  0.31156923265E-02  0.18258547375E-01  0.00000000000E+00 0. -1.
  9000001    1    1    2    0    0  0.38201205004E-03 -0.17986691757E-01 -0.31156923265E-02  0.53229452625E-01  0.50000000745E-01 0.  0.
</event>
<event>
 4   0  0.6886900E-01  0.9118800E+02  0.7818609E-02  0.1379984E+01
      -11   -1    0    0    0    0  0.00000000000E+00  0.00000000000E+00  0.35740347158E-01  0.35744000000E-01  0.51099999109E-03 0. -1.
       11   -1    0    0    0    0 -0.00000000000E+00 -0.00000000000E+00 -0.35740347158E-01  0.35744000000E-01  0.51099999109E-03 0.  1.
       22    1    1    2    0    0  0.10090732278E-01 -0.15082018760E-01 -0.20209860167E-02  0.18258547375E-01  0.00000000000E+00 0. -1.
  9000001    1    1    2    0    0 -0.10090732278E-01  0.15082018760E-01  0.20209860167E-02  0.53229452625E-01  0.50000000745E-01 0.  0.
</event>
<event>
 4   0  0.6886900E-01  0.9118800E+02  0.7818609E-02  0.1379984E+01
      -11   -1    0    0    0    0  0.00000000000E+00  0.00000000000E+00  0.35740347158E-01  0.35744000000E-01  0.51099999109E-03 0.  1.
       11   -1    0    0    0    0 -0.00000000000E+00 -0.00000000000E+00 -0.35740347158E-01  0.35744000000E-01  0.51099999109E-03 0. -1.
       22    1    1    2    0    0  0.69119339199E-02 -0.41878950561E-02  0.16372576362E-01  0.18258547375E-01  0.00000000000E+00 0. -1.
  9000001    1    1    2    0    0 -0.69119339199E-02  0.41878950561E-02 -0.16372576362E-01  0.53229452625E-01  0.50000000745E-01 0. -1.
</event>
<event>
 4   0  0.6886900E-01  0.9118800E+02  0.7818609E-02  0.1379984E+01
      -11   -1    0    0    0    0  0.00000000000E+00  0.00000000000E+00  0.35740347158E-01  0.35744000000E-01  0.51099999109E-03 0. -1.
       11   -1    0    0    0    0 -0.00000000000E+00 -0.00000000000E+00 -0.35740347158E-01  0.35744000000E-01  0.51099999109E-03 0.  1.
       22    1    1    2    0    0 -0.15583519402E-01  0.94534156582E-02 -0.10776862677E-02  0.18258547375E-01  0.00000000000E+00 0. -1.
  9000001    1    1    2    0    0  0.15583519402E-01 -0.94534156582E-02  0.10776862677E-02  0.53229452625E-01  0.50000000745E-01 0.  1.
</event>
<event>
 4   0  0.6886900E-01  0.9118800E+02  0.7818609E-02  0.1379984E+01
      -11   -1    0    0    0    0  0.00000000000E+00  0.00000000000E+00  0.35740347158E-01  0.35744000000E-01  0.51099999109E-03 0. -1.
       11   -1    0    0    0    0 -0.00000000000E+00 -0.00000000000E+00 -0.35740347158E-01  0.35744000000E-01  0.51099999109E-03 0.  1.
       22    1    1    2    0    0  0.10301469603E-01  0.60313709427E-02  0.13815818500E-01  0.18258547375E-01  0.00000000000E+00 0.  1.
  9000001    1    1    2    0    0 -0.10301469603E-01 -0.60313709427E-02 -0.13815818500E-01  0.53229452625E-01  0.50000000745E-01 0.  1.
</event>
<event>
 4   0  0.6886900E-01  0.9118800E+02  0.7818609E-02  0.1379984E+01
      -11   -1    0    0    0    0  0.00000000000E+00  0.00000000000E+00  0.35740347158E-01  0.35744000000E-01  0.51099999109E-03 0. -1.
       11   -1    0    0    0    0 -0.00000000000E+00 -0.00000000000E+00 -0.35740347158E-01  0.35744000000E-01  0.51099999109E-03 0.  1.
       22    1    1    2    0    0  0.17742222952E-01  0.39173193751E-02 -0.18007459243E-02  0.18258547375E-01  0.00000000000E+00 0. -1.
  9000001    1    1    2    0    0 -0.17742222952E-01 -0.39173193751E-02  0.18007459243E-02  0.53229452625E-01  0.50000000745E-01 0.  0.
</event>
<event>
 4   0  0.6886900E-01  0.9118800E+02  0.7818609E-02  0.1379984E+01
      -11   -1    0    0    0    0  0.00000000000E+00  0.00000000000E+00  0.35740347158E-01  0.35744000000E-01  0.51099999109E-03 0.  1.
       11   -1    0    0    0    0 -0.00000000000E+00 -0.00000000000E+00 -0.35740347158E-01  0.35744000000E-01  0.51099999109E-03 0. -1.
       22    1    1    2    0    0 -0.19913004019E-02  0.10668500069E-01  0.14683064436E-01  0.18258547375E-01  0.00000000000E+00 0.  1.
  9000001    1    1    2    0    0  0.19913004019E-02 -0.10668500069E-01 -0.14683064436E-01  0.53229452625E-01  0.50000000745E-01 0. -1.
</event>
<event>
 4   0  0.6886900E-01  0.9118800E+02  0.7818609E-02  0.1379984E+01
      -11   -1    0    0    0    0  0.00000000000E+00  0.00000000000E+00  0.35740347158E-01  0.35744000000E-01  0.51099999109E-03 0. -1.
       11   -1    0    0    0    0 -0.00000000000E+00 -0.00000000000E+00 -0.35740347158E-01  0.35744000000E-01  0.51099999109E-03 0.  1.
       22    1    1    2    0    0 -0.21428199480E-02 -0.82120592130E-02 -0.16166167091E-01  0.18258547375E-01  0.00000000000E+00 0.  1.
  9000001    1    1    2    0    0  0.21428199480E-02  0.82120592130E-02  0.16166167091E-01  0.53229452625E-01  0.50000000745E-01 0. -1.
</event>
<event>
 4   0  0.6886900E-01  0.9118800E+02  0.7818609E-02  0.1379984E+01
      -11   -1    0    0    0    0  0.00000000000E+00  0.00000000000E+00  0.35740347158E-01  0.35744000000E-01  0.51099999109E-03 0. -1.
       11   -1    0    0    0    0 -0.00000000000E+00 -0.00000000000E+00 -0.35740347158E-01  0.35744000000E-01  0.51099999109E-03 0.  1.
       22    1    1    2    0    0  0.18974838421E-03 -0.52067652998E-02 -0.17499375501E-01  0.18258547375E-01  0.00000000000E+00 0.  1.
  9000001    1    1    2    0    0 -0.18974838421E-03  0.52067652998E-02  0.17499375501E-01  0.53229452625E-01  0.50000000745E-01 0. -1.
</event>
<event>
 4   0  0.6886900E-01  0.9118800E+02  0.7818609E-02  0.1379984E+01
      -11   -1    0    0    0    0  0.00000000000E+00  0.00000000000E+00  0.35740347158E-01  0.35744000000E-01  0.51099999109E-03 0.  1.
       11   -1    0    0    0    0 -0.00000000000E+00 -0.00000000000E+00 -0.35740347158E-01  0.35744000000E-01  0.51099999109E-03 0. -1.
       22    1    1    2    0    0 -0.44550704681E-02  0.62012548033E-03  0.17695828428E-01  0.18258547375E-01  0.00000000000E+00 0.  1.
  9000001    1    1    2    0    0  0.44550704681E-02 -0.62012548033E-03 -0.17695828428E-01  0.53229452625E-01  0.50000000745E-01 0. -1.
</event>
<event>
 4   0  0.6886900E-01  0.9118800E+02  0.7818609E-02  0.1379984E+01
      -11   -1    0    0    0    0  0.00000000000E+00  0.00000000000E+00  0.35740347158E-01  0.35744000000E-01  0.51099999109E-03 0.  1.
       11   -1    0    0    0    0 -0.00000000000E+00 -0.00000000000E+00 -0.35740347158E-01  0.35744000000E-01  0.51099999109E-03 0. -1.
       22    1    1    2    0    0 -0.24659008008E-02  0.16430610274E-01 -0.75715871201E-02  0.18258547375E-01  0.00000000000E+00 0. -1.
  9000001    1    1    2    0    0  0.24659008008E-02 -0.16430610274E-01  0.75715871201E-02  0.53229452625E-01  0.50000000745E-01 0.  1.
</event>
<event>
 4   0  0.6886900E-01  0.9118800E+02  0.7818609E-02  0.1379984E+01
      -11   -1    0    0    0    0  0.00000000000E+00  0.00000000000E+00  0.35740347158E-01  0.35744000000E-01  0.51099999109E-03 0.  1.
       11   -1    0    0    0    0 -0.00000000000E+00 -0.00000000000E+00 -0.35740347158E-01  0.35744000000E-01  0.51099999109E-03 0. -1.
       22    1    1    2    0    0  0.28538367144E-02  0.17204443796E-01  0.54071509974E-02  0.18258547375E-01  0.00000000000E+00 0. -1.
  9000001    1    1    2    0    0 -0.28538367144E-02 -0.17204443796E-01 -0.54071509974E-02  0.53229452625E-01  0.50000000745E-01 0.  0.
</event>
<event>
 4   0  0.6886900E-01  0.9118800E+02  0.7818609E-02  0.1379984E+01
      -11   -1    0    0    0    0  0.00000000000E+00  0.00000000000E+00  0.35740347158E-01  0.35744000000E-01  0.51099999109E-03 0. -1.
       11   -1    0    0    0    0 -0.00000000000E+00 -0.00000000000E+00 -0.35740347158E-01  0.35744000000E-01  0.51099999109E-03 0.  1.
       22    1    1    2    0    0 -0.16978586303E-01 -0.66692275500E-02  0.78966023006E-03  0.18258547375E-01  0.00000000000E+00 0. -1.
  9000001    1    1    2    0    0  0.16978586303E-01  0.66692275500E-02 -0.78966023006E-03  0.53229452625E-01  0.50000000745E-01 0.  0.
</event>
<event>
 4   0  0.6886900E-01  0.9118800E+02  0.7818609E-02  0.1379984E+01
      -11   -1    0    0    0    0  0.00000000000E+00  0.00000000000E+00  0.35740347158E-01  0.35744000000E-01  0.51099999109E-03 0.  1.
       11   -1    0    0    0    0 -0.00000000000E+00 -0.00000000000E+00 -0.35740347158E-01  0.35744000000E-01  0.51099999109E-03 0. -1.
       22    1    1    2    0    0 -0.16456198567E-01  0.12782415426E-02  0.78060348151E-02  0.18258547375E-01  0.00000000000E+00 0.  1.
  9000001    1    1    2    0    0  0.16456198567E-01 -0.12782415426E-02 -0.78060348151E-02  0.53229452625E-01  0.50000000745E-01 0. -1.
</event>
<event>
 4   0  0.6886900E-01  0.9118800E+02  0.7818609E-02  0.1379984E+01
      -11   -1    0    0    0    0  0.00000000000E+00  0.00000000000E+00  0.35740347158E-01  0.35744000000E-01  0.51099999109E-03 0.  1.
       11   -1    0    0    0    0 -0.00000000000E+00 -0.00000000000E+00 -0.35740347158E-01  0.35744000000E-01  0.51099999109E-03 0. -1.
       22    1    1    2    0    0  0.41902060213E-02 -0.62495612463E-02 -0.16636096597E-01  0.18258547375E-01  0.00000000000E+00 0. -1.
  9000001    1    1    2    0    0 -0.41902060213E-02  0.62495612463E-02  0.16636096597E-01  0.53229452625E-01  0.50000000745E-01 0.  1.
</event>
<event>
 4   0  0.6886900E-01  0.9118800E+02  0.7818609E-02  0.1379984E+01
      -11   -1    0    0    0    0  0.00000000000E+00  0.00000000000E+00  0.35740347158E-01  0.35744000000E-01  0.51099999109E-03 0.  1.
       11   -1    0    0    0    0 -0.00000000000E+00 -0.00000000000E+00 -0.35740347158E-01  0.35744000000E-01  0.51099999109E-03 0. -1.
       22    1    1    2    0    0 -0.63566985932E-02  0.11470024413E-02 -0.17077801985E-01  0.18258547375E-01  0.00000000000E+00 0. -1.
  9000001    1    1    2    0    0  0.63566985932E-02 -0.11470024413E-02  0.17077801985E-01  0.53229452625E-01  0.50000000745E-01 0.  1.
</event>
<event>
 4   0  0.6886900E-01  0.9118800E+02  0.7818609E-02  0.1379984E+01
      -11   -1    0    0    0    0  0.00000000000E+00  0.00000000000E+00  0.35740347158E-01  0.35744000000E-01  0.51099999109E-03 0.  1.
       11   -1    0    0    0    0 -0.00000000000E+00 -0.00000000000E+00 -0.35740347158E-01  0.35744000000E-01  0.51099999109E-03 0. -1.
       22    1    1    2    0    0  0.50043053616E-02  0.41071160354E-02  0.17072289769E-01  0.18258547375E-01  0.00000000000E+00 0. -1.
  9000001    1    1    2    0    0 -0.50043053616E-02 -0.41071160354E-02 -0.17072289769E-01  0.53229452625E-01  0.50000000745E-01 0. -1.
</event>
<event>
 4   0  0.6886900E-01  0.9118800E+02  0.7818609E-02  0.1379984E+01
      -11   -1    0    0    0    0  0.00000000000E+00  0.00000000000E+00  0.35740347158E-01  0.35744000000E-01  0.51099999109E-03 0. -1.
       11   -1    0    0    0    0 -0.00000000000E+00 -0.00000000000E+00 -0.35740347158E-01  0.35744000000E-01  0.51099999109E-03 0.  1.
       22    1    1    2    0    0 -0.80617380008E-03  0.12032147005E-01  0.13709561426E-01  0.18258547375E-01  0.00000000000E+00 0.  1.
  9000001    1    1    2    0    0  0.80617380008E-03 -0.12032147005E-01 -0.13709561426E-01  0.53229452625E-01  0.50000000745E-01 0.  1.
</event>
<event>
 4   0  0.6886900E-01  0.9118800E+02  0.7818609E-02  0.1379984E+01
      -11   -1    0    0    0    0  0.00000000000E+00  0.00000000000E+00  0.35740347158E-01  0.35744000000E-01  0.51099999109E-03 0.  1.
       11   -1    0    0    0    0 -0.00000000000E+00 -0.00000000000E+00 -0.35740347158E-01  0.35744000000E-01  0.51099999109E-03 0. -1.
       22    1    1    2    0    0 -0.93444893956E-02  0.96482629099E-02 -0.12367946192E-01  0.18258547375E-01  0.00000000000E+00 0.  1.
  9000001    1    1    2    0    0  0.93444893956E-02 -0.96482629099E-02  0.12367946192E-01  0.53229452625E-01  0.50000000745E-01 0.  1.
</event>
<event>
 4   0  0.6886900E-01  0.9118800E+02  0.7818609E-02  0.1379984E+01
      -11   -1    0    0    0    0  0.00000000000E+00  0.00000000000E+00  0.35740347158E-01  0.35744000000E-01  0.51099999109E-03 0.  1.
       11   -1    0    0    0    0 -0.00000000000E+00 -0.00000000000E+00 -0.35740347158E-01  0.35744000000E-01  0.51099999109E-03 0. -1.
       22    1    1    2    0    0 -0.13295839756E-01 -0.61271484526E-02 -0.10911152518E-01  0.18258547375E-01  0.00000000000E+00 0. -1.
  9000001    1    1    2    0    0  0.13295839756E-01  0.61271484526E-02  0.10911152518E-01  0.53229452625E-01  0.50000000745E-01 0.  1.
</event>
<event>
 4   0  0.6886900E-01  0.9118800E+02  0.7818609E-02  0.1379984E+01
      -11   -1    0    0    0    0  0.00000000000E+00  0.00000000000E+00  0.35740347158E-01  0.35744000000E-01  0.51099999109E-03 0.  1.
       11   -1    0    0    0    0 -0.00000000000E+00 -0.00000000000E+00 -0.35740347158E-01  0.35744000000E-01  0.51099999109E-03 0. -1.
       22    1    1    2    0    0  0.12843833481E-01 -0.11829886329E-01  0.53351928917E-02  0.18258547375E-01  0.00000000000E+00 0.  1.
  9000001    1    1    2    0    0 -0.12843833481E-01  0.11829886329E-01 -0.53351928917E-02  0.53229452625E-01  0.50000000745E-01 0. -1.
</event>
<event>
 4   0  0.6886900E-01  0.9118800E+02  0.7818609E-02  0.1379984E+01
      -11   -1    0    0    0    0  0.00000000000E+00  0.00000000000E+00  0.35740347158E-01  0.35744000000E-01  0.51099999109E-03 0. -1.
       11   -1    0    0    0    0 -0.00000000000E+00 -0.00000000000E+00 -0.35740347158E-01  0.35744000000E-01  0.51099999109E-03 0.  1.
       22    1    1    2    0    0  0.16966981372E-01 -0.45138152258E-02 -0.50121420045E-02  0.18258547375E-01  0.00000000000E+00 0.  1.
  9000001    1    1    2    0    0 -0.16966981372E-01  0.45138152258E-02  0.50121420045E-02  0.53229452625E-01  0.50000000745E-01 0. -1.
</event>
<event>
 4   0  0.6886900E-01  0.9118800E+02  0.7818609E-02  0.1379984E+01
      -11   -1    0    0    0    0  0.00000000000E+00  0.00000000000E+00  0.35740347158E-01  0.35744000000E-01  0.51099999109E-03 0.  1.
       11   -1    0    0    0    0 -0.00000000000E+00 -0.00000000000E+00 -0.35740347158E-01  0.35744000000E-01  0.51099999109E-03 0. -1.
       22    1    1    2    0    0  0.17593146163E-02  0.25188553205E-02 -0.17998186914E-01  0.18258547375E-01  0.00000000000E+00 0. -1.
  9000001    1    1    2    0    0 -0.17593146163E-02 -0.25188553205E-02  0.17998186914E-01  0.53229452625E-01  0.50000000745E-01 0.  1.
</event>
<event>
 4   0  0.6886900E-01  0.9118800E+02  0.7818609E-02  0.1379984E+01
      -11   -1    0    0    0    0  0.00000000000E+00  0.00000000000E+00  0.35740347158E-01  0.35744000000E-01  0.51099999109E-03 0. -1.
       11   -1    0    0    0    0 -0.00000000000E+00 -0.00000000000E+00 -0.35740347158E-01  0.35744000000E-01  0.51099999109E-03 0.  1.
       22    1    1    2    0    0 -0.10879236910E-01  0.12784444043E-01  0.71815560306E-02  0.18258547375E-01  0.00000000000E+00 0.  1.
  9000001    1    1    2    0    0  0.10879236910E-01 -0.12784444043E-01 -0.71815560306E-02  0.53229452625E-01  0.50000000745E-01 0.  0.
</event>
<event>
 4   0  0.6886900E-01  0.9118800E+02  0.7818609E-02  0.1379984E+01
      -11   -1    0    0    0    0  0.00000000000E+00  0.00000000000E+00  0.35740347158E-01  0.35744000000E-01  0.51099999109E-03 0. -1.
       11   -1    0    0    0    0 -0.00000000000E+00 -0.00000000000E+00 -0.35740347158E-01  0.35744000000E-01  0.51099999109E-03 0.  1.
       22    1    1    2    0    0  0.65622542868E-03  0.42634360011E-02 -0.17741675059E-01  0.18258547375E-01  0.00000000000E+00 0. -1.
  9000001    1    1    2    0    0 -0.65622542868E-03 -0.42634360011E-02  0.17741675059E-01  0.53229452625E-01  0.50000000745E-01 0. -1.
</event>
<event>
 4   0  0.6886900E-01  0.9118800E+02  0.7818609E-02  0.1379984E+01
      -11   -1    0    0    0    0  0.00000000000E+00  0.00000000000E+00  0.35740347158E-01  0.35744000000E-01  0.51099999109E-03 0. -1.
       11   -1    0    0    0    0 -0.00000000000E+00 -0.00000000000E+00 -0.35740347158E-01  0.35744000000E-01  0.51099999109E-03 0.  1.
       22    1    1    2    0    0  0.15462621807E-03  0.34537313030E-02  0.17928256554E-01  0.18258547375E-01  0.00000000000E+00 0. -1.
  9000001    1    1    2    0    0 -0.15462621807E-03 -0.34537313030E-02 -0.17928256554E-01  0.53229452625E-01  0.50000000745E-01 0.  1.
</event>
<event>
 4   0  0.6886900E-01  0.9118800E+02  0.7818609E-02  0.1379984E+01
      -11   -1    0    0    0    0  0.00000000000E+00  0.00000000000E+00  0.35740347158E-01  0.35744000000E-01  0.51099999109E-03 0.  1.
       11   -1    0    0    0    0 -0.00000000000E+00 -0.00000000000E+00 -0.35740347158E-01  0.35744000000E-01  0.51099999109E-03 0. -1.
       22    1    1    2    0    0  0.10016199737E-01  0.10524377255E-01  0.11058380462E-01  0.18258547375E-01  0.00000000000E+00 0. -1.
  9000001    1    1    2    0    0 -0.10016199737E-01 -0.10524377255E-01 -0.11058380462E-01  0.53229452625E-01  0.50000000745E-01 0.  1.
</event>
<event>
 4   0  0.6886900E-01  0.9118800E+02  0.7818609E-02  0.1379984E+01
      -11   -1    0    0    0    0  0.00000000000E+00  0.00000000000E+00  0.35740347158E-01  0.35744000000E-01  0.51099999109E-03 0. -1.
       11   -1    0    0    0    0 -0.00000000000E+00 -0.00000000000E+00 -0.35740347158E-01  0.35744000000E-01  0.51099999109E-03 0.  1.
       22    1    1    2    0    0  0.11236334187E-01  0.11275281248E-01 -0.89435663506E-02  0.18258547375E-01  0.00000000000E+00 0.  1.
  9000001    1    1    2    0    0 -0.11236334187E-01 -0.11275281248E-01  0.89435663506E-02  0.53229452625E-01  0.50000000745E-01 0. -1.
</event>
<event>
 4   0  0.6886900E-01  0.9118800E+02  0.7818609E-02  0.1379984E+01
      -11   -1    0    0    0    0  0.00000000000E+00  0.00000000000E+00  0.35740347158E-01  0.35744000000E-01  0.51099999109E-03 0.  1.
       11   -1    0    0    0    0 -0.00000000000E+00 -0.00000000000E+00 -0.35740347158E-01  0.35744000000E-01  0.51099999109E-03 0. -1.
       22    1    1    2    0    0 -0.68435500876E-02  0.60319334219E-02  0.15816325542E-01  0.18258547375E-01  0.00000000000E+00 0.  1.
  9000001    1    1    2    0    0  0.68435500876E-02 -0.60319334219E-02 -0.15816325542E-01  0.53229452625E-01  0.50000000745E-01 0. -1.
</event>
<event>
 4   0  0.6886900E-01  0.9118800E+02  0.7818609E-02  0.1379984E+01
      -11   -1    0    0    0    0  0.00000000000E+00  0.00000000000E+00  0.35740347158E-01  0.35744000000E-01  0.51099999109E-03 0.  1.
       11   -1    0    0    0    0 -0.00000000000E+00 -0.00000000000E+00 -0.35740347158E-01  0.35744000000E-01  0.51099999109E-03 0. -1.
       22    1    1    2    0    0 -0.95254190791E-02  0.12357461598E-01 -0.94833583960E-02  0.18258547375E-01  0.00000000000E+00 0.  1.
  9000001    1    1    2    0    0  0.95254190791E-02 -0.12357461598E-01  0.94833583960E-02  0.53229452625E-01  0.50000000745E-01 0.  0.
</event>
<event>
 4   0  0.6886900E-01  0.9118800E+02  0.7818609E-02  0.1379984E+01
      -11   -1    0    0    0    0  0.00000000000E+00  0.00000000000E+00  0.35740347158E-01  0.35744000000E-01  0.51099999109E-03 0. -1.
       11   -1    0    0    0    0 -0.00000000000E+00 -0.00000000000E+00 -0.35740347158E-01  0.35744000000E-01  0.51099999109E-03 0.  1.
       22    1    1    2    0    0  0.65764840059E-02 -0.86437186487E-02  0.14676870862E-01  0.18258547375E-01  0.00000000000E+00 0.  1.
  9000001    1    1    2    0    0 -0.65764840059E-02  0.86437186487E-02 -0.14676870862E-01  0.53229452625E-01  0.50000000745E-01 0. -1.
</event>
<event>
 4   0  0.6886900E-01  0.9118800E+02  0.7818609E-02  0.1379984E+01
      -11   -1    0    0    0    0  0.00000000000E+00  0.00000000000E+00  0.35740347158E-01  0.35744000000E-01  0.51099999109E-03 0.  1.
       11   -1    0    0    0    0 -0.00000000000E+00 -0.00000000000E+00 -0.35740347158E-01  0.35744000000E-01  0.51099999109E-03 0. -1.
       22    1    1    2    0    0 -0.20419466186E-02 -0.27106766222E-02  0.17940380110E-01  0.18258547375E-01  0.00000000000E+00 0.  1.
  9000001    1    1    2    0    0  0.20419466186E-02  0.27106766222E-02 -0.17940380110E-01  0.53229452625E-01  0.50000000745E-01 0. -1.
</event>
<event>
 4   0  0.6886900E-01  0.9118800E+02  0.7818609E-02  0.1379984E+01
      -11   -1    0    0    0    0  0.00000000000E+00  0.00000000000E+00  0.35740347158E-01  0.35744000000E-01  0.51099999109E-03 0. -1.
       11   -1    0    0    0    0 -0.00000000000E+00 -0.00000000000E+00 -0.35740347158E-01  0.35744000000E-01  0.51099999109E-03 0.  1.
       22    1    1    2    0    0  0.18100909070E-02 -0.16177603905E-01 -0.82694168503E-02  0.18258547375E-01  0.00000000000E+00 0.  1.
  9000001    1    1    2    0    0 -0.18100909070E-02  0.16177603905E-01  0.82694168503E-02  0.53229452625E-01  0.50000000745E-01 0.  0.
</event>
<event>
 4   0  0.6886900E-01  0.9118800E+02  0.7818609E-02  0.1379984E+01
      -11   -1    0    0    0    0  0.00000000000E+00  0.00000000000E+00  0.35740347158E-01  0.35744000000E-01  0.51099999109E-03 0. -1.
       11   -1    0    0    0    0 -0.00000000000E+00 -0.00000000000E+00 -0.35740347158E-01  0.35744000000E-01  0.51099999109E-03 0.  1.
       22    1    1    2    0    0 -0.16008868883E-01 -0.15816745534E-02 -0.86364908935E-02  0.18258547375E-01  0.00000000000E+00 0.  1.
  9000001    1    1    2    0    0  0.16008868883E-01  0.15816745534E-02  0.86364908935E-02  0.53229452625E-01  0.50000000745E-01 0. -1.
</event>
<event>
 4   0  0.6886900E-01  0.9118800E+02  0.7818609E-02  0.1379984E+01
      -11   -1    0    0    0    0  0.00000000000E+00  0.00000000000E+00  0.35740347158E-01  0.35744000000E-01  0.51099999109E-03 0.  1.
       11   -1    0    0    0    0 -0.00000000000E+00 -0.00000000000E+00 -0.35740347158E-01  0.35744000000E-01  0.51099999109E-03 0. -1.
       22    1    1    2    0    0 -0.30039867789E-02  0.17643604408E-01  0.36130097131E-02  0.18258547375E-01  0.00000000000E+00 0. -1.
  9000001    1    1    2    0    0  0.30039867789E-02 -0.17643604408E-01 -0.36130097131E-02  0.53229452625E-01  0.50000000745E-01 0.  1.
</event>
<event>
 4   0  0.6886900E-01  0.9118800E+02  0.7818609E-02  0.1379984E+01
      -11   -1    0    0    0    0  0.00000000000E+00  0.00000000000E+00  0.35740347158E-01  0.35744000000E-01  0.51099999109E-03 0. -1.
       11   -1    0    0    0    0 -0.00000000000E+00 -0.00000000000E+00 -0.35740347158E-01  0.35744000000E-01  0.51099999109E-03 0.  1.
       22    1    1    2    0    0  0.33766028991E-02 -0.19890638552E-02 -0.17833023582E-01  0.18258547375E-01  0.00000000000E+00 0.  1.
  9000001    1    1    2    0    0 -0.33766028991E-02  0.19890638552E-02  0.17833023582E-01  0.53229452625E-01  0.50000000745E-01 0. -1.
</event>
<event>
 4   0  0.6886900E-01  0.9118800E+02  0.7818609E-02  0.1379984E+01
      -11   -1    0    0    0    0  0.00000000000E+00  0.00000000000E+00  0.35740347158E-01  0.35744000000E-01  0.51099999109E-03 0.  1.
       11   -1    0    0    0    0 -0.00000000000E+00 -0.00000000000E+00 -0.35740347158E-01  0.35744000000E-01  0.51099999109E-03 0. -1.
       22    1    1    2    0    0  0.51159613500E-02 -0.46269876338E-03 -0.17521055949E-01  0.18258547375E-01  0.00000000000E+00 0. -1.
  9000001    1    1    2    0    0 -0.51159613500E-02  0.46269876338E-03  0.17521055949E-01  0.53229452625E-01  0.50000000745E-01 0.  1.
</event>
<event>
 4   0  0.6886900E-01  0.9118800E+02  0.7818609E-02  0.1379984E+01
      -11   -1    0    0    0    0  0.00000000000E+00  0.00000000000E+00  0.35740347158E-01  0.35744000000E-01  0.51099999109E-03 0. -1.
       11   -1    0    0    0    0 -0.00000000000E+00 -0.00000000000E+00 -0.35740347158E-01  0.35744000000E-01  0.51099999109E-03 0.  1.
       22    1    1    2    0    0 -0.11039231666E-01 -0.70502411419E-02 -0.12720220765E-01  0.18258547375E-01  0.00000000000E+00 0.  1.
  9000001    1    1    2    0    0  0.11039231666E-01  0.70502411419E-02  0.12720220765E-01  0.53229452625E-01  0.50000000745E-01 0. -1.
</event>
<event>
 4   0  0.6886900E-01  0.9118800E+02  0.7818609E-02  0.1379984E+01
      -11   -1    0    0    0    0  0.00000000000E+00  0.00000000000E+00  0.35740347158E-01  0.35744000000E-01  0.51099999109E-03 0. -1.
       11   -1    0    0    0    0 -0.00000000000E+00 -0.00000000000E+00 -0.35740347158E-01  0.35744000000E-01  0.51099999109E-03 0.  1.
       22    1    1    2    0    0 -0.72918313356E-02  0.10542599596E-01  0.13002205266E-01  0.18258547375E-01  0.00000000000E+00 0. -1.
  9000001    1    1    2    0    0  0.72918313356E-02 -0.10542599596E-01 -0.13002205266E-01  0.53229452625E-01  0.50000000745E-01 0.  1.
</event>
<event>
 4   0  0.6886900E-01  0.9118800E+02  0.7818609E-02  0.1379984E+01
      -11   -1    0    0    0    0  0.00000000000E+00  0.00000000000E+00  0.35740347158E-01  0.35744000000E-01  0.51099999109E-03 0.  1.
       11   -1    0    0    0    0 -0.00000000000E+00 -0.00000000000E+00 -0.35740347158E-01  0.35744000000E-01  0.51099999109E-03 0. -1.
       22    1    1    2    0    0 -0.17811903985E-01 -0.22973982340E-02 -0.32912900234E-02  0.18258547375E-01  0.00000000000E+00 0. -1.
  9000001    1    1    2    0    0  0.17811903985E-01  0.22973982340E-02  0.32912900234E-02  0.53229452625E-01  0.50000000745E-01 0.  0.
</event>
<event>
 4   0  0.6886900E-01  0.9118800E+02  0.7818609E-02  0.1379984E+01
      -11   -1    0    0    0    0  0.00000000000E+00  0.00000000000E+00  0.35740347158E-01  0.35744000000E-01  0.51099999109E-03 0. -1.
       11   -1    0    0    0    0 -0.00000000000E+00 -0.00000000000E+00 -0.35740347158E-01  0.35744000000E-01  0.51099999109E-03 0.  1.
       22    1    1    2    0    0 -0.87895234773E-05 -0.40332000148E-02  0.17807520115E-01  0.18258547375E-01  0.00000000000E+00 0.  1.
  9000001    1    1    2    0    0  0.87895234773E-05  0.40332000148E-02 -0.17807520115E-01  0.53229452625E-01  0.50000000745E-01 0.  1.
</event>
<event>
 4   0  0.6886900E-01  0.9118800E+02  0.7818609E-02  0.1379984E+01
      -11   -1    0    0    0    0  0.00000000000E+00  0.00000000000E+00  0.35740347158E-01  0.35744000000E-01  0.51099999109E-03 0.  1.
       11   -1    0    0    0    0 -0.00000000000E+00 -0.00000000000E+00 -0.35740347158E-01  0.35744000000E-01  0.51099999109E-03 0. -1.
       22    1    1    2    0    0  0.34511626122E-02 -0.86743870422E-03 -0.17908422012E-01  0.18258547375E-01  0.00000000000E+00 0.  1.
  9000001    1    1    2    0    0 -0.34511626122E-02  0.86743870422E-03  0.17908422012E-01  0.53229452625E-01  0.50000000745E-01 0.  1.
</event>
<event>
 4   0  0.6886900E-01  0.9118800E+02  0.7818609E-02  0.1379984E+01
      -11   -1    0    0    0    0  0.00000000000E+00  0.00000000000E+00  0.35740347158E-01  0.35744000000E-01  0.51099999109E-03 0. -1.
       11   -1    0    0    0    0 -0.00000000000E+00 -0.00000000000E+00 -0.35740347158E-01  0.35744000000E-01  0.51099999109E-03 0.  1.
       22    1    1    2    0    0  0.10775147913E-01  0.39684782350E-02  0.14195841651E-01  0.18258547375E-01  0.00000000000E+00 0.  1.
  9000001    1    1    2    0    0 -0.10775147913E-01 -0.39684782350E-02 -0.14195841651E-01  0.53229452625E-01  0.50000000745E-01 0.  0.
</event>
<event>
 4   0  0.6886900E-01  0.9118800E+02  0.7818609E-02  0.1379984E+01
      -11   -1    0    0    0    0  0.00000000000E+00  0.00000000000E+00  0.35740347158E-01  0.35744000000E-01  0.51099999109E-03 0.  1.
       11   -1    0    0    0    0 -0.00000000000E+00 -0.00000000000E+00 -0.35740347158E-01  0.35744000000E-01  0.51099999109E-03 0. -1.
       22    1    1    2    0    0 -0.12778181959E-02  0.50543437175E-02  0.17498438287E-01  0.18258547375E-01  0.00000000000E+00 0.  1.
  9000001    1    1    2    0    0  0.12778181959E-02 -0.50543437175E-02 -0.17498438287E-01  0.53229452625E-01  0.50000000745E-01 0. -1.
</event>
<event>
 4   0  0.6886900E-01  0.9118800E+02  0.7818609E-02  0.1379984E+01
      -11   -1    0    0    0    0  0.00000000000E+00  0.00000000000E+00  0.35740347158E-01  0.35744000000E-01  0.51099999109E-03 0.  1.
       11   -1    0    0    0    0 -0.00000000000E+00 -0.00000000000E+00 -0.35740347158E-01  0.35744000000E-01  0.51099999109E-03 0. -1.
       22    1    1    2    0    0  0.29084126753E-02  0.38724131883E-02 -0.17604547823E-01  0.18258547375E-01  0.00000000000E+00 0. -1.
  9000001    1    1    2    0    0 -0.29084126753E-02 -0.38724131883E-02  0.17604547823E-01  0.53229452625E-01  0.50000000745E-01 0.  1.
</event>
<event>
 4   0  0.6886900E-01  0.9118800E+02  0.7818609E-02  0.1379984E+01
      -11   -1    0    0    0    0  0.00000000000E+00  0.00000000000E+00  0.35740347158E-01  0.35744000000E-01  0.51099999109E-03 0. -1.
       11   -1    0    0    0    0 -0.00000000000E+00 -0.00000000000E+00 -0.35740347158E-01  0.35744000000E-01  0.51099999109E-03 0.  1.
       22    1    1    2    0    0 -0.48929161773E-02 -0.39604707790E-02  0.17139095505E-01  0.18258547375E-01  0.00000000000E+00 0. -1.
  9000001    1    1    2    0    0  0.48929161773E-02  0.39604707790E-02 -0.17139095505E-01  0.53229452625E-01  0.50000000745E-01 0.  1.
</event>
<event>
 4   0  0.6886900E-01  0.9118800E+02  0.7818609E-02  0.1379984E+01
      -11   -1    0    0    0    0  0.00000000000E+00  0.00000000000E+00  0.35740347158E-01  0.35744000000E-01  0.51099999109E-03 0. -1.
       11   -1    0    0    0    0 -0.00000000000E+00 -0.00000000000E+00 -0.35740347158E-01  0.35744000000E-01  0.51099999109E-03 0.  1.
       22    1    1    2    0    0  0.89895626237E-02  0.14193268539E-01 -0.71493667036E-02  0.18258547375E-01  0.00000000000E+00 0.  1.
  9000001    1    1    2    0    0 -0.89895626237E-02 -0.14193268539E-01  0.71493667036E-02  0.53229452625E-01  0.50000000745E-01 0.  0.
</event>
<event>
 4   0  0.6886900E-01  0.9118800E+02  0.7818609E-02  0.1379984E+01
      -11   -1    0    0    0    0  0.00000000000E+00  0.00000000000E+00  0.35740347158E-01  0.35744000000E-01  0.51099999109E-03 0.  1.
       11   -1    0    0    0    0 -0.00000000000E+00 -0.00000000000E+00 -0.35740347158E-01  0.35744000000E-01  0.51099999109E-03 0. -1.
       22    1    1    2    0    0 -0.32591493354E-02  0.28827779873E-02 -0.17732515020E-01  0.18258547375E-01  0.00000000000E+00 0.  1.
  9000001    1    1    2    0    0  0.32591493354E-02 -0.28827779873E-02  0.17732515020E-01  0.53229452625E-01  0.50000000745E-01 0.  1.
</event>
<event>
 4   0  0.6886900E-01  0.9118800E+02  0.7818609E-02  0.1379984E+01
      -11   -1    0    0    0    0  0.00000000000E+00  0.00000000000E+00  0.35740347158E-01  0.35744000000E-01  0.51099999109E-03 0.  1.
       11   -1    0    0    0    0 -0.00000000000E+00 -0.00000000000E+00 -0.35740347158E-01  0.35744000000E-01  0.51099999109E-03 0. -1.
       22    1    1    2    0    0 -0.13247354943E-01  0.10369523844E-01 -0.70961337714E-02  0.18258547375E-01  0.00000000000E+00 0.  1.
  9000001    1    1    2    0    0  0.13247354943E-01 -0.10369523844E-01  0.70961337714E-02  0.53229452625E-01  0.50000000745E-01 0.  0.
</event>
<event>
 4   0  0.6886900E-01  0.9118800E+02  0.7818609E-02  0.1379984E+01
      -11   -1    0    0    0    0  0.00000000000E+00  0.00000000000E+00  0.35740347158E-01  0.35744000000E-01  0.51099999109E-03 0. -1.
       11   -1    0    0    0    0 -0.00000000000E+00 -0.00000000000E+00 -0.35740347158E-01  0.35744000000E-01  0.51099999109E-03 0.  1.
       22    1    1    2    0    0 -0.29034903223E-02  0.15333031310E-02  0.17960881874E-01  0.18258547375E-01  0.00000000000E+00 0. -1.
  9000001    1    1    2    0    0  0.29034903223E-02 -0.15333031310E-02 -0.17960881874E-01  0.53229452625E-01  0.50000000745E-01 0.  1.
</event>
<event>
 4   0  0.6886900E-01  0.9118800E+02  0.7818609E-02  0.1379984E+01
      -11   -1    0    0    0    0  0.00000000000E+00  0.00000000000E+00  0.35740347158E-01  0.35744000000E-01  0.51099999109E-03 0. -1.
       11   -1    0    0    0    0 -0.00000000000E+00 -0.00000000000E+00 -0.35740347158E-01  0.35744000000E-01  0.51099999109E-03 0.  1.
       22    1    1    2    0    0 -0.10300412809E-01 -0.15019082947E-01 -0.13050653820E-02  0.18258547375E-01  0.00000000000E+00 0.  1.
  9000001    1    1    2    0    0  0.10300412809E-01  0.15019082947E-01  0.13050653820E-02  0.53229452625E-01  0.50000000745E-01 0. -1.
</event>
<event>
 4   0  0.6886900E-01  0.9118800E+02  0.7818609E-02  0.1379984E+01
      -11   -1    0    0    0    0  0.00000000000E+00  0.00000000000E+00  0.35740347158E-01  0.35744000000E-01  0.51099999109E-03 0. -1.
       11   -1    0    0    0    0 -0.00000000000E+00 -0.00000000000E+00 -0.35740347158E-01  0.35744000000E-01  0.51099999109E-03 0.  1.
       22    1    1    2    0    0  0.77039633039E-02 -0.10416237920E-01  0.12865670960E-01  0.18258547375E-01  0.00000000000E+00 0. -1.
  9000001    1    1    2    0    0 -0.77039633039E-02  0.10416237920E-01 -0.12865670960E-01  0.53229452625E-01  0.50000000745E-01 0.  1.
</event>
<event>
 4   0  0.6886900E-01  0.9118800E+02  0.7818609E-02  0.1379984E+01
      -11   -1    0    0    0    0  0.00000000000E+00  0.00000000000E+00  0.35740347158E-01  0.35744000000E-01  0.51099999109E-03 0.  1.
       11   -1    0    0    0    0 -0.00000000000E+00 -0.00000000000E+00 -0.35740347158E-01  0.35744000000E-01  0.51099999109E-03 0. -1.
       22    1    1    2    0    0  0.34744812504E-02  0.14429296918E-01 -0.10634750713E-01  0.18258547375E-01  0.00000000000E+00 0. -1.
  9000001    1    1    2    0    0 -0.34744812504E-02 -0.14429296918E-01  0.10634750713E-01  0.53229452625E-01  0.50000000745E-01 0.  1.
</event>
<event>
 4   0  0.6886900E-01  0.9118800E+02  0.7818609E-02  0.1379984E+01
      -11   -1    0    0    0    0  0.00000000000E+00  0.00000000000E+00  0.35740347158E-01  0.35744000000E-01  0.51099999109E-03 0. -1.
       11   -1    0    0    0    0 -0.00000000000E+00 -0.00000000000E+00 -0.35740347158E-01  0.35744000000E-01  0.51099999109E-03 0.  1.
       22    1    1    2    0    0 -0.89032140870E-02  0.36532881111E-02  0.15516469223E-01  0.18258547375E-01  0.00000000000E+00 0. -1.
  9000001    1    1    2    0    0  0.89032140870E-02 -0.36532881111E-02 -0.15516469223E-01  0.53229452625E-01  0.50000000745E-01 0.  1.
</event>
<event>
 4   0  0.6886900E-01  0.9118800E+02  0.7818609E-02  0.1379984E+01
      -11   -1    0    0    0    0  0.00000000000E+00  0.00000000000E+00  0.35740347158E-01  0.35744000000E-01  0.51099999109E-03 0. -1.
       11   -1    0    0    0    0 -0.00000000000E+00 -0.00000000000E+00 -0.35740347158E-01  0.35744000000E-01  0.51099999109E-03 0.  1.
       22    1    1    2    0    0 -0.50190053948E-02 -0.59844215260E-02  0.16503661294E-01  0.18258547375E-01  0.00000000000E+00 0.  1.
  9000001    1    1    2    0    0  0.50190053948E-02  0.59844215260E-02 -0.16503661294E-01  0.53229452625E-01  0.50000000745E-01 0.  1.
</event>
<event>
 4   0  0.6886900E-01  0.9118800E+02  0.7818609E-02  0.1379984E+01
      -11   -1    0    0    0    0  0.00000000000E+00  0.00000000000E+00  0.35740347158E-01  0.35744000000E-01  0.51099999109E-03 0.  1.
       11   -1    0    0    0    0 -0.00000000000E+00 -0.00000000000E+00 -0.35740347158E-01  0.35744000000E-01  0.51099999109E-03 0. -1.
       22    1    1    2    0    0  0.11850251982E-02 -0.16797095332E-01  0.70588848921E-02  0.18258547375E-01  0.00000000000E+00 0. -1.
  9000001    1    1    2    0    0 -0.11850251982E-02  0.16797095332E-01 -0.70588848921E-02  0.53229452625E-01  0.50000000745E-01 0.  0.
</event>
<event>
 4   0  0.6886900E-01  0.9118800E+02  0.7818609E-02  0.1379984E+01
      -11   -1    0    0    0    0  0.00000000000E+00  0.00000000000E+00  0.35740347158E-01  0.35744000000E-01  0.51099999109E-03 0. -1.
       11   -1    0    0    0    0 -0.00000000000E+00 -0.00000000000E+00 -0.35740347158E-01  0.35744000000E-01  0.51099999109E-03 0.  1.
       22    1    1    2    0    0 -0.50328604947E-02  0.98778230928E-02  0.14507704106E-01  0.18258547375E-01  0.00000000000E+00 0. -1.
  9000001    1    1    2    0    0  0.50328604947E-02 -0.98778230928E-02 -0.14507704106E-01  0.53229452625E-01  0.50000000745E-01 0.  1.
</event>
<event>
 4   0  0.6886900E-01  0.9118800E+02  0.7818609E-02  0.1379984E+01
      -11   -1    0    0    0    0  0.00000000000E+00  0.00000000000E+00  0.35740347158E-01  0.35744000000E-01  0.51099999109E-03 0.  1.
       11   -1    0    0    0    0 -0.00000000000E+00 -0.00000000000E+00 -0.35740347158E-01  0.35744000000E-01  0.51099999109E-03 0. -1.
       22    1    1    2    0    0  0.29572066674E-02 -0.91362738265E-02 -0.15529262105E-01  0.18258547375E-01  0.00000000000E+00 0. -1.
  9000001    1    1    2    0    0 -0.29572066674E-02  0.91362738265E-02  0.15529262105E-01  0.53229452625E-01  0.50000000745E-01 0.  1.
</event>
<event>
 4   0  0.6886900E-01  0.9118800E+02  0.7818609E-02  0.1379984E+01
      -11   -1    0    0    0    0  0.00000000000E+00  0.00000000000E+00  0.35740347158E-01  0.35744000000E-01  0.51099999109E-03 0. -1.
       11   -1    0    0    0    0 -0.00000000000E+00 -0.00000000000E+00 -0.35740347158E-01  0.35744000000E-01  0.51099999109E-03 0.  1.
       22    1    1    2    0    0 -0.13531466804E-01 -0.12023666052E-01  0.23886006484E-02  0.18258547375E-01  0.00000000000E+00 0.  1.
  9000001    1    1    2    0    0  0.13531466804E-01  0.12023666052E-01 -0.23886006484E-02  0.53229452625E-01  0.50000000745E-01 0.  0.
</event>
<event>
 4   0  0.6886900E-01  0.9118800E+02  0.7818609E-02  0.1379984E+01
      -11   -1    0    0    0    0  0.00000000000E+00  0.00000000000E+00  0.35740347158E-01  0.35744000000E-01  0.51099999109E-03 0. -1.
       11   -1    0    0    0    0 -0.00000000000E+00 -0.00000000000E+00 -0.35740347158E-01  0.35744000000E-01  0.51099999109E-03 0.  1.
       22    1    1    2    0    0  0.33980191068E-02  0.64587524596E-02 -0.16736562821E-01  0.18258547375E-01  0.00000000000E+00 0.  1.
  9000001    1    1    2    0    0 -0.33980191068E-02 -0.64587524596E-02  0.16736562821E-01  0.53229452625E-01  0.50000000745E-01 0. -1.
</event>
<event>
 4   0  0.6886900E-01  0.9118800E+02  0.7818609E-02  0.1379984E+01
      -11   -1    0    0    0    0  0.00000000000E+00  0.00000000000E+00  0.35740347158E-01  0.35744000000E-01  0.51099999109E-03 0. -1.
       11   -1    0    0    0    0 -0.00000000000E+00 -0.00000000000E+00 -0.35740347158E-01  0.35744000000E-01  0.51099999109E-03 0.  1.
       22    1    1    2    0    0  0.81075220722E-02  0.53563921275E-02  0.15458062669E-01  0.18258547375E-01  0.00000000000E+00 0. -1.
  9000001    1    1    2    0    0 -0.81075220722E-02 -0.53563921275E-02 -0.15458062669E-01  0.53229452625E-01  0.50000000745E-01 0.  1.
</event>
<event>
 4   0  0.6886900E-01  0.9118800E+02  0.7818609E-02  0.1379984E+01
      -11   -1    0    0    0    0  0.00000000000E+00  0.00000000000E+00  0.35740347158E-01  0.35744000000E-01  0.51099999109E-03 0.  1.
       11   -1    0    0    0    0 -0.00000000000E+00 -0.00000000000E+00 -0.35740347158E-01  0.35744000000E-01  0.51099999109E-03 0. -1.
       22    1    1    2    0    0 -0.52978149768E-03  0.38815500702E-02 -0.17833324224E-01  0.18258547375E-01  0.00000000000E+00 0.  1.
  9000001    1    1    2    0    0  0.52978149768E-03 -0.38815500702E-02  0.17833324224E-01  0.53229452625E-01  0.50000000745E-01 0.  1.
</event>
<event>
 4   0  0.6886900E-01  0.9118800E+02  0.7818609E-02  0.1379984E+01
      -11   -1    0    0    0    0  0.00000000000E+00  0.00000000000E+00  0.35740347158E-01  0.35744000000E-01  0.51099999109E-03 0.  1.
       11   -1    0    0    0    0 -0.00000000000E+00 -0.00000000000E+00 -0.35740347158E-01  0.35744000000E-01  0.51099999109E-03 0. -1.
       22    1    1    2    0    0 -0.36788488426E-02 -0.15432973309E-02 -0.17817375137E-01  0.18258547375E-01  0.00000000000E+00 0. -1.
  9000001    1    1    2    0    0  0.36788488426E-02  0.15432973309E-02  0.17817375137E-01  0.53229452625E-01  0.50000000745E-01 0.  1.
</event>
<event>
 4   0  0.6886900E-01  0.9118800E+02  0.7818609E-02  0.1379984E+01
      -11   -1    0    0    0    0  0.00000000000E+00  0.00000000000E+00  0.35740347158E-01  0.35744000000E-01  0.51099999109E-03 0.  1.
       11   -1    0    0    0    0 -0.00000000000E+00 -0.00000000000E+00 -0.35740347158E-01  0.35744000000E-01  0.51099999109E-03 0. -1.
       22    1    1    2    0    0  0.17452104545E-01 -0.37260622478E-02  0.38620019837E-02  0.18258547375E-01  0.00000000000E+00 0. -1.
  9000001    1    1    2    0    0 -0.17452104545E-01  0.37260622478E-02 -0.38620019837E-02  0.53229452625E-01  0.50000000745E-01 0. -1.
</event>
<event>
 4   0  0.6886900E-01  0.9118800E+02  0.7818609E-02  0.1379984E+01
      -11   -1    0    0    0    0  0.00000000000E+00  0.00000000000E+00  0.35740347158E-01  0.35744000000E-01  0.51099999109E-03 0.  1.
       11   -1    0    0    0    0 -0.00000000000E+00 -0.00000000000E+00 -0.35740347158E-01  0.35744000000E-01  0.51099999109E-03 0. -1.
       22    1    1    2    0    0 -0.15767693272E-01 -0.70250404522E-02 -0.59500594776E-02  0.18258547375E-01  0.00000000000E+00 0. -1.
  9000001    1    1    2    0    0  0.15767693272E-01  0.70250404522E-02  0.59500594776E-02  0.53229452625E-01  0.50000000745E-01 0.  0.
</event>
<event>
 4   0  0.6886900E-01  0.9118800E+02  0.7818609E-02  0.1379984E+01
      -11   -1    0    0    0    0  0.00000000000E+00  0.00000000000E+00  0.35740347158E-01  0.35744000000E-01  0.51099999109E-03 0. -1.
       11   -1    0    0    0    0 -0.00000000000E+00 -0.00000000000E+00 -0.35740347158E-01  0.35744000000E-01  0.51099999109E-03 0.  1.
       22    1    1    2    0    0 -0.13477756697E-02  0.32150114353E-02  0.17922660362E-01  0.18258547375E-01  0.00000000000E+00 0. -1.
  9000001    1    1    2    0    0  0.13477756697E-02 -0.32150114353E-02 -0.17922660362E-01  0.53229452625E-01  0.50000000745E-01 0.  1.
</event>
<event>
 4   0  0.6886900E-01  0.9118800E+02  0.7818609E-02  0.1379984E+01
      -11   -1    0    0    0    0  0.00000000000E+00  0.00000000000E+00  0.35740347158E-01  0.35744000000E-01  0.51099999109E-03 0. -1.
       11   -1    0    0    0    0 -0.00000000000E+00 -0.00000000000E+00 -0.35740347158E-01  0.35744000000E-01  0.51099999109E-03 0.  1.
       22    1    1    2    0    0 -0.42101107062E-02 -0.97026842027E-02 -0.14883125994E-01  0.18258547375E-01  0.00000000000E+00 0.  1.
  9000001    1    1    2    0    0  0.42101107062E-02  0.97026842027E-02  0.14883125994E-01  0.53229452625E-01  0.50000000745E-01 0. -1.
</event>
<event>
 4   0  0.6886900E-01  0.9118800E+02  0.7818609E-02  0.1379984E+01
      -11   -1    0    0    0    0  0.00000000000E+00  0.00000000000E+00  0.35740347158E-01  0.35744000000E-01  0.51099999109E-03 0. -1.
       11   -1    0    0    0    0 -0.00000000000E+00 -0.00000000000E+00 -0.35740347158E-01  0.35744000000E-01  0.51099999109E-03 0.  1.
       22    1    1    2    0    0 -0.92142509759E-02 -0.11869121529E-01  0.10372853287E-01  0.18258547375E-01  0.00000000000E+00 0.  1.
  9000001    1    1    2    0    0  0.92142509759E-02  0.11869121529E-01 -0.10372853287E-01  0.53229452625E-01  0.50000000745E-01 0.  0.
</event>
<event>
 4   0  0.6886900E-01  0.9118800E+02  0.7818609E-02  0.1379984E+01
      -11   -1    0    0    0    0  0.00000000000E+00  0.00000000000E+00  0.35740347158E-01  0.35744000000E-01  0.51099999109E-03 0. -1.
       11   -1    0    0    0    0 -0.00000000000E+00 -0.00000000000E+00 -0.35740347158E-01  0.35744000000E-01  0.51099999109E-03 0.  1.
       22    1    1    2    0    0 -0.42477681296E-03  0.48043196977E-02 -0.17610015024E-01  0.18258547375E-01  0.00000000000E+00 0.  1.
  9000001    1    1    2    0    0  0.42477681296E-03 -0.48043196977E-02  0.17610015024E-01  0.53229452625E-01  0.50000000745E-01 0. -1.
</event>
<event>
 4   0  0.6886900E-01  0.9118800E+02  0.7818609E-02  0.1379984E+01
      -11   -1    0    0    0    0  0.00000000000E+00  0.00000000000E+00  0.35740347158E-01  0.35744000000E-01  0.51099999109E-03 0. -1.
       11   -1    0    0    0    0 -0.00000000000E+00 -0.00000000000E+00 -0.35740347158E-01  0.35744000000E-01  0.51099999109E-03 0.  1.
       22    1    1    2    0    0  0.68654828752E-02  0.16707105051E-01  0.26668966909E-02  0.18258547375E-01  0.00000000000E+00 0.  1.
  9000001    1    1    2    0    0 -0.68654828752E-02 -0.16707105051E-01 -0.26668966909E-02  0.53229452625E-01  0.50000000745E-01 0. -1.
</event>
<event>
 4   0  0.6886900E-01  0.9118800E+02  0.7818609E-02  0.1379984E+01
      -11   -1    0    0    0    0  0.00000000000E+00  0.00000000000E+00  0.35740347158E-01  0.35744000000E-01  0.51099999109E-03 0. -1.
       11   -1    0    0    0    0 -0.00000000000E+00 -0.00000000000E+00 -0.35740347158E-01  0.35744000000E-01  0.51099999109E-03 0.  1.
       22    1    1    2    0    0 -0.86810002917E-02 -0.90695647282E-02  0.13257367077E-01  0.18258547375E-01  0.00000000000E+00 0. -1.
  9000001    1    1    2    0    0  0.86810002917E-02  0.90695647282E-02 -0.13257367077E-01  0.53229452625E-01  0.50000000745E-01 0.  1.
</event>
<event>
 4   0  0.6886900E-01  0.9118800E+02  0.7818609E-02  0.1379984E+01
      -11   -1    0    0    0    0  0.00000000000E+00  0.00000000000E+00  0.35740347158E-01  0.35744000000E-01  0.51099999109E-03 0. -1.
       11   -1    0    0    0    0 -0.00000000000E+00 -0.00000000000E+00 -0.35740347158E-01  0.35744000000E-01  0.51099999109E-03 0.  1.
       22    1    1    2    0    0 -0.56661661247E-02 -0.60258297160E-02  0.16277545574E-01  0.18258547375E-01  0.00000000000E+00 0. -1.
  9000001    1    1    2    0    0  0.56661661247E-02  0.60258297160E-02 -0.16277545574E-01  0.53229452625E-01  0.50000000745E-01 0.  1.
</event>
<event>
 4   0  0.6886900E-01  0.9118800E+02  0.7818609E-02  0.1379984E+01
      -11   -1    0    0    0    0  0.00000000000E+00  0.00000000000E+00  0.35740347158E-01  0.35744000000E-01  0.51099999109E-03 0.  1.
       11   -1    0    0    0    0 -0.00000000000E+00 -0.00000000000E+00 -0.35740347158E-01  0.35744000000E-01  0.51099999109E-03 0. -1.
       22    1    1    2    0    0 -0.67755919937E-02  0.46917612590E-02  0.16292737083E-01  0.18258547375E-01  0.00000000000E+00 0.  1.
  9000001    1    1    2    0    0  0.67755919937E-02 -0.46917612590E-02 -0.16292737083E-01  0.53229452625E-01  0.50000000745E-01 0. -1.
</event>
<event>
 4   0  0.6886900E-01  0.9118800E+02  0.7818609E-02  0.1379984E+01
      -11   -1    0    0    0    0  0.00000000000E+00  0.00000000000E+00  0.35740347158E-01  0.35744000000E-01  0.51099999109E-03 0.  1.
       11   -1    0    0    0    0 -0.00000000000E+00 -0.00000000000E+00 -0.35740347158E-01  0.35744000000E-01  0.51099999109E-03 0. -1.
       22    1    1    2    0    0 -0.24423679652E-02  0.21341439649E-02 -0.17968161300E-01  0.18258547375E-01  0.00000000000E+00 0. -1.
  9000001    1    1    2    0    0  0.24423679652E-02 -0.21341439649E-02  0.17968161300E-01  0.53229452625E-01  0.50000000745E-01 0.  1.
</event>
<event>
 4   0  0.6886900E-01  0.9118800E+02  0.7818609E-02  0.1379984E+01
      -11   -1    0    0    0    0  0.00000000000E+00  0.00000000000E+00  0.35740347158E-01  0.35744000000E-01  0.51099999109E-03 0. -1.
       11   -1    0    0    0    0 -0.00000000000E+00 -0.00000000000E+00 -0.35740347158E-01  0.35744000000E-01  0.51099999109E-03 0.  1.
       22    1    1    2    0    0  0.93521586052E-02  0.11299603659E-01  0.10873391320E-01  0.18258547375E-01  0.00000000000E+00 0. -1.
  9000001    1    1    2    0    0 -0.93521586052E-02 -0.11299603659E-01 -0.10873391320E-01  0.53229452625E-01  0.50000000745E-01 0.  1.
</event>
<event>
 4   0  0.6886900E-01  0.9118800E+02  0.7818609E-02  0.1379984E+01
      -11   -1    0    0    0    0  0.00000000000E+00  0.00000000000E+00  0.35740347158E-01  0.35744000000E-01  0.51099999109E-03 0.  1.
       11   -1    0    0    0    0 -0.00000000000E+00 -0.00000000000E+00 -0.35740347158E-01  0.35744000000E-01  0.51099999109E-03 0. -1.
       22    1    1    2    0    0  0.20175443673E-02  0.15781703309E-01  0.89577847503E-02  0.18258547375E-01  0.00000000000E+00 0. -1.
  9000001    1    1    2    0    0 -0.20175443673E-02 -0.15781703309E-01 -0.89577847503E-02  0.53229452625E-01  0.50000000745E-01 0.  0.
</event>
<event>
 4   0  0.6886900E-01  0.9118800E+02  0.7818609E-02  0.1379984E+01
      -11   -1    0    0    0    0  0.00000000000E+00  0.00000000000E+00  0.35740347158E-01  0.35744000000E-01  0.51099999109E-03 0. -1.
       11   -1    0    0    0    0 -0.00000000000E+00 -0.00000000000E+00 -0.35740347158E-01  0.35744000000E-01  0.51099999109E-03 0.  1.
       22    1    1    2    0    0 -0.49287624223E-02  0.14018476519E-02  0.17524744688E-01  0.18258547375E-01  0.00000000000E+00 0.  1.
  9000001    1    1    2    0    0  0.49287624223E-02 -0.14018476519E-02 -0.17524744688E-01  0.53229452625E-01  0.50000000745E-01 0.  0.
</event>
<event>
 4   0  0.6886900E-01  0.9118800E+02  0.7818609E-02  0.1379984E+01
      -11   -1    0    0    0    0  0.00000000000E+00  0.00000000000E+00  0.35740347158E-01  0.35744000000E-01  0.51099999109E-03 0. -1.
       11   -1    0    0    0    0 -0.00000000000E+00 -0.00000000000E+00 -0.35740347158E-01  0.35744000000E-01  0.51099999109E-03 0.  1.
       22    1    1    2    0    0 -0.25187878057E-02  0.34561900065E-02 -0.17750634098E-01  0.18258547375E-01  0.00000000000E+00 0. -1.
  9000001    1    1    2    0    0  0.25187878057E-02 -0.34561900065E-02  0.17750634098E-01  0.53229452625E-01  0.50000000745E-01 0. -1.
</event>
<event>
 4   0  0.6886900E-01  0.9118800E+02  0.7818609E-02  0.1379984E+01
      -11   -1    0    0    0    0  0.00000000000E+00  0.00000000000E+00  0.35740347158E-01  0.35744000000E-01  0.51099999109E-03 0. -1.
       11   -1    0    0    0    0 -0.00000000000E+00 -0.00000000000E+00 -0.35740347158E-01  0.35744000000E-01  0.51099999109E-03 0.  1.
       22    1    1    2    0    0 -0.75416578465E-02 -0.57226034295E-02  0.15612487283E-01  0.18258547375E-01  0.00000000000E+00 0. -1.
  9000001    1    1    2    0    0  0.75416578465E-02  0.57226034295E-02 -0.15612487283E-01  0.53229452625E-01  0.50000000745E-01 0.  1.
</event>
<event>
 4   0  0.6886900E-01  0.9118800E+02  0.7818609E-02  0.1379984E+01
      -11   -1    0    0    0    0  0.00000000000E+00  0.00000000000E+00  0.35740347158E-01  0.35744000000E-01  0.51099999109E-03 0.  1.
       11   -1    0    0    0    0 -0.00000000000E+00 -0.00000000000E+00 -0.35740347158E-01  0.35744000000E-01  0.51099999109E-03 0. -1.
       22    1    1    2    0    0 -0.37546713346E-02  0.51904743697E-02 -0.17097835279E-01  0.18258547375E-01  0.00000000000E+00 0. -1.
  9000001    1    1    2    0    0  0.37546713346E-02 -0.51904743697E-02  0.17097835279E-01  0.53229452625E-01  0.50000000745E-01 0.  1.
</event>
<event>
 4   0  0.6886900E-01  0.9118800E+02  0.7818609E-02  0.1379984E+01
      -11   -1    0    0    0    0  0.00000000000E+00  0.00000000000E+00  0.35740347158E-01  0.35744000000E-01  0.51099999109E-03 0.  1.
       11   -1    0    0    0    0 -0.00000000000E+00 -0.00000000000E+00 -0.35740347158E-01  0.35744000000E-01  0.51099999109E-03 0. -1.
       22    1    1    2    0    0  0.34432633215E-02 -0.74855471772E-02  0.16293712695E-01  0.18258547375E-01  0.00000000000E+00 0.  1.
  9000001    1    1    2    0    0 -0.34432633215E-02  0.74855471772E-02 -0.16293712695E-01  0.53229452625E-01  0.50000000745E-01 0. -1.
</event>
<event>
 4   0  0.6886900E-01  0.9118800E+02  0.7818609E-02  0.1379984E+01
      -11   -1    0    0    0    0  0.00000000000E+00  0.00000000000E+00  0.35740347158E-01  0.35744000000E-01  0.51099999109E-03 0. -1.
       11   -1    0    0    0    0 -0.00000000000E+00 -0.00000000000E+00 -0.35740347158E-01  0.35744000000E-01  0.51099999109E-03 0.  1.
       22    1    1    2    0    0 -0.42201614980E-02 -0.11884822878E-01 -0.13202869928E-01  0.18258547375E-01  0.00000000000E+00 0.  1.
  9000001    1    1    2    0    0  0.42201614980E-02  0.11884822878E-01  0.13202869928E-01  0.53229452625E-01  0.50000000745E-01 0. -1.
</event>
<event>
 4   0  0.6886900E-01  0.9118800E+02  0.7818609E-02  0.1379984E+01
      -11   -1    0    0    0    0  0.00000000000E+00  0.00000000000E+00  0.35740347158E-01  0.35744000000E-01  0.51099999109E-03 0.  1.
       11   -1    0    0    0    0 -0.00000000000E+00 -0.00000000000E+00 -0.35740347158E-01  0.35744000000E-01  0.51099999109E-03 0. -1.
       22    1    1    2    0    0  0.67828143483E-02 -0.34388099286E-02  0.16599474933E-01  0.18258547375E-01  0.00000000000E+00 0.  1.
  9000001    1    1    2    0    0 -0.67828143483E-02  0.34388099286E-02 -0.16599474933E-01  0.53229452625E-01  0.50000000745E-01 0. -1.
</event>
<event>
 4   0  0.6886900E-01  0.9118800E+02  0.7818609E-02  0.1379984E+01
      -11   -1    0    0    0    0  0.00000000000E+00  0.00000000000E+00  0.35740347158E-01  0.35744000000E-01  0.51099999109E-03 0. -1.
       11   -1    0    0    0    0 -0.00000000000E+00 -0.00000000000E+00 -0.35740347158E-01  0.35744000000E-01  0.51099999109E-03 0.  1.
       22    1    1    2    0    0 -0.41423312503E-02  0.81515711280E-02 -0.15804035314E-01  0.18258547375E-01  0.00000000000E+00 0.  1.
  9000001    1    1    2    0    0  0.41423312503E-02 -0.81515711280E-02  0.15804035314E-01  0.53229452625E-01  0.50000000745E-01 0. -1.
</event>
<event>
 4   0  0.6886900E-01  0.9118800E+02  0.7818609E-02  0.1379984E+01
      -11   -1    0    0    0    0  0.00000000000E+00  0.00000000000E+00  0.35740347158E-01  0.35744000000E-01  0.51099999109E-03 0.  1.
       11   -1    0    0    0    0 -0.00000000000E+00 -0.00000000000E+00 -0.35740347158E-01  0.35744000000E-01  0.51099999109E-03 0. -1.
       22    1    1    2    0    0 -0.59387202341E-02  0.27917570128E-02  0.17038551787E-01  0.18258547375E-01  0.00000000000E+00 0.  1.
  9000001    1    1    2    0    0  0.59387202341E-02 -0.27917570128E-02 -0.17038551787E-01  0.53229452625E-01  0.50000000745E-01 0. -1.
</event>
<event>
 4   0  0.6886900E-01  0.9118800E+02  0.7818609E-02  0.1379984E+01
      -11   -1    0    0    0    0  0.00000000000E+00  0.00000000000E+00  0.35740347158E-01  0.35744000000E-01  0.51099999109E-03 0. -1.
       11   -1    0    0    0    0 -0.00000000000E+00 -0.00000000000E+00 -0.35740347158E-01  0.35744000000E-01  0.51099999109E-03 0.  1.
       22    1    1    2    0    0 -0.14372823185E-01  0.11174108219E-01  0.13913344086E-02  0.18258547375E-01  0.00000000000E+00 0.  1.
  9000001    1    1    2    0    0  0.14372823185E-01 -0.11174108219E-01 -0.13913344086E-02  0.53229452625E-01  0.50000000745E-01 0. -1.
</event>
<event>
 4   0  0.6886900E-01  0.9118800E+02  0.7818609E-02  0.1379984E+01
      -11   -1    0    0    0    0  0.00000000000E+00  0.00000000000E+00  0.35740347158E-01  0.35744000000E-01  0.51099999109E-03 0. -1.
       11   -1    0    0    0    0 -0.00000000000E+00 -0.00000000000E+00 -0.35740347158E-01  0.35744000000E-01  0.51099999109E-03 0.  1.
       22    1    1    2    0    0 -0.15166415622E-01 -0.71793280127E-02  0.71980301975E-02  0.18258547375E-01  0.00000000000E+00 0. -1.
  9000001    1    1    2    0    0  0.15166415622E-01  0.71793280127E-02 -0.71980301975E-02  0.53229452625E-01  0.50000000745E-01 0.  1.
</event>
<event>
 4   0  0.6886900E-01  0.9118800E+02  0.7818609E-02  0.1379984E+01
      -11   -1    0    0    0    0  0.00000000000E+00  0.00000000000E+00  0.35740347158E-01  0.35744000000E-01  0.51099999109E-03 0.  1.
       11   -1    0    0    0    0 -0.00000000000E+00 -0.00000000000E+00 -0.35740347158E-01  0.35744000000E-01  0.51099999109E-03 0. -1.
       22    1    1    2    0    0  0.29588827799E-02 -0.57035524818E-02 -0.17090613038E-01  0.18258547375E-01  0.00000000000E+00 0. -1.
  9000001    1    1    2    0    0 -0.29588827799E-02  0.57035524818E-02  0.17090613038E-01  0.53229452625E-01  0.50000000745E-01 0.  1.
</event>
<event>
 4   0  0.6886900E-01  0.9118800E+02  0.7818609E-02  0.1379984E+01
      -11   -1    0    0    0    0  0.00000000000E+00  0.00000000000E+00  0.35740347158E-01  0.35744000000E-01  0.51099999109E-03 0.  1.
       11   -1    0    0    0    0 -0.00000000000E+00 -0.00000000000E+00 -0.35740347158E-01  0.35744000000E-01  0.51099999109E-03 0. -1.
       22    1    1    2    0    0  0.93485389093E-02 -0.15670713297E-01 -0.63884057740E-03  0.18258547375E-01  0.00000000000E+00 0.  1.
  9000001    1    1    2    0    0 -0.93485389093E-02  0.15670713297E-01  0.63884057740E-03  0.53229452625E-01  0.50000000745E-01 0.  0.
</event>
<event>
 4   0  0.6886900E-01  0.9118800E+02  0.7818609E-02  0.1379984E+01
      -11   -1    0    0    0    0  0.00000000000E+00  0.00000000000E+00  0.35740347158E-01  0.35744000000E-01  0.51099999109E-03 0.  1.
       11   -1    0    0    0    0 -0.00000000000E+00 -0.00000000000E+00 -0.35740347158E-01  0.35744000000E-01  0.51099999109E-03 0. -1.
       22    1    1    2    0    0 -0.20418382949E-02 -0.16886334451E-01 -0.66375565868E-02  0.18258547375E-01  0.00000000000E+00 0. -1.
  9000001    1    1    2    0    0  0.20418382949E-02  0.16886334451E-01  0.66375565868E-02  0.53229452625E-01  0.50000000745E-01 0.  1.
</event>
<event>
 4   0  0.6886900E-01  0.9118800E+02  0.7818609E-02  0.1379984E+01
      -11   -1    0    0    0    0  0.00000000000E+00  0.00000000000E+00  0.35740347158E-01  0.35744000000E-01  0.51099999109E-03 0. -1.
       11   -1    0    0    0    0 -0.00000000000E+00 -0.00000000000E+00 -0.35740347158E-01  0.35744000000E-01  0.51099999109E-03 0.  1.
       22    1    1    2    0    0  0.14213075127E-01 -0.11330309305E-01 -0.17283340953E-02  0.18258547375E-01  0.00000000000E+00 0.  1.
  9000001    1    1    2    0    0 -0.14213075127E-01  0.11330309305E-01  0.17283340953E-02  0.53229452625E-01  0.50000000745E-01 0.  0.
</event>
<event>
 4   0  0.6886900E-01  0.9118800E+02  0.7818609E-02  0.1379984E+01
      -11   -1    0    0    0    0  0.00000000000E+00  0.00000000000E+00  0.35740347158E-01  0.35744000000E-01  0.51099999109E-03 0. -1.
       11   -1    0    0    0    0 -0.00000000000E+00 -0.00000000000E+00 -0.35740347158E-01  0.35744000000E-01  0.51099999109E-03 0.  1.
       22    1    1    2    0    0 -0.98539466357E-02  0.10251944025E-01  0.11453031549E-01  0.18258547375E-01  0.00000000000E+00 0. -1.
  9000001    1    1    2    0    0  0.98539466357E-02 -0.10251944025E-01 -0.11453031549E-01  0.53229452625E-01  0.50000000745E-01 0.  0.
</event>
<event>
 4   0  0.6886900E-01  0.9118800E+02  0.7818609E-02  0.1379984E+01
      -11   -1    0    0    0    0  0.00000000000E+00  0.00000000000E+00  0.35740347158E-01  0.35744000000E-01  0.51099999109E-03 0. -1.
       11   -1    0    0    0    0 -0.00000000000E+00 -0.00000000000E+00 -0.35740347158E-01  0.35744000000E-01  0.51099999109E-03 0.  1.
       22    1    1    2    0    0  0.42000655868E-02 -0.15034069206E-01  0.94715766594E-02  0.18258547375E-01  0.00000000000E+00 0. -1.
  9000001    1    1    2    0    0 -0.42000655868E-02  0.15034069206E-01 -0.94715766594E-02  0.53229452625E-01  0.50000000745E-01 0.  1.
</event>
<event>
 4   0  0.6886900E-01  0.9118800E+02  0.7818609E-02  0.1379984E+01
      -11   -1    0    0    0    0  0.00000000000E+00  0.00000000000E+00  0.35740347158E-01  0.35744000000E-01  0.51099999109E-03 0.  1.
       11   -1    0    0    0    0 -0.00000000000E+00 -0.00000000000E+00 -0.35740347158E-01  0.35744000000E-01  0.51099999109E-03 0. -1.
       22    1    1    2    0    0  0.16545574094E-01 -0.76959100641E-02  0.62569835736E-03  0.18258547375E-01  0.00000000000E+00 0. -1.
  9000001    1    1    2    0    0 -0.16545574094E-01  0.76959100641E-02 -0.62569835736E-03  0.53229452625E-01  0.50000000745E-01 0.  0.
</event>
<event>
 4   0  0.6886900E-01  0.9118800E+02  0.7818609E-02  0.1379984E+01
      -11   -1    0    0    0    0  0.00000000000E+00  0.00000000000E+00  0.35740347158E-01  0.35744000000E-01  0.51099999109E-03 0. -1.
       11   -1    0    0    0    0 -0.00000000000E+00 -0.00000000000E+00 -0.35740347158E-01  0.35744000000E-01  0.51099999109E-03 0.  1.
       22    1    1    2    0    0 -0.12449622227E-01  0.72678086304E-02  0.11205374441E-01  0.18258547375E-01  0.00000000000E+00 0. -1.
  9000001    1    1    2    0    0  0.12449622227E-01 -0.72678086304E-02 -0.11205374441E-01  0.53229452625E-01  0.50000000745E-01 0.  1.
</event>
<event>
 4   0  0.6886900E-01  0.9118800E+02  0.7818609E-02  0.1379984E+01
      -11   -1    0    0    0    0  0.00000000000E+00  0.00000000000E+00  0.35740347158E-01  0.35744000000E-01  0.51099999109E-03 0.  1.
       11   -1    0    0    0    0 -0.00000000000E+00 -0.00000000000E+00 -0.35740347158E-01  0.35744000000E-01  0.51099999109E-03 0. -1.
       22    1    1    2    0    0  0.14943668955E-01 -0.90528497625E-02  0.53016244298E-02  0.18258547375E-01  0.00000000000E+00 0. -1.
  9000001    1    1    2    0    0 -0.14943668955E-01  0.90528497625E-02 -0.53016244298E-02  0.53229452625E-01  0.50000000745E-01 0.  0.
</event>
<event>
 4   0  0.6886900E-01  0.9118800E+02  0.7818609E-02  0.1379984E+01
      -11   -1    0    0    0    0  0.00000000000E+00  0.00000000000E+00  0.35740347158E-01  0.35744000000E-01  0.51099999109E-03 0. -1.
       11   -1    0    0    0    0 -0.00000000000E+00 -0.00000000000E+00 -0.35740347158E-01  0.35744000000E-01  0.51099999109E-03 0.  1.
       22    1    1    2    0    0 -0.49528740002E-02  0.12552178440E-02 -0.17529062141E-01  0.18258547375E-01  0.00000000000E+00 0.  1.
  9000001    1    1    2    0    0  0.49528740002E-02 -0.12552178440E-02  0.17529062141E-01  0.53229452625E-01  0.50000000745E-01 0. -1.
</event>
<event>
 4   0  0.6886900E-01  0.9118800E+02  0.7818609E-02  0.1379984E+01
      -11   -1    0    0    0    0  0.00000000000E+00  0.00000000000E+00  0.35740347158E-01  0.35744000000E-01  0.51099999109E-03 0. -1.
       11   -1    0    0    0    0 -0.00000000000E+00 -0.00000000000E+00 -0.35740347158E-01  0.35744000000E-01  0.51099999109E-03 0.  1.
       22    1    1    2    0    0  0.13335926202E-01 -0.75574865870E-02 -0.99202833154E-02  0.18258547375E-01  0.00000000000E+00 0.  1.
  9000001    1    1    2    0    0 -0.13335926202E-01  0.75574865870E-02  0.99202833154E-02  0.53229452625E-01  0.50000000745E-01 0. -1.
</event>
<event>
 4   0  0.6886900E-01  0.9118800E+02  0.7818609E-02  0.1379984E+01
      -11   -1    0    0    0    0  0.00000000000E+00  0.00000000000E+00  0.35740347158E-01  0.35744000000E-01  0.51099999109E-03 0.  1.
       11   -1    0    0    0    0 -0.00000000000E+00 -0.00000000000E+00 -0.35740347158E-01  0.35744000000E-01  0.51099999109E-03 0. -1.
       22    1    1    2    0    0  0.31061370673E-02 -0.24757435743E-03  0.17990696810E-01  0.18258547375E-01  0.00000000000E+00 0.  1.
  9000001    1    1    2    0    0 -0.31061370673E-02  0.24757435743E-03 -0.17990696810E-01  0.53229452625E-01  0.50000000745E-01 0. -1.
</event>
<event>
 4   0  0.6886900E-01  0.9118800E+02  0.7818609E-02  0.1379984E+01
      -11   -1    0    0    0    0  0.00000000000E+00  0.00000000000E+00  0.35740347158E-01  0.35744000000E-01  0.51099999109E-03 0. -1.
       11   -1    0    0    0    0 -0.00000000000E+00 -0.00000000000E+00 -0.35740347158E-01  0.35744000000E-01  0.51099999109E-03 0.  1.
       22    1    1    2    0    0 -0.17587426349E-01 -0.65034885990E-03 -0.48614846511E-02  0.18258547375E-01  0.00000000000E+00 0.  1.
  9000001    1    1    2    0    0  0.17587426349E-01  0.65034885990E-03  0.48614846511E-02  0.53229452625E-01  0.50000000745E-01 0. -1.
</event>
<event>
 4   0  0.6886900E-01  0.9118800E+02  0.7818609E-02  0.1379984E+01
      -11   -1    0    0    0    0  0.00000000000E+00  0.00000000000E+00  0.35740347158E-01  0.35744000000E-01  0.51099999109E-03 0.  1.
       11   -1    0    0    0    0 -0.00000000000E+00 -0.00000000000E+00 -0.35740347158E-01  0.35744000000E-01  0.51099999109E-03 0. -1.
       22    1    1    2    0    0 -0.81359136920E-02 -0.12195035371E-01 -0.10884051311E-01  0.18258547375E-01  0.00000000000E+00 0. -1.
  9000001    1    1    2    0    0  0.81359136920E-02  0.12195035371E-01  0.10884051311E-01  0.53229452625E-01  0.50000000745E-01 0.  0.
</event>
<event>
 4   0  0.6886900E-01  0.9118800E+02  0.7818609E-02  0.1379984E+01
      -11   -1    0    0    0    0  0.00000000000E+00  0.00000000000E+00  0.35740347158E-01  0.35744000000E-01  0.51099999109E-03 0. -1.
       11   -1    0    0    0    0 -0.00000000000E+00 -0.00000000000E+00 -0.35740347158E-01  0.35744000000E-01  0.51099999109E-03 0.  1.
       22    1    1    2    0    0  0.13617688329E-01 -0.59431090840E-02  0.10611907049E-01  0.18258547375E-01  0.00000000000E+00 0. -1.
  9000001    1    1    2    0    0 -0.13617688329E-01  0.59431090840E-02 -0.10611907049E-01  0.53229452625E-01  0.50000000745E-01 0.  0.
</event>
<event>
 4   0  0.6886900E-01  0.9118800E+02  0.7818609E-02  0.1379984E+01
      -11   -1    0    0    0    0  0.00000000000E+00  0.00000000000E+00  0.35740347158E-01  0.35744000000E-01  0.51099999109E-03 0. -1.
       11   -1    0    0    0    0 -0.00000000000E+00 -0.00000000000E+00 -0.35740347158E-01  0.35744000000E-01  0.51099999109E-03 0.  1.
       22    1    1    2    0    0  0.16257163474E-01  0.81085500230E-02 -0.18249943963E-02  0.18258547375E-01  0.00000000000E+00 0.  1.
  9000001    1    1    2    0    0 -0.16257163474E-01 -0.81085500230E-02  0.18249943963E-02  0.53229452625E-01  0.50000000745E-01 0.  0.
</event>
<event>
 4   0  0.6886900E-01  0.9118800E+02  0.7818609E-02  0.1379984E+01
      -11   -1    0    0    0    0  0.00000000000E+00  0.00000000000E+00  0.35740347158E-01  0.35744000000E-01  0.51099999109E-03 0.  1.
       11   -1    0    0    0    0 -0.00000000000E+00 -0.00000000000E+00 -0.35740347158E-01  0.35744000000E-01  0.51099999109E-03 0. -1.
       22    1    1    2    0    0 -0.33814805944E-02  0.15991523020E-01 -0.81370346411E-02  0.18258547375E-01  0.00000000000E+00 0. -1.
  9000001    1    1    2    0    0  0.33814805944E-02 -0.15991523020E-01  0.81370346411E-02  0.53229452625E-01  0.50000000745E-01 0.  0.
</event>
<event>
 4   0  0.6886900E-01  0.9118800E+02  0.7818609E-02  0.1379984E+01
      -11   -1    0    0    0    0  0.00000000000E+00  0.00000000000E+00  0.35740347158E-01  0.35744000000E-01  0.51099999109E-03 0.  1.
       11   -1    0    0    0    0 -0.00000000000E+00 -0.00000000000E+00 -0.35740347158E-01  0.35744000000E-01  0.51099999109E-03 0. -1.
       22    1    1    2    0    0 -0.63284385258E-02  0.57520948611E-02  0.16131919377E-01  0.18258547375E-01  0.00000000000E+00 0. -1.
  9000001    1    1    2    0    0  0.63284385258E-02 -0.57520948611E-02 -0.16131919377E-01  0.53229452625E-01  0.50000000745E-01 0. -1.
</event>
<event>
 4   0  0.6886900E-01  0.9118800E+02  0.7818609E-02  0.1379984E+01
      -11   -1    0    0    0    0  0.00000000000E+00  0.00000000000E+00  0.35740347158E-01  0.35744000000E-01  0.51099999109E-03 0.  1.
       11   -1    0    0    0    0 -0.00000000000E+00 -0.00000000000E+00 -0.35740347158E-01  0.35744000000E-01  0.51099999109E-03 0. -1.
       22    1    1    2    0    0  0.74397039440E-03 -0.11043445983E-01  0.14521134980E-01  0.18258547375E-01  0.00000000000E+00 0.  1.
  9000001    1    1    2    0    0 -0.74397039440E-03  0.11043445983E-01 -0.14521134980E-01  0.53229452625E-01  0.50000000745E-01 0. -1.
</event>
<event>
 4   0  0.6886900E-01  0.9118800E+02  0.7818609E-02  0.1379984E+01
      -11   -1    0    0    0    0  0.00000000000E+00  0.00000000000E+00  0.35740347158E-01  0.35744000000E-01  0.51099999109E-03 0.  1.
       11   -1    0    0    0    0 -0.00000000000E+00 -0.00000000000E+00 -0.35740347158E-01  0.35744000000E-01  0.51099999109E-03 0. -1.
       22    1    1    2    0    0  0.44765518199E-02  0.67800986423E-02  0.16351308769E-01  0.18258547375E-01  0.00000000000E+00 0.  1.
  9000001    1    1    2    0    0 -0.44765518199E-02 -0.67800986423E-02 -0.16351308769E-01  0.53229452625E-01  0.50000000745E-01 0. -1.
</event>
<event>
 4   0  0.6886900E-01  0.9118800E+02  0.7818609E-02  0.1379984E+01
      -11   -1    0    0    0    0  0.00000000000E+00  0.00000000000E+00  0.35740347158E-01  0.35744000000E-01  0.51099999109E-03 0. -1.
       11   -1    0    0    0    0 -0.00000000000E+00 -0.00000000000E+00 -0.35740347158E-01  0.35744000000E-01  0.51099999109E-03 0.  1.
       22    1    1    2    0    0 -0.11688878221E-01 -0.22839945833E-02 -0.13839365842E-01  0.18258547375E-01  0.00000000000E+00 0.  1.
  9000001    1    1    2    0    0  0.11688878221E-01  0.22839945833E-02  0.13839365842E-01  0.53229452625E-01  0.50000000745E-01 0. -1.
</event>
<event>
 4   0  0.6886900E-01  0.9118800E+02  0.7818609E-02  0.1379984E+01
      -11   -1    0    0    0    0  0.00000000000E+00  0.00000000000E+00  0.35740347158E-01  0.35744000000E-01  0.51099999109E-03 0.  1.
       11   -1    0    0    0    0 -0.00000000000E+00 -0.00000000000E+00 -0.35740347158E-01  0.35744000000E-01  0.51099999109E-03 0. -1.
       22    1    1    2    0    0  0.11020705856E-01  0.49774906586E-02 -0.13680028561E-01  0.18258547375E-01  0.00000000000E+00 0.  1.
  9000001    1    1    2    0    0 -0.11020705856E-01 -0.49774906586E-02  0.13680028561E-01  0.53229452625E-01  0.50000000745E-01 0.  1.
</event>
<event>
 4   0  0.6886900E-01  0.9118800E+02  0.7818609E-02  0.1379984E+01
      -11   -1    0    0    0    0  0.00000000000E+00  0.00000000000E+00  0.35740347158E-01  0.35744000000E-01  0.51099999109E-03 0. -1.
       11   -1    0    0    0    0 -0.00000000000E+00 -0.00000000000E+00 -0.35740347158E-01  0.35744000000E-01  0.51099999109E-03 0.  1.
       22    1    1    2    0    0  0.43725134841E-02  0.60169440264E-04  0.17727155940E-01  0.18258547375E-01  0.00000000000E+00 0. -1.
  9000001    1    1    2    0    0 -0.43725134841E-02 -0.60169440264E-04 -0.17727155940E-01  0.53229452625E-01  0.50000000745E-01 0.  1.
</event>
<event>
 4   0  0.6886900E-01  0.9118800E+02  0.7818609E-02  0.1379984E+01
      -11   -1    0    0    0    0  0.00000000000E+00  0.00000000000E+00  0.35740347158E-01  0.35744000000E-01  0.51099999109E-03 0.  1.
       11   -1    0    0    0    0 -0.00000000000E+00 -0.00000000000E+00 -0.35740347158E-01  0.35744000000E-01  0.51099999109E-03 0. -1.
       22    1    1    2    0    0 -0.61764638555E-02 -0.43042983642E-03 -0.17176745228E-01  0.18258547375E-01  0.00000000000E+00 0.  1.
  9000001    1    1    2    0    0  0.61764638555E-02  0.43042983642E-03  0.17176745228E-01  0.53229452625E-01  0.50000000745E-01 0.  1.
</event>
<event>
 4   0  0.6886900E-01  0.9118800E+02  0.7818609E-02  0.1379984E+01
      -11   -1    0    0    0    0  0.00000000000E+00  0.00000000000E+00  0.35740347158E-01  0.35744000000E-01  0.51099999109E-03 0. -1.
       11   -1    0    0    0    0 -0.00000000000E+00 -0.00000000000E+00 -0.35740347158E-01  0.35744000000E-01  0.51099999109E-03 0.  1.
       22    1    1    2    0    0 -0.84305174089E-02  0.38454235331E-02 -0.15732566425E-01  0.18258547375E-01  0.00000000000E+00 0.  1.
  9000001    1    1    2    0    0  0.84305174089E-02 -0.38454235331E-02  0.15732566425E-01  0.53229452625E-01  0.50000000745E-01 0. -1.
</event>
<event>
 4   0  0.6886900E-01  0.9118800E+02  0.7818609E-02  0.1379984E+01
      -11   -1    0    0    0    0  0.00000000000E+00  0.00000000000E+00  0.35740347158E-01  0.35744000000E-01  0.51099999109E-03 0.  1.
       11   -1    0    0    0    0 -0.00000000000E+00 -0.00000000000E+00 -0.35740347158E-01  0.35744000000E-01  0.51099999109E-03 0. -1.
       22    1    1    2    0    0 -0.10513499494E-02  0.45673797822E-02 -0.17646763371E-01  0.18258547375E-01  0.00000000000E+00 0. -1.
  9000001    1    1    2    0    0  0.10513499494E-02 -0.45673797822E-02  0.17646763371E-01  0.53229452625E-01  0.50000000745E-01 0.  1.
</event>
<event>
 4   0  0.6886900E-01  0.9118800E+02  0.7818609E-02  0.1379984E+01
      -11   -1    0    0    0    0  0.00000000000E+00  0.00000000000E+00  0.35740347158E-01  0.35744000000E-01  0.51099999109E-03 0. -1.
       11   -1    0    0    0    0 -0.00000000000E+00 -0.00000000000E+00 -0.35740347158E-01  0.35744000000E-01  0.51099999109E-03 0.  1.
       22    1    1    2    0    0 -0.40955796132E-02 -0.13065015088E-03 -0.17792799398E-01  0.18258547375E-01  0.00000000000E+00 0.  1.
  9000001    1    1    2    0    0  0.40955796132E-02  0.13065015088E-03  0.17792799398E-01  0.53229452625E-01  0.50000000745E-01 0. -1.
</event>
<event>
 4   0  0.6886900E-01  0.9118800E+02  0.7818609E-02  0.1379984E+01
      -11   -1    0    0    0    0  0.00000000000E+00  0.00000000000E+00  0.35740347158E-01  0.35744000000E-01  0.51099999109E-03 0.  1.
       11   -1    0    0    0    0 -0.00000000000E+00 -0.00000000000E+00 -0.35740347158E-01  0.35744000000E-01  0.51099999109E-03 0. -1.
       22    1    1    2    0    0  0.10827790113E-01 -0.13777328588E-01  0.51301784086E-02  0.18258547375E-01  0.00000000000E+00 0. -1.
  9000001    1    1    2    0    0 -0.10827790113E-01  0.13777328588E-01 -0.51301784086E-02  0.53229452625E-01  0.50000000745E-01 0.  1.
</event>
<event>
 4   0  0.6886900E-01  0.9118800E+02  0.7818609E-02  0.1379984E+01
      -11   -1    0    0    0    0  0.00000000000E+00  0.00000000000E+00  0.35740347158E-01  0.35744000000E-01  0.51099999109E-03 0.  1.
       11   -1    0    0    0    0 -0.00000000000E+00 -0.00000000000E+00 -0.35740347158E-01  0.35744000000E-01  0.51099999109E-03 0. -1.
       22    1    1    2    0    0 -0.11873806523E-01 -0.24773432786E-02  0.13647345573E-01  0.18258547375E-01  0.00000000000E+00 0. -1.
  9000001    1    1    2    0    0  0.11873806523E-01  0.24773432786E-02 -0.13647345573E-01  0.53229452625E-01  0.50000000745E-01 0. -1.
</event>
<event>
 4   0  0.6886900E-01  0.9118800E+02  0.7818609E-02  0.1379984E+01
      -11   -1    0    0    0    0  0.00000000000E+00  0.00000000000E+00  0.35740347158E-01  0.35744000000E-01  0.51099999109E-03 0. -1.
       11   -1    0    0    0    0 -0.00000000000E+00 -0.00000000000E+00 -0.35740347158E-01  0.35744000000E-01  0.51099999109E-03 0.  1.
       22    1    1    2    0    0  0.27114977534E-02  0.23768105546E-02 -0.17898969349E-01  0.18258547375E-01  0.00000000000E+00 0. -1.
  9000001    1    1    2    0    0 -0.27114977534E-02 -0.23768105546E-02  0.17898969349E-01  0.53229452625E-01  0.50000000745E-01 0. -1.
</event>
<event>
 4   0  0.6886900E-01  0.9118800E+02  0.7818609E-02  0.1379984E+01
      -11   -1    0    0    0    0  0.00000000000E+00  0.00000000000E+00  0.35740347158E-01  0.35744000000E-01  0.51099999109E-03 0. -1.
       11   -1    0    0    0    0 -0.00000000000E+00 -0.00000000000E+00 -0.35740347158E-01  0.35744000000E-01  0.51099999109E-03 0.  1.
       22    1    1    2    0    0  0.10219835790E-01 -0.20002547816E-02  0.14997616127E-01  0.18258547375E-01  0.00000000000E+00 0. -1.
  9000001    1    1    2    0    0 -0.10219835790E-01  0.20002547816E-02 -0.14997616127E-01  0.53229452625E-01  0.50000000745E-01 0.  1.
</event>
<event>
 4   0  0.6886900E-01  0.9118800E+02  0.7818609E-02  0.1379984E+01
      -11   -1    0    0    0    0  0.00000000000E+00  0.00000000000E+00  0.35740347158E-01  0.35744000000E-01  0.51099999109E-03 0. -1.
       11   -1    0    0    0    0 -0.00000000000E+00 -0.00000000000E+00 -0.35740347158E-01  0.35744000000E-01  0.51099999109E-03 0.  1.
       22    1    1    2    0    0 -0.21824398713E-03  0.51602922097E-02  0.17512804062E-01  0.18258547375E-01  0.00000000000E+00 0.  1.
  9000001    1    1    2    0    0  0.21824398713E-03 -0.51602922097E-02 -0.17512804062E-01  0.53229452625E-01  0.50000000745E-01 0.  1.
</event>
<event>
 4   0  0.6886900E-01  0.9118800E+02  0.7818609E-02  0.1379984E+01
      -11   -1    0    0    0    0  0.00000000000E+00  0.00000000000E+00  0.35740347158E-01  0.35744000000E-01  0.51099999109E-03 0.  1.
       11   -1    0    0    0    0 -0.00000000000E+00 -0.00000000000E+00 -0.35740347158E-01  0.35744000000E-01  0.51099999109E-03 0. -1.
       22    1    1    2    0    0  0.75320869451E-03 -0.66195262181E-02 -0.16999679455E-01  0.18258547375E-01  0.00000000000E+00 0. -1.
  9000001    1    1    2    0    0 -0.75320869451E-03  0.66195262181E-02  0.16999679455E-01  0.53229452625E-01  0.50000000745E-01 0.  1.
</event>
<event>
 4   0  0.6886900E-01  0.9118800E+02  0.7818609E-02  0.1379984E+01
      -11   -1    0    0    0    0  0.00000000000E+00  0.00000000000E+00  0.35740347158E-01  0.35744000000E-01  0.51099999109E-03 0. -1.
       11   -1    0    0    0    0 -0.00000000000E+00 -0.00000000000E+00 -0.35740347158E-01  0.35744000000E-01  0.51099999109E-03 0.  1.
       22    1    1    2    0    0  0.24147023801E-02 -0.16808588820E-01  0.67093298124E-02  0.18258547375E-01  0.00000000000E+00 0. -1.
  9000001    1    1    2    0    0 -0.24147023801E-02  0.16808588820E-01 -0.67093298124E-02  0.53229452625E-01  0.50000000745E-01 0.  1.
</event>
<event>
 4   0  0.6886900E-01  0.9118800E+02  0.7818609E-02  0.1379984E+01
      -11   -1    0    0    0    0  0.00000000000E+00  0.00000000000E+00  0.35740347158E-01  0.35744000000E-01  0.51099999109E-03 0.  1.
       11   -1    0    0    0    0 -0.00000000000E+00 -0.00000000000E+00 -0.35740347158E-01  0.35744000000E-01  0.51099999109E-03 0. -1.
       22    1    1    2    0    0 -0.42230996866E-02  0.15423316541E-02  0.17696361048E-01  0.18258547375E-01  0.00000000000E+00 0. -1.
  9000001    1    1    2    0    0  0.42230996866E-02 -0.15423316541E-02 -0.17696361048E-01  0.53229452625E-01  0.50000000745E-01 0.  0.
</event>
<event>
 4   0  0.6886900E-01  0.9118800E+02  0.7818609E-02  0.1379984E+01
      -11   -1    0    0    0    0  0.00000000000E+00  0.00000000000E+00  0.35740347158E-01  0.35744000000E-01  0.51099999109E-03 0.  1.
       11   -1    0    0    0    0 -0.00000000000E+00 -0.00000000000E+00 -0.35740347158E-01  0.35744000000E-01  0.51099999109E-03 0. -1.
       22    1    1    2    0    0 -0.37570528870E-02  0.28855977178E-02  0.17633276260E-01  0.18258547375E-01  0.00000000000E+00 0.  1.
  9000001    1    1    2    0    0  0.37570528870E-02 -0.28855977178E-02 -0.17633276260E-01  0.53229452625E-01  0.50000000745E-01 0. -1.
</event>
<event>
 4   0  0.6886900E-01  0.9118800E+02  0.7818609E-02  0.1379984E+01
      -11   -1    0    0    0    0  0.00000000000E+00  0.00000000000E+00  0.35740347158E-01  0.35744000000E-01  0.51099999109E-03 0. -1.
       11   -1    0    0    0    0 -0.00000000000E+00 -0.00000000000E+00 -0.35740347158E-01  0.35744000000E-01  0.51099999109E-03 0.  1.
       22    1    1    2    0    0 -0.14521526033E-01  0.47914556496E-02  0.99770630292E-02  0.18258547375E-01  0.00000000000E+00 0. -1.
  9000001    1    1    2    0    0  0.14521526033E-01 -0.47914556496E-02 -0.99770630292E-02  0.53229452625E-01  0.50000000745E-01 0.  0.
</event>
<event>
 4   0  0.6886900E-01  0.9118800E+02  0.7818609E-02  0.1379984E+01
      -11   -1    0    0    0    0  0.00000000000E+00  0.00000000000E+00  0.35740347158E-01  0.35744000000E-01  0.51099999109E-03 0. -1.
       11   -1    0    0    0    0 -0.00000000000E+00 -0.00000000000E+00 -0.35740347158E-01  0.35744000000E-01  0.51099999109E-03 0.  1.
       22    1    1    2    0    0  0.52353965136E-02 -0.53899145134E-02 -0.16640733071E-01  0.18258547375E-01  0.00000000000E+00 0. -1.
  9000001    1    1    2    0    0 -0.52353965136E-02  0.53899145134E-02  0.16640733071E-01  0.53229452625E-01  0.50000000745E-01 0.  0.
</event>
<event>
 4   0  0.6886900E-01  0.9118800E+02  0.7818609E-02  0.1379984E+01
      -11   -1    0    0    0    0  0.00000000000E+00  0.00000000000E+00  0.35740347158E-01  0.35744000000E-01  0.51099999109E-03 0.  1.
       11   -1    0    0    0    0 -0.00000000000E+00 -0.00000000000E+00 -0.35740347158E-01  0.35744000000E-01  0.51099999109E-03 0. -1.
       22    1    1    2    0    0 -0.13520600703E-01  0.11475668959E-01  0.43447590068E-02  0.18258547375E-01  0.00000000000E+00 0.  1.
  9000001    1    1    2    0    0  0.13520600703E-01 -0.11475668959E-01 -0.43447590068E-02  0.53229452625E-01  0.50000000745E-01 0. -1.
</event>
<event>
 4   0  0.6886900E-01  0.9118800E+02  0.7818609E-02  0.1379984E+01
      -11   -1    0    0    0    0  0.00000000000E+00  0.00000000000E+00  0.35740347158E-01  0.35744000000E-01  0.51099999109E-03 0.  1.
       11   -1    0    0    0    0 -0.00000000000E+00 -0.00000000000E+00 -0.35740347158E-01  0.35744000000E-01  0.51099999109E-03 0. -1.
       22    1    1    2    0    0  0.99469025160E-02  0.20108008089E-02 -0.15178615309E-01  0.18258547375E-01  0.00000000000E+00 0.  1.
  9000001    1    1    2    0    0 -0.99469025160E-02 -0.20108008089E-02  0.15178615309E-01  0.53229452625E-01  0.50000000745E-01 0.  1.
</event>
<event>
 4   0  0.6886900E-01  0.9118800E+02  0.7818609E-02  0.1379984E+01
      -11   -1    0    0    0    0  0.00000000000E+00  0.00000000000E+00  0.35740347158E-01  0.35744000000E-01  0.51099999109E-03 0. -1.
       11   -1    0    0    0    0 -0.00000000000E+00 -0.00000000000E+00 -0.35740347158E-01  0.35744000000E-01  0.51099999109E-03 0.  1.
       22    1    1    2    0    0 -0.36052577818E-02 -0.88978905057E-03  0.17876938888E-01  0.18258547375E-01  0.00000000000E+00 0.  1.
  9000001    1    1    2    0    0  0.36052577818E-02  0.88978905057E-03 -0.17876938888E-01  0.53229452625E-01  0.50000000745E-01 0.  1.
</event>
<event>
 4   0  0.6886900E-01  0.9118800E+02  0.7818609E-02  0.1379984E+01
      -11   -1    0    0    0    0  0.00000000000E+00  0.00000000000E+00  0.35740347158E-01  0.35744000000E-01  0.51099999109E-03 0. -1.
       11   -1    0    0    0    0 -0.00000000000E+00 -0.00000000000E+00 -0.35740347158E-01  0.35744000000E-01  0.51099999109E-03 0.  1.
       22    1    1    2    0    0  0.10741909743E-01  0.14471525635E-01 -0.29258969769E-02  0.18258547375E-01  0.00000000000E+00 0.  1.
  9000001    1    1    2    0    0 -0.10741909743E-01 -0.14471525635E-01  0.29258969769E-02  0.53229452625E-01  0.50000000745E-01 0. -1.
</event>
<event>
 4   0  0.6886900E-01  0.9118800E+02  0.7818609E-02  0.1379984E+01
      -11   -1    0    0    0    0  0.00000000000E+00  0.00000000000E+00  0.35740347158E-01  0.35744000000E-01  0.51099999109E-03 0.  1.
       11   -1    0    0    0    0 -0.00000000000E+00 -0.00000000000E+00 -0.35740347158E-01  0.35744000000E-01  0.51099999109E-03 0. -1.
       22    1    1    2    0    0  0.48438633517E-02  0.29698125006E-02 -0.17351995672E-01  0.18258547375E-01  0.00000000000E+00 0.  1.
  9000001    1    1    2    0    0 -0.48438633517E-02 -0.29698125006E-02  0.17351995672E-01  0.53229452625E-01  0.50000000745E-01 0.  0.
</event>
<event>
 4   0  0.6886900E-01  0.9118800E+02  0.7818609E-02  0.1379984E+01
      -11   -1    0    0    0    0  0.00000000000E+00  0.00000000000E+00  0.35740347158E-01  0.35744000000E-01  0.51099999109E-03 0. -1.
       11   -1    0    0    0    0 -0.00000000000E+00 -0.00000000000E+00 -0.35740347158E-01  0.35744000000E-01  0.51099999109E-03 0.  1.
       22    1    1    2    0    0  0.24371641975E-02  0.29353983802E-02 -0.17855481491E-01  0.18258547375E-01  0.00000000000E+00 0.  1.
  9000001    1    1    2    0    0 -0.24371641975E-02 -0.29353983802E-02  0.17855481491E-01  0.53229452625E-01  0.50000000745E-01 0. -1.
</event>
<event>
 4   0  0.6886900E-01  0.9118800E+02  0.7818609E-02  0.1379984E+01
      -11   -1    0    0    0    0  0.00000000000E+00  0.00000000000E+00  0.35740347158E-01  0.35744000000E-01  0.51099999109E-03 0.  1.
       11   -1    0    0    0    0 -0.00000000000E+00 -0.00000000000E+00 -0.35740347158E-01  0.35744000000E-01  0.51099999109E-03 0. -1.
       22    1    1    2    0    0  0.66758080260E-02 -0.75922024920E-03  0.16977388611E-01  0.18258547375E-01  0.00000000000E+00 0.  1.
  9000001    1    1    2    0    0 -0.66758080260E-02  0.75922024920E-03 -0.16977388611E-01  0.53229452625E-01  0.50000000745E-01 0. -1.
</event>
<event>
 4   0  0.6886900E-01  0.9118800E+02  0.7818609E-02  0.1379984E+01
      -11   -1    0    0    0    0  0.00000000000E+00  0.00000000000E+00  0.35740347158E-01  0.35744000000E-01  0.51099999109E-03 0.  1.
       11   -1    0    0    0    0 -0.00000000000E+00 -0.00000000000E+00 -0.35740347158E-01  0.35744000000E-01  0.51099999109E-03 0. -1.
       22    1    1    2    0    0  0.62597430717E-03 -0.18247531632E-01 -0.10147777820E-03  0.18258547375E-01  0.00000000000E+00 0.  1.
  9000001    1    1    2    0    0 -0.62597430717E-03  0.18247531632E-01  0.10147777820E-03  0.53229452625E-01  0.50000000745E-01 0. -1.
</event>
<event>
 4   0  0.6886900E-01  0.9118800E+02  0.7818609E-02  0.1379984E+01
      -11   -1    0    0    0    0  0.00000000000E+00  0.00000000000E+00  0.35740347158E-01  0.35744000000E-01  0.51099999109E-03 0. -1.
       11   -1    0    0    0    0 -0.00000000000E+00 -0.00000000000E+00 -0.35740347158E-01  0.35744000000E-01  0.51099999109E-03 0.  1.
       22    1    1    2    0    0 -0.11313155133E-01 -0.66243208035E-02 -0.12708479338E-01  0.18258547375E-01  0.00000000000E+00 0. -1.
  9000001    1    1    2    0    0  0.11313155133E-01  0.66243208035E-02  0.12708479338E-01  0.53229452625E-01  0.50000000745E-01 0. -1.
</event>
<event>
 4   0  0.6886900E-01  0.9118800E+02  0.7818609E-02  0.1379984E+01
      -11   -1    0    0    0    0  0.00000000000E+00  0.00000000000E+00  0.35740347158E-01  0.35744000000E-01  0.51099999109E-03 0.  1.
       11   -1    0    0    0    0 -0.00000000000E+00 -0.00000000000E+00 -0.35740347158E-01  0.35744000000E-01  0.51099999109E-03 0. -1.
       22    1    1    2    0    0 -0.38915232807E-03  0.32007868413E-02  0.17971590812E-01  0.18258547375E-01  0.00000000000E+00 0.  1.
  9000001    1    1    2    0    0  0.38915232807E-03 -0.32007868413E-02 -0.17971590812E-01  0.53229452625E-01  0.50000000745E-01 0. -1.
</event>
<event>
 4   0  0.6886900E-01  0.9118800E+02  0.7818609E-02  0.1379984E+01
      -11   -1    0    0    0    0  0.00000000000E+00  0.00000000000E+00  0.35740347158E-01  0.35744000000E-01  0.51099999109E-03 0.  1.
       11   -1    0    0    0    0 -0.00000000000E+00 -0.00000000000E+00 -0.35740347158E-01  0.35744000000E-01  0.51099999109E-03 0. -1.
       22    1    1    2    0    0  0.22976067645E-03 -0.30067592484E-02  0.18007808337E-01  0.18258547375E-01  0.00000000000E+00 0.  1.
  9000001    1    1    2    0    0 -0.22976067645E-03  0.30067592484E-02 -0.18007808337E-01  0.53229452625E-01  0.50000000745E-01 0. -1.
</event>
<event>
 4   0  0.6886900E-01  0.9118800E+02  0.7818609E-02  0.1379984E+01
      -11   -1    0    0    0    0  0.00000000000E+00  0.00000000000E+00  0.35740347158E-01  0.35744000000E-01  0.51099999109E-03 0.  1.
       11   -1    0    0    0    0 -0.00000000000E+00 -0.00000000000E+00 -0.35740347158E-01  0.35744000000E-01  0.51099999109E-03 0. -1.
       22    1    1    2    0    0  0.33032666613E-02  0.64182119940E-02 -0.16771092284E-01  0.18258547375E-01  0.00000000000E+00 0. -1.
  9000001    1    1    2    0    0 -0.33032666613E-02 -0.64182119940E-02  0.16771092284E-01  0.53229452625E-01  0.50000000745E-01 0.  1.
</event>
<event>
 4   0  0.6886900E-01  0.9118800E+02  0.7818609E-02  0.1379984E+01
      -11   -1    0    0    0    0  0.00000000000E+00  0.00000000000E+00  0.35740347158E-01  0.35744000000E-01  0.51099999109E-03 0.  1.
       11   -1    0    0    0    0 -0.00000000000E+00 -0.00000000000E+00 -0.35740347158E-01  0.35744000000E-01  0.51099999109E-03 0. -1.
       22    1    1    2    0    0 -0.11696553668E-02 -0.16697148813E-01  0.72946336488E-02  0.18258547375E-01  0.00000000000E+00 0.  1.
  9000001    1    1    2    0    0  0.11696553668E-02  0.16697148813E-01 -0.72946336488E-02  0.53229452625E-01  0.50000000745E-01 0. -1.
</event>
<event>
 4   0  0.6886900E-01  0.9118800E+02  0.7818609E-02  0.1379984E+01
      -11   -1    0    0    0    0  0.00000000000E+00  0.00000000000E+00  0.35740347158E-01  0.35744000000E-01  0.51099999109E-03 0.  1.
       11   -1    0    0    0    0 -0.00000000000E+00 -0.00000000000E+00 -0.35740347158E-01  0.35744000000E-01  0.51099999109E-03 0. -1.
       22    1    1    2    0    0  0.55333350626E-02 -0.98036628976E-02 -0.14375150403E-01  0.18258547375E-01  0.00000000000E+00 0. -1.
  9000001    1    1    2    0    0 -0.55333350626E-02  0.98036628976E-02  0.14375150403E-01  0.53229452625E-01  0.50000000745E-01 0.  0.
</event>
<event>
 4   0  0.6886900E-01  0.9118800E+02  0.7818609E-02  0.1379984E+01
      -11   -1    0    0    0    0  0.00000000000E+00  0.00000000000E+00  0.35740347158E-01  0.35744000000E-01  0.51099999109E-03 0.  1.
       11   -1    0    0    0    0 -0.00000000000E+00 -0.00000000000E+00 -0.35740347158E-01  0.35744000000E-01  0.51099999109E-03 0. -1.
       22    1    1    2    0    0 -0.10275328662E-01  0.10742373655E-01  0.10601583909E-01  0.18258547375E-01  0.00000000000E+00 0.  1.
  9000001    1    1    2    0    0  0.10275328662E-01 -0.10742373655E-01 -0.10601583909E-01  0.53229452625E-01  0.50000000745E-01 0. -1.
</event>
<event>
 4   0  0.6886900E-01  0.9118800E+02  0.7818609E-02  0.1379984E+01
      -11   -1    0    0    0    0  0.00000000000E+00  0.00000000000E+00  0.35740347158E-01  0.35744000000E-01  0.51099999109E-03 0.  1.
       11   -1    0    0    0    0 -0.00000000000E+00 -0.00000000000E+00 -0.35740347158E-01  0.35744000000E-01  0.51099999109E-03 0. -1.
       22    1    1    2    0    0  0.39208041276E-02  0.28314337379E-02  0.17606386064E-01  0.18258547375E-01  0.00000000000E+00 0. -1.
  9000001    1    1    2    0    0 -0.39208041276E-02 -0.28314337379E-02 -0.17606386064E-01  0.53229452625E-01  0.50000000745E-01 0. -1.
</event>
<event>
 4   0  0.6886900E-01  0.9118800E+02  0.7818609E-02  0.1379984E+01
      -11   -1    0    0    0    0  0.00000000000E+00  0.00000000000E+00  0.35740347158E-01  0.35744000000E-01  0.51099999109E-03 0. -1.
       11   -1    0    0    0    0 -0.00000000000E+00 -0.00000000000E+00 -0.35740347158E-01  0.35744000000E-01  0.51099999109E-03 0.  1.
       22    1    1    2    0    0 -0.40737840510E-02  0.35467188920E-02  0.17441319355E-01  0.18258547375E-01  0.00000000000E+00 0. -1.
  9000001    1    1    2    0    0  0.40737840510E-02 -0.35467188920E-02 -0.17441319355E-01  0.53229452625E-01  0.50000000745E-01 0.  1.
</event>
<event>
 4   0  0.6886900E-01  0.9118800E+02  0.7818609E-02  0.1379984E+01
      -11   -1    0    0    0    0  0.00000000000E+00  0.00000000000E+00  0.35740347158E-01  0.35744000000E-01  0.51099999109E-03 0.  1.
       11   -1    0    0    0    0 -0.00000000000E+00 -0.00000000000E+00 -0.35740347158E-01  0.35744000000E-01  0.51099999109E-03 0. -1.
       22    1    1    2    0    0  0.66575577185E-02 -0.16015087484E-01  0.57068774613E-02  0.18258547375E-01  0.00000000000E+00 0. -1.
  9000001    1    1    2    0    0 -0.66575577185E-02  0.16015087484E-01 -0.57068774613E-02  0.53229452625E-01  0.50000000745E-01 0.  0.
</event>
<event>
 4   0  0.6886900E-01  0.9118800E+02  0.7818609E-02  0.1379984E+01
      -11   -1    0    0    0    0  0.00000000000E+00  0.00000000000E+00  0.35740347158E-01  0.35744000000E-01  0.51099999109E-03 0. -1.
       11   -1    0    0    0    0 -0.00000000000E+00 -0.00000000000E+00 -0.35740347158E-01  0.35744000000E-01  0.51099999109E-03 0.  1.
       22    1    1    2    0    0 -0.36377762466E-02  0.14333645258E-01 -0.10709236661E-01  0.18258547375E-01  0.00000000000E+00 0.  1.
  9000001    1    1    2    0    0  0.36377762466E-02 -0.14333645258E-01  0.10709236661E-01  0.53229452625E-01  0.50000000745E-01 0. -1.
</event>
<event>
 4   0  0.6886900E-01  0.9118800E+02  0.7818609E-02  0.1379984E+01
      -11   -1    0    0    0    0  0.00000000000E+00  0.00000000000E+00  0.35740347158E-01  0.35744000000E-01  0.51099999109E-03 0. -1.
       11   -1    0    0    0    0 -0.00000000000E+00 -0.00000000000E+00 -0.35740347158E-01  0.35744000000E-01  0.51099999109E-03 0.  1.
       22    1    1    2    0    0 -0.90297646114E-02 -0.55187836653E-02  0.14878875299E-01  0.18258547375E-01  0.00000000000E+00 0. -1.
  9000001    1    1    2    0    0  0.90297646114E-02  0.55187836653E-02 -0.14878875299E-01  0.53229452625E-01  0.50000000745E-01 0.  1.
</event>
<event>
 4   0  0.6886900E-01  0.9118800E+02  0.7818609E-02  0.1379984E+01
      -11   -1    0    0    0    0  0.00000000000E+00  0.00000000000E+00  0.35740347158E-01  0.35744000000E-01  0.51099999109E-03 0.  1.
       11   -1    0    0    0    0 -0.00000000000E+00 -0.00000000000E+00 -0.35740347158E-01  0.35744000000E-01  0.51099999109E-03 0. -1.
       22    1    1    2    0    0  0.32878232584E-02  0.52995613822E-02  0.17160402665E-01  0.18258547375E-01  0.00000000000E+00 0.  1.
  9000001    1    1    2    0    0 -0.32878232584E-02 -0.52995613822E-02 -0.17160402665E-01  0.53229452625E-01  0.50000000745E-01 0. -1.
</event>
<event>
 4   0  0.6886900E-01  0.9118800E+02  0.7818609E-02  0.1379984E+01
      -11   -1    0    0    0    0  0.00000000000E+00  0.00000000000E+00  0.35740347158E-01  0.35744000000E-01  0.51099999109E-03 0.  1.
       11   -1    0    0    0    0 -0.00000000000E+00 -0.00000000000E+00 -0.35740347158E-01  0.35744000000E-01  0.51099999109E-03 0. -1.
       22    1    1    2    0    0 -0.10493790102E-01 -0.10824533549E-01  0.10299727908E-01  0.18258547375E-01  0.00000000000E+00 0.  1.
  9000001    1    1    2    0    0  0.10493790102E-01  0.10824533549E-01 -0.10299727908E-01  0.53229452625E-01  0.50000000745E-01 0. -1.
</event>
<event>
 4   0  0.6886900E-01  0.9118800E+02  0.7818609E-02  0.1379984E+01
      -11   -1    0    0    0    0  0.00000000000E+00  0.00000000000E+00  0.35740347158E-01  0.35744000000E-01  0.51099999109E-03 0.  1.
       11   -1    0    0    0    0 -0.00000000000E+00 -0.00000000000E+00 -0.35740347158E-01  0.35744000000E-01  0.51099999109E-03 0. -1.
       22    1    1    2    0    0  0.10195487433E-01 -0.10982367653E-01  0.10431403979E-01  0.18258547375E-01  0.00000000000E+00 0.  1.
  9000001    1    1    2    0    0 -0.10195487433E-01  0.10982367653E-01 -0.10431403979E-01  0.53229452625E-01  0.50000000745E-01 0. -1.
</event>
<event>
 4   0  0.6886900E-01  0.9118800E+02  0.7818609E-02  0.1379984E+01
      -11   -1    0    0    0    0  0.00000000000E+00  0.00000000000E+00  0.35740347158E-01  0.35744000000E-01  0.51099999109E-03 0. -1.
       11   -1    0    0    0    0 -0.00000000000E+00 -0.00000000000E+00 -0.35740347158E-01  0.35744000000E-01  0.51099999109E-03 0.  1.
       22    1    1    2    0    0  0.61768727256E-05 -0.34754809219E-02 -0.17924718867E-01  0.18258547375E-01  0.00000000000E+00 0.  1.
  9000001    1    1    2    0    0 -0.61768727256E-05  0.34754809219E-02  0.17924718867E-01  0.53229452625E-01  0.50000000745E-01 0. -1.
</event>
<event>
 4   0  0.6886900E-01  0.9118800E+02  0.7818609E-02  0.1379984E+01
      -11   -1    0    0    0    0  0.00000000000E+00  0.00000000000E+00  0.35740347158E-01  0.35744000000E-01  0.51099999109E-03 0.  1.
       11   -1    0    0    0    0 -0.00000000000E+00 -0.00000000000E+00 -0.35740347158E-01  0.35744000000E-01  0.51099999109E-03 0. -1.
       22    1    1    2    0    0  0.70199093872E-02 -0.72352829490E-02  0.15223209421E-01  0.18258547375E-01  0.00000000000E+00 0.  1.
  9000001    1    1    2    0    0 -0.70199093872E-02  0.72352829490E-02 -0.15223209421E-01  0.53229452625E-01  0.50000000745E-01 0. -1.
</event>
<event>
 4   0  0.6886900E-01  0.9118800E+02  0.7818609E-02  0.1379984E+01
      -11   -1    0    0    0    0  0.00000000000E+00  0.00000000000E+00  0.35740347158E-01  0.35744000000E-01  0.51099999109E-03 0. -1.
       11   -1    0    0    0    0 -0.00000000000E+00 -0.00000000000E+00 -0.35740347158E-01  0.35744000000E-01  0.51099999109E-03 0.  1.
       22    1    1    2    0    0  0.42214698467E-02 -0.48518900692E-02  0.17088385159E-01  0.18258547375E-01  0.00000000000E+00 0. -1.
  9000001    1    1    2    0    0 -0.42214698467E-02  0.48518900692E-02 -0.17088385159E-01  0.53229452625E-01  0.50000000745E-01 0.  1.
</event>
<event>
 4   0  0.6886900E-01  0.9118800E+02  0.7818609E-02  0.1379984E+01
      -11   -1    0    0    0    0  0.00000000000E+00  0.00000000000E+00  0.35740347158E-01  0.35744000000E-01  0.51099999109E-03 0. -1.
       11   -1    0    0    0    0 -0.00000000000E+00 -0.00000000000E+00 -0.35740347158E-01  0.35744000000E-01  0.51099999109E-03 0.  1.
       22    1    1    2    0    0 -0.21747982700E-02  0.12770626251E-01  0.12866853146E-01  0.18258547375E-01  0.00000000000E+00 0. -1.
  9000001    1    1    2    0    0  0.21747982700E-02 -0.12770626251E-01 -0.12866853146E-01  0.53229452625E-01  0.50000000745E-01 0.  1.
</event>
<event>
 4   0  0.6886900E-01  0.9118800E+02  0.7818609E-02  0.1379984E+01
      -11   -1    0    0    0    0  0.00000000000E+00  0.00000000000E+00  0.35740347158E-01  0.35744000000E-01  0.51099999109E-03 0.  1.
       11   -1    0    0    0    0 -0.00000000000E+00 -0.00000000000E+00 -0.35740347158E-01  0.35744000000E-01  0.51099999109E-03 0. -1.
       22    1    1    2    0    0 -0.60568336697E-02  0.66103788258E-03 -0.17211982659E-01  0.18258547375E-01  0.00000000000E+00 0. -1.
  9000001    1    1    2    0    0  0.60568336697E-02 -0.66103788258E-03  0.17211982659E-01  0.53229452625E-01  0.50000000745E-01 0.  1.
</event>
<event>
 4   0  0.6886900E-01  0.9118800E+02  0.7818609E-02  0.1379984E+01
      -11   -1    0    0    0    0  0.00000000000E+00  0.00000000000E+00  0.35740347158E-01  0.35744000000E-01  0.51099999109E-03 0. -1.
       11   -1    0    0    0    0 -0.00000000000E+00 -0.00000000000E+00 -0.35740347158E-01  0.35744000000E-01  0.51099999109E-03 0.  1.
       22    1    1    2    0    0 -0.80145902986E-02  0.10107622640E-01 -0.12921952606E-01  0.18258547375E-01  0.00000000000E+00 0. -1.
  9000001    1    1    2    0    0  0.80145902986E-02 -0.10107622640E-01  0.12921952606E-01  0.53229452625E-01  0.50000000745E-01 0.  0.
</event>
<event>
 4   0  0.6886900E-01  0.9118800E+02  0.7818609E-02  0.1379984E+01
      -11   -1    0    0    0    0  0.00000000000E+00  0.00000000000E+00  0.35740347158E-01  0.35744000000E-01  0.51099999109E-03 0. -1.
       11   -1    0    0    0    0 -0.00000000000E+00 -0.00000000000E+00 -0.35740347158E-01  0.35744000000E-01  0.51099999109E-03 0.  1.
       22    1    1    2    0    0  0.43738803336E-02 -0.41617110043E-02 -0.17231479466E-01  0.18258547375E-01  0.00000000000E+00 0.  1.
  9000001    1    1    2    0    0 -0.43738803336E-02  0.41617110043E-02  0.17231479466E-01  0.53229452625E-01  0.50000000745E-01 0.  0.
</event>
<event>
 4   0  0.6886900E-01  0.9118800E+02  0.7818609E-02  0.1379984E+01
      -11   -1    0    0    0    0  0.00000000000E+00  0.00000000000E+00  0.35740347158E-01  0.35744000000E-01  0.51099999109E-03 0. -1.
       11   -1    0    0    0    0 -0.00000000000E+00 -0.00000000000E+00 -0.35740347158E-01  0.35744000000E-01  0.51099999109E-03 0.  1.
       22    1    1    2    0    0 -0.11861602767E-02  0.31857730363E-02  0.17939298376E-01  0.18258547375E-01  0.00000000000E+00 0. -1.
  9000001    1    1    2    0    0  0.11861602767E-02 -0.31857730363E-02 -0.17939298376E-01  0.53229452625E-01  0.50000000745E-01 0.  1.
</event>
<event>
 4   0  0.6886900E-01  0.9118800E+02  0.7818609E-02  0.1379984E+01
      -11   -1    0    0    0    0  0.00000000000E+00  0.00000000000E+00  0.35740347158E-01  0.35744000000E-01  0.51099999109E-03 0. -1.
       11   -1    0    0    0    0 -0.00000000000E+00 -0.00000000000E+00 -0.35740347158E-01  0.35744000000E-01  0.51099999109E-03 0.  1.
       22    1    1    2    0    0  0.19728838533E-02  0.24120773064E-02  0.17990668821E-01  0.18258547375E-01  0.00000000000E+00 0. -1.
  9000001    1    1    2    0    0 -0.19728838533E-02 -0.24120773064E-02 -0.17990668821E-01  0.53229452625E-01  0.50000000745E-01 0.  1.
</event>
<event>
 4   0  0.6886900E-01  0.9118800E+02  0.7818609E-02  0.1379984E+01
      -11   -1    0    0    0    0  0.00000000000E+00  0.00000000000E+00  0.35740347158E-01  0.35744000000E-01  0.51099999109E-03 0. -1.
       11   -1    0    0    0    0 -0.00000000000E+00 -0.00000000000E+00 -0.35740347158E-01  0.35744000000E-01  0.51099999109E-03 0.  1.
       22    1    1    2    0    0 -0.25442377984E-02 -0.22105368026E-02  0.17944774541E-01  0.18258547375E-01  0.00000000000E+00 0. -1.
  9000001    1    1    2    0    0  0.25442377984E-02  0.22105368026E-02 -0.17944774541E-01  0.53229452625E-01  0.50000000745E-01 0.  1.
</event>
<event>
 4   0  0.6886900E-01  0.9118800E+02  0.7818609E-02  0.1379984E+01
      -11   -1    0    0    0    0  0.00000000000E+00  0.00000000000E+00  0.35740347158E-01  0.35744000000E-01  0.51099999109E-03 0. -1.
       11   -1    0    0    0    0 -0.00000000000E+00 -0.00000000000E+00 -0.35740347158E-01  0.35744000000E-01  0.51099999109E-03 0.  1.
       22    1    1    2    0    0  0.35232189527E-02 -0.86938728580E-02  0.15664547717E-01  0.18258547375E-01  0.00000000000E+00 0. -1.
  9000001    1    1    2    0    0 -0.35232189527E-02  0.86938728580E-02 -0.15664547717E-01  0.53229452625E-01  0.50000000745E-01 0.  1.
</event>
<event>
 4   0  0.6886900E-01  0.9118800E+02  0.7818609E-02  0.1379984E+01
      -11   -1    0    0    0    0  0.00000000000E+00  0.00000000000E+00  0.35740347158E-01  0.35744000000E-01  0.51099999109E-03 0.  1.
       11   -1    0    0    0    0 -0.00000000000E+00 -0.00000000000E+00 -0.35740347158E-01  0.35744000000E-01  0.51099999109E-03 0. -1.
       22    1    1    2    0    0 -0.29883776741E-02 -0.45173578817E-02  0.17436674823E-01  0.18258547375E-01  0.00000000000E+00 0. -1.
  9000001    1    1    2    0    0  0.29883776741E-02  0.45173578817E-02 -0.17436674823E-01  0.53229452625E-01  0.50000000745E-01 0. -1.
</event>
<event>
 4   0  0.6886900E-01  0.9118800E+02  0.7818609E-02  0.1379984E+01
      -11   -1    0    0    0    0  0.00000000000E+00  0.00000000000E+00  0.35740347158E-01  0.35744000000E-01  0.51099999109E-03 0. -1.
       11   -1    0    0    0    0 -0.00000000000E+00 -0.00000000000E+00 -0.35740347158E-01  0.35744000000E-01  0.51099999109E-03 0.  1.
       22    1    1    2    0    0 -0.18697532740E-02  0.71456187922E-02  0.16697865343E-01  0.18258547375E-01  0.00000000000E+00 0. -1.
  9000001    1    1    2    0    0  0.18697532740E-02 -0.71456187922E-02 -0.16697865343E-01  0.53229452625E-01  0.50000000745E-01 0.  1.
</event>
<event>
 4   0  0.6886900E-01  0.9118800E+02  0.7818609E-02  0.1379984E+01
      -11   -1    0    0    0    0  0.00000000000E+00  0.00000000000E+00  0.35740347158E-01  0.35744000000E-01  0.51099999109E-03 0.  1.
       11   -1    0    0    0    0 -0.00000000000E+00 -0.00000000000E+00 -0.35740347158E-01  0.35744000000E-01  0.51099999109E-03 0. -1.
       22    1    1    2    0    0 -0.56184844694E-02 -0.37995125061E-02 -0.16952017261E-01  0.18258547375E-01  0.00000000000E+00 0. -1.
  9000001    1    1    2    0    0  0.56184844694E-02  0.37995125061E-02  0.16952017261E-01  0.53229452625E-01  0.50000000745E-01 0.  1.
</event>
<event>
 4   0  0.6886900E-01  0.9118800E+02  0.7818609E-02  0.1379984E+01
      -11   -1    0    0    0    0  0.00000000000E+00  0.00000000000E+00  0.35740347158E-01  0.35744000000E-01  0.51099999109E-03 0.  1.
       11   -1    0    0    0    0 -0.00000000000E+00 -0.00000000000E+00 -0.35740347158E-01  0.35744000000E-01  0.51099999109E-03 0. -1.
       22    1    1    2    0    0 -0.39498446862E-02  0.58149696073E-02  0.16851095147E-01  0.18258547375E-01  0.00000000000E+00 0. -1.
  9000001    1    1    2    0    0  0.39498446862E-02 -0.58149696073E-02 -0.16851095147E-01  0.53229452625E-01  0.50000000745E-01 0. -1.
</event>
<event>
 4   0  0.6886900E-01  0.9118800E+02  0.7818609E-02  0.1379984E+01
      -11   -1    0    0    0    0  0.00000000000E+00  0.00000000000E+00  0.35740347158E-01  0.35744000000E-01  0.51099999109E-03 0. -1.
       11   -1    0    0    0    0 -0.00000000000E+00 -0.00000000000E+00 -0.35740347158E-01  0.35744000000E-01  0.51099999109E-03 0.  1.
       22    1    1    2    0    0  0.11017815792E-01 -0.72886072133E-03  0.14541356521E-01  0.18258547375E-01  0.00000000000E+00 0. -1.
  9000001    1    1    2    0    0 -0.11017815792E-01  0.72886072133E-03 -0.14541356521E-01  0.53229452625E-01  0.50000000745E-01 0.  0.
</event>
<event>
 4   0  0.6886900E-01  0.9118800E+02  0.7818609E-02  0.1379984E+01
      -11   -1    0    0    0    0  0.00000000000E+00  0.00000000000E+00  0.35740347158E-01  0.35744000000E-01  0.51099999109E-03 0. -1.
       11   -1    0    0    0    0 -0.00000000000E+00 -0.00000000000E+00 -0.35740347158E-01  0.35744000000E-01  0.51099999109E-03 0.  1.
       22    1    1    2    0    0  0.12935551005E-01  0.45061369681E-02  0.12072315522E-01  0.18258547375E-01  0.00000000000E+00 0. -1.
  9000001    1    1    2    0    0 -0.12935551005E-01 -0.45061369681E-02 -0.12072315522E-01  0.53229452625E-01  0.50000000745E-01 0.  1.
</event>
<event>
 4   0  0.6886900E-01  0.9118800E+02  0.7818609E-02  0.1379984E+01
      -11   -1    0    0    0    0  0.00000000000E+00  0.00000000000E+00  0.35740347158E-01  0.35744000000E-01  0.51099999109E-03 0.  1.
       11   -1    0    0    0    0 -0.00000000000E+00 -0.00000000000E+00 -0.35740347158E-01  0.35744000000E-01  0.51099999109E-03 0. -1.
       22    1    1    2    0    0  0.16928031315E-01  0.66892749036E-02  0.14387179432E-02  0.18258547375E-01  0.00000000000E+00 0.  1.
  9000001    1    1    2    0    0 -0.16928031315E-01 -0.66892749036E-02 -0.14387179432E-02  0.53229452625E-01  0.50000000745E-01 0.  0.
</event>
<event>
 4   0  0.6886900E-01  0.9118800E+02  0.7818609E-02  0.1379984E+01
      -11   -1    0    0    0    0  0.00000000000E+00  0.00000000000E+00  0.35740347158E-01  0.35744000000E-01  0.51099999109E-03 0.  1.
       11   -1    0    0    0    0 -0.00000000000E+00 -0.00000000000E+00 -0.35740347158E-01  0.35744000000E-01  0.51099999109E-03 0. -1.
       22    1    1    2    0    0 -0.18011266624E-02 -0.27049712061E-02 -0.17967014938E-01  0.18258547375E-01  0.00000000000E+00 0. -1.
  9000001    1    1    2    0    0  0.18011266624E-02  0.27049712061E-02  0.17967014938E-01  0.53229452625E-01  0.50000000745E-01 0.  1.
</event>
<event>
 4   0  0.6886900E-01  0.9118800E+02  0.7818609E-02  0.1379984E+01
      -11   -1    0    0    0    0  0.00000000000E+00  0.00000000000E+00  0.35740347158E-01  0.35744000000E-01  0.51099999109E-03 0. -1.
       11   -1    0    0    0    0 -0.00000000000E+00 -0.00000000000E+00 -0.35740347158E-01  0.35744000000E-01  0.51099999109E-03 0.  1.
       22    1    1    2    0    0 -0.90571258650E-03 -0.13155515206E-01 -0.12628802660E-01  0.18258547375E-01  0.00000000000E+00 0.  1.
  9000001    1    1    2    0    0  0.90571258650E-03  0.13155515206E-01  0.12628802660E-01  0.53229452625E-01  0.50000000745E-01 0. -1.
</event>
<event>
 4   0  0.6886900E-01  0.9118800E+02  0.7818609E-02  0.1379984E+01
      -11   -1    0    0    0    0  0.00000000000E+00  0.00000000000E+00  0.35740347158E-01  0.35744000000E-01  0.51099999109E-03 0. -1.
       11   -1    0    0    0    0 -0.00000000000E+00 -0.00000000000E+00 -0.35740347158E-01  0.35744000000E-01  0.51099999109E-03 0.  1.
       22    1    1    2    0    0  0.72587290307E-02 -0.79911466865E-04  0.16753477826E-01  0.18258547375E-01  0.00000000000E+00 0. -1.
  9000001    1    1    2    0    0 -0.72587290307E-02  0.79911466865E-04 -0.16753477826E-01  0.53229452625E-01  0.50000000745E-01 0.  1.
</event>
<event>
 4   0  0.6886900E-01  0.9118800E+02  0.7818609E-02  0.1379984E+01
      -11   -1    0    0    0    0  0.00000000000E+00  0.00000000000E+00  0.35740347158E-01  0.35744000000E-01  0.51099999109E-03 0. -1.
       11   -1    0    0    0    0 -0.00000000000E+00 -0.00000000000E+00 -0.35740347158E-01  0.35744000000E-01  0.51099999109E-03 0.  1.
       22    1    1    2    0    0 -0.23334129857E-02  0.41337596690E-02  0.17630705235E-01  0.18258547375E-01  0.00000000000E+00 0. -1.
  9000001    1    1    2    0    0  0.23334129857E-02 -0.41337596690E-02 -0.17630705235E-01  0.53229452625E-01  0.50000000745E-01 0.  1.
</event>
<event>
 4   0  0.6886900E-01  0.9118800E+02  0.7818609E-02  0.1379984E+01
      -11   -1    0    0    0    0  0.00000000000E+00  0.00000000000E+00  0.35740347158E-01  0.35744000000E-01  0.51099999109E-03 0. -1.
       11   -1    0    0    0    0 -0.00000000000E+00 -0.00000000000E+00 -0.35740347158E-01  0.35744000000E-01  0.51099999109E-03 0.  1.
       22    1    1    2    0    0  0.12708868306E-01  0.21901130220E-02  0.12925270735E-01  0.18258547375E-01  0.00000000000E+00 0.  1.
  9000001    1    1    2    0    0 -0.12708868306E-01 -0.21901130220E-02 -0.12925270735E-01  0.53229452625E-01  0.50000000745E-01 0.  0.
</event>
<event>
 4   0  0.6886900E-01  0.9118800E+02  0.7818609E-02  0.1379984E+01
      -11   -1    0    0    0    0  0.00000000000E+00  0.00000000000E+00  0.35740347158E-01  0.35744000000E-01  0.51099999109E-03 0. -1.
       11   -1    0    0    0    0 -0.00000000000E+00 -0.00000000000E+00 -0.35740347158E-01  0.35744000000E-01  0.51099999109E-03 0.  1.
       22    1    1    2    0    0  0.81257458845E-02 -0.80182068523E-02 -0.14249742627E-01  0.18258547375E-01  0.00000000000E+00 0. -1.
  9000001    1    1    2    0    0 -0.81257458845E-02  0.80182068523E-02  0.14249742627E-01  0.53229452625E-01  0.50000000745E-01 0. -1.
</event>
<event>
 4   0  0.6886900E-01  0.9118800E+02  0.7818609E-02  0.1379984E+01
      -11   -1    0    0    0    0  0.00000000000E+00  0.00000000000E+00  0.35740347158E-01  0.35744000000E-01  0.51099999109E-03 0. -1.
       11   -1    0    0    0    0 -0.00000000000E+00 -0.00000000000E+00 -0.35740347158E-01  0.35744000000E-01  0.51099999109E-03 0.  1.
       22    1    1    2    0    0  0.96619723800E-02 -0.32058042696E-02  0.15157297284E-01  0.18258547375E-01  0.00000000000E+00 0. -1.
  9000001    1    1    2    0    0 -0.96619723800E-02  0.32058042696E-02 -0.15157297284E-01  0.53229452625E-01  0.50000000745E-01 0.  1.
</event>
<event>
 4   0  0.6886900E-01  0.9118800E+02  0.7818609E-02  0.1379984E+01
      -11   -1    0    0    0    0  0.00000000000E+00  0.00000000000E+00  0.35740347158E-01  0.35744000000E-01  0.51099999109E-03 0.  1.
       11   -1    0    0    0    0 -0.00000000000E+00 -0.00000000000E+00 -0.35740347158E-01  0.35744000000E-01  0.51099999109E-03 0. -1.
       22    1    1    2    0    0 -0.29343741601E-02  0.27280401173E-02  0.17813528501E-01  0.18258547375E-01  0.00000000000E+00 0.  1.
  9000001    1    1    2    0    0  0.29343741601E-02 -0.27280401173E-02 -0.17813528501E-01  0.53229452625E-01  0.50000000745E-01 0. -1.
</event>
<event>
 4   0  0.6886900E-01  0.9118800E+02  0.7818609E-02  0.1379984E+01
      -11   -1    0    0    0    0  0.00000000000E+00  0.00000000000E+00  0.35740347158E-01  0.35744000000E-01  0.51099999109E-03 0. -1.
       11   -1    0    0    0    0 -0.00000000000E+00 -0.00000000000E+00 -0.35740347158E-01  0.35744000000E-01  0.51099999109E-03 0.  1.
       22    1    1    2    0    0 -0.10158634779E-01  0.33849748058E-02  0.14789139165E-01  0.18258547375E-01  0.00000000000E+00 0.  1.
  9000001    1    1    2    0    0  0.10158634779E-01 -0.33849748058E-02 -0.14789139165E-01  0.53229452625E-01  0.50000000745E-01 0.  1.
</event>
<event>
 4   0  0.6886900E-01  0.9118800E+02  0.7818609E-02  0.1379984E+01
      -11   -1    0    0    0    0  0.00000000000E+00  0.00000000000E+00  0.35740347158E-01  0.35744000000E-01  0.51099999109E-03 0.  1.
       11   -1    0    0    0    0 -0.00000000000E+00 -0.00000000000E+00 -0.35740347158E-01  0.35744000000E-01  0.51099999109E-03 0. -1.
       22    1    1    2    0    0  0.10638558977E-01 -0.14563575789E-01 -0.28456766111E-02  0.18258547375E-01  0.00000000000E+00 0.  1.
  9000001    1    1    2    0    0 -0.10638558977E-01  0.14563575789E-01  0.28456766111E-02  0.53229452625E-01  0.50000000745E-01 0. -1.
</event>
<event>
 4   0  0.6886900E-01  0.9118800E+02  0.7818609E-02  0.1379984E+01
      -11   -1    0    0    0    0  0.00000000000E+00  0.00000000000E+00  0.35740347158E-01  0.35744000000E-01  0.51099999109E-03 0.  1.
       11   -1    0    0    0    0 -0.00000000000E+00 -0.00000000000E+00 -0.35740347158E-01  0.35744000000E-01  0.51099999109E-03 0. -1.
       22    1    1    2    0    0  0.11935223304E-03 -0.30303287286E-02 -0.18004927522E-01  0.18258547375E-01  0.00000000000E+00 0. -1.
  9000001    1    1    2    0    0 -0.11935223304E-03  0.30303287286E-02  0.18004927522E-01  0.53229452625E-01  0.50000000745E-01 0.  1.
</event>
<event>
 4   0  0.6886900E-01  0.9118800E+02  0.7818609E-02  0.1379984E+01
      -11   -1    0    0    0    0  0.00000000000E+00  0.00000000000E+00  0.35740347158E-01  0.35744000000E-01  0.51099999109E-03 0.  1.
       11   -1    0    0    0    0 -0.00000000000E+00 -0.00000000000E+00 -0.35740347158E-01  0.35744000000E-01  0.51099999109E-03 0. -1.
       22    1    1    2    0    0  0.69360951161E-03  0.37243212740E-02 -0.17861211861E-01  0.18258547375E-01  0.00000000000E+00 0. -1.
  9000001    1    1    2    0    0 -0.69360951161E-03 -0.37243212740E-02  0.17861211861E-01  0.53229452625E-01  0.50000000745E-01 0.  1.
</event>
<event>
 4   0  0.6886900E-01  0.9118800E+02  0.7818609E-02  0.1379984E+01
      -11   -1    0    0    0    0  0.00000000000E+00  0.00000000000E+00  0.35740347158E-01  0.35744000000E-01  0.51099999109E-03 0. -1.
       11   -1    0    0    0    0 -0.00000000000E+00 -0.00000000000E+00 -0.35740347158E-01  0.35744000000E-01  0.51099999109E-03 0.  1.
       22    1    1    2    0    0  0.10803581784E-01 -0.29865602774E-02  0.14413106209E-01  0.18258547375E-01  0.00000000000E+00 0. -1.
  9000001    1    1    2    0    0 -0.10803581784E-01  0.29865602774E-02 -0.14413106209E-01  0.53229452625E-01  0.50000000745E-01 0.  1.
</event>
<event>
 4   0  0.6886900E-01  0.9118800E+02  0.7818609E-02  0.1379984E+01
      -11   -1    0    0    0    0  0.00000000000E+00  0.00000000000E+00  0.35740347158E-01  0.35744000000E-01  0.51099999109E-03 0.  1.
       11   -1    0    0    0    0 -0.00000000000E+00 -0.00000000000E+00 -0.35740347158E-01  0.35744000000E-01  0.51099999109E-03 0. -1.
       22    1    1    2    0    0  0.35423966609E-02  0.55398917385E-03  0.17903046504E-01  0.18258547375E-01  0.00000000000E+00 0. -1.
  9000001    1    1    2    0    0 -0.35423966609E-02 -0.55398917385E-03 -0.17903046504E-01  0.53229452625E-01  0.50000000745E-01 0. -1.
</event>
<event>
 4   0  0.6886900E-01  0.9118800E+02  0.7818609E-02  0.1379984E+01
      -11   -1    0    0    0    0  0.00000000000E+00  0.00000000000E+00  0.35740347158E-01  0.35744000000E-01  0.51099999109E-03 0. -1.
       11   -1    0    0    0    0 -0.00000000000E+00 -0.00000000000E+00 -0.35740347158E-01  0.35744000000E-01  0.51099999109E-03 0.  1.
       22    1    1    2    0    0  0.34740706670E-02 -0.10265609569E-02 -0.17895573694E-01  0.18258547375E-01  0.00000000000E+00 0.  1.
  9000001    1    1    2    0    0 -0.34740706670E-02  0.10265609569E-02  0.17895573694E-01  0.53229452625E-01  0.50000000745E-01 0. -1.
</event>
<event>
 4   0  0.6886900E-01  0.9118800E+02  0.7818609E-02  0.1379984E+01
      -11   -1    0    0    0    0  0.00000000000E+00  0.00000000000E+00  0.35740347158E-01  0.35744000000E-01  0.51099999109E-03 0.  1.
       11   -1    0    0    0    0 -0.00000000000E+00 -0.00000000000E+00 -0.35740347158E-01  0.35744000000E-01  0.51099999109E-03 0. -1.
       22    1    1    2    0    0  0.36295911544E-02  0.14709069872E-02  0.17833593383E-01  0.18258547375E-01  0.00000000000E+00 0.  1.
  9000001    1    1    2    0    0 -0.36295911544E-02 -0.14709069872E-02 -0.17833593383E-01  0.53229452625E-01  0.50000000745E-01 0. -1.
</event>
<event>
 4   0  0.6886900E-01  0.9118800E+02  0.7818609E-02  0.1379984E+01
      -11   -1    0    0    0    0  0.00000000000E+00  0.00000000000E+00  0.35740347158E-01  0.35744000000E-01  0.51099999109E-03 0.  1.
       11   -1    0    0    0    0 -0.00000000000E+00 -0.00000000000E+00 -0.35740347158E-01  0.35744000000E-01  0.51099999109E-03 0. -1.
       22    1    1    2    0    0  0.13061314787E-01  0.92782446859E-02  0.87573274358E-02  0.18258547375E-01  0.00000000000E+00 0. -1.
  9000001    1    1    2    0    0 -0.13061314787E-01 -0.92782446859E-02 -0.87573274358E-02  0.53229452625E-01  0.50000000745E-01 0.  0.
</event>
<event>
 4   0  0.6886900E-01  0.9118800E+02  0.7818609E-02  0.1379984E+01
      -11   -1    0    0    0    0  0.00000000000E+00  0.00000000000E+00  0.35740347158E-01  0.35744000000E-01  0.51099999109E-03 0.  1.
       11   -1    0    0    0    0 -0.00000000000E+00 -0.00000000000E+00 -0.35740347158E-01  0.35744000000E-01  0.51099999109E-03 0. -1.
       22    1    1    2    0    0 -0.17876059118E-01 -0.10417895197E-02 -0.35687164730E-02  0.18258547375E-01  0.00000000000E+00 0. -1.
  9000001    1    1    2    0    0  0.17876059118E-01  0.10417895197E-02  0.35687164730E-02  0.53229452625E-01  0.50000000745E-01 0.  0.
</event>
<event>
 4   0  0.6886900E-01  0.9118800E+02  0.7818609E-02  0.1379984E+01
      -11   -1    0    0    0    0  0.00000000000E+00  0.00000000000E+00  0.35740347158E-01  0.35744000000E-01  0.51099999109E-03 0. -1.
       11   -1    0    0    0    0 -0.00000000000E+00 -0.00000000000E+00 -0.35740347158E-01  0.35744000000E-01  0.51099999109E-03 0.  1.
       22    1    1    2    0    0  0.13078067576E-01  0.12399949190E-01  0.29291570162E-02  0.18258547375E-01  0.00000000000E+00 0. -1.
  9000001    1    1    2    0    0 -0.13078067576E-01 -0.12399949190E-01 -0.29291570162E-02  0.53229452625E-01  0.50000000745E-01 0.  1.
</event>
<event>
 4   0  0.6886900E-01  0.9118800E+02  0.7818609E-02  0.1379984E+01
      -11   -1    0    0    0    0  0.00000000000E+00  0.00000000000E+00  0.35740347158E-01  0.35744000000E-01  0.51099999109E-03 0. -1.
       11   -1    0    0    0    0 -0.00000000000E+00 -0.00000000000E+00 -0.35740347158E-01  0.35744000000E-01  0.51099999109E-03 0.  1.
       22    1    1    2    0    0 -0.13941142687E-01  0.12024005436E-02 -0.11729165603E-01  0.18258547375E-01  0.00000000000E+00 0.  1.
  9000001    1    1    2    0    0  0.13941142687E-01 -0.12024005436E-02  0.11729165603E-01  0.53229452625E-01  0.50000000745E-01 0. -1.
</event>
<event>
 4   0  0.6886900E-01  0.9118800E+02  0.7818609E-02  0.1379984E+01
      -11   -1    0    0    0    0  0.00000000000E+00  0.00000000000E+00  0.35740347158E-01  0.35744000000E-01  0.51099999109E-03 0. -1.
       11   -1    0    0    0    0 -0.00000000000E+00 -0.00000000000E+00 -0.35740347158E-01  0.35744000000E-01  0.51099999109E-03 0.  1.
       22    1    1    2    0    0  0.35775519929E-02  0.58400045316E-02  0.16925425284E-01  0.18258547375E-01  0.00000000000E+00 0. -1.
  9000001    1    1    2    0    0 -0.35775519929E-02 -0.58400045316E-02 -0.16925425284E-01  0.53229452625E-01  0.50000000745E-01 0.  1.
</event>
<event>
 4   0  0.6886900E-01  0.9118800E+02  0.7818609E-02  0.1379984E+01
      -11   -1    0    0    0    0  0.00000000000E+00  0.00000000000E+00  0.35740347158E-01  0.35744000000E-01  0.51099999109E-03 0. -1.
       11   -1    0    0    0    0 -0.00000000000E+00 -0.00000000000E+00 -0.35740347158E-01  0.35744000000E-01  0.51099999109E-03 0.  1.
       22    1    1    2    0    0  0.84605781549E-02 -0.16172029803E-01 -0.50854849390E-03  0.18258547375E-01  0.00000000000E+00 0.  1.
  9000001    1    1    2    0    0 -0.84605781549E-02  0.16172029803E-01  0.50854849390E-03  0.53229452625E-01  0.50000000745E-01 0. -1.
</event>
<event>
 4   0  0.6886900E-01  0.9118800E+02  0.7818609E-02  0.1379984E+01
      -11   -1    0    0    0    0  0.00000000000E+00  0.00000000000E+00  0.35740347158E-01  0.35744000000E-01  0.51099999109E-03 0.  1.
       11   -1    0    0    0    0 -0.00000000000E+00 -0.00000000000E+00 -0.35740347158E-01  0.35744000000E-01  0.51099999109E-03 0. -1.
       22    1    1    2    0    0  0.46558028020E-02 -0.17499583378E-01 -0.23372278659E-02  0.18258547375E-01  0.00000000000E+00 0.  1.
  9000001    1    1    2    0    0 -0.46558028020E-02  0.17499583378E-01  0.23372278659E-02  0.53229452625E-01  0.50000000745E-01 0.  1.
</event>
<event>
 4   0  0.6886900E-01  0.9118800E+02  0.7818609E-02  0.1379984E+01
      -11   -1    0    0    0    0  0.00000000000E+00  0.00000000000E+00  0.35740347158E-01  0.35744000000E-01  0.51099999109E-03 0. -1.
       11   -1    0    0    0    0 -0.00000000000E+00 -0.00000000000E+00 -0.35740347158E-01  0.35744000000E-01  0.51099999109E-03 0.  1.
       22    1    1    2    0    0 -0.17386076555E-01  0.55733172732E-02 -0.19242879122E-03  0.18258547375E-01  0.00000000000E+00 0.  1.
  9000001    1    1    2    0    0  0.17386076555E-01 -0.55733172732E-02  0.19242879122E-03  0.53229452625E-01  0.50000000745E-01 0.  0.
</event>
<event>
 4   0  0.6886900E-01  0.9118800E+02  0.7818609E-02  0.1379984E+01
      -11   -1    0    0    0    0  0.00000000000E+00  0.00000000000E+00  0.35740347158E-01  0.35744000000E-01  0.51099999109E-03 0.  1.
       11   -1    0    0    0    0 -0.00000000000E+00 -0.00000000000E+00 -0.35740347158E-01  0.35744000000E-01  0.51099999109E-03 0. -1.
       22    1    1    2    0    0 -0.60290651370E-02  0.64641925470E-03 -0.17222284052E-01  0.18258547375E-01  0.00000000000E+00 0. -1.
  9000001    1    1    2    0    0  0.60290651370E-02 -0.64641925470E-03  0.17222284052E-01  0.53229452625E-01  0.50000000745E-01 0.  1.
</event>
<event>
 4   0  0.6886900E-01  0.9118800E+02  0.7818609E-02  0.1379984E+01
      -11   -1    0    0    0    0  0.00000000000E+00  0.00000000000E+00  0.35740347158E-01  0.35744000000E-01  0.51099999109E-03 0. -1.
       11   -1    0    0    0    0 -0.00000000000E+00 -0.00000000000E+00 -0.35740347158E-01  0.35744000000E-01  0.51099999109E-03 0.  1.
       22    1    1    2    0    0 -0.69684495598E-02  0.15108271315E-01 -0.75203324959E-02  0.18258547375E-01  0.00000000000E+00 0. -1.
  9000001    1    1    2    0    0  0.69684495598E-02 -0.15108271315E-01  0.75203324959E-02  0.53229452625E-01  0.50000000745E-01 0. -1.
</event>
<event>
 4   0  0.6886900E-01  0.9118800E+02  0.7818609E-02  0.1379984E+01
      -11   -1    0    0    0    0  0.00000000000E+00  0.00000000000E+00  0.35740347158E-01  0.35744000000E-01  0.51099999109E-03 0.  1.
       11   -1    0    0    0    0 -0.00000000000E+00 -0.00000000000E+00 -0.35740347158E-01  0.35744000000E-01  0.51099999109E-03 0. -1.
       22    1    1    2    0    0  0.63615023221E-02 -0.11858265014E-01 -0.12340477759E-01  0.18258547375E-01  0.00000000000E+00 0. -1.
  9000001    1    1    2    0    0 -0.63615023221E-02  0.11858265014E-01  0.12340477759E-01  0.53229452625E-01  0.50000000745E-01 0.  1.
</event>
<event>
 4   0  0.6886900E-01  0.9118800E+02  0.7818609E-02  0.1379984E+01
      -11   -1    0    0    0    0  0.00000000000E+00  0.00000000000E+00  0.35740347158E-01  0.35744000000E-01  0.51099999109E-03 0.  1.
       11   -1    0    0    0    0 -0.00000000000E+00 -0.00000000000E+00 -0.35740347158E-01  0.35744000000E-01  0.51099999109E-03 0. -1.
       22    1    1    2    0    0  0.48216377316E-02 -0.87628156095E-03 -0.17588589837E-01  0.18258547375E-01  0.00000000000E+00 0. -1.
  9000001    1    1    2    0    0 -0.48216377316E-02  0.87628156095E-03  0.17588589837E-01  0.53229452625E-01  0.50000000745E-01 0.  1.
</event>
<event>
 4   0  0.6886900E-01  0.9118800E+02  0.7818609E-02  0.1379984E+01
      -11   -1    0    0    0    0  0.00000000000E+00  0.00000000000E+00  0.35740347158E-01  0.35744000000E-01  0.51099999109E-03 0. -1.
       11   -1    0    0    0    0 -0.00000000000E+00 -0.00000000000E+00 -0.35740347158E-01  0.35744000000E-01  0.51099999109E-03 0.  1.
       22    1    1    2    0    0 -0.13305255936E-03 -0.44411410838E-02  0.17709689866E-01  0.18258547375E-01  0.00000000000E+00 0. -1.
  9000001    1    1    2    0    0  0.13305255936E-03  0.44411410838E-02 -0.17709689866E-01  0.53229452625E-01  0.50000000745E-01 0.  1.
</event>
<event>
 4   0  0.6886900E-01  0.9118800E+02  0.7818609E-02  0.1379984E+01
      -11   -1    0    0    0    0  0.00000000000E+00  0.00000000000E+00  0.35740347158E-01  0.35744000000E-01  0.51099999109E-03 0. -1.
       11   -1    0    0    0    0 -0.00000000000E+00 -0.00000000000E+00 -0.35740347158E-01  0.35744000000E-01  0.51099999109E-03 0.  1.
       22    1    1    2    0    0 -0.80734812584E-02  0.10818456865E-01 -0.12294488345E-01  0.18258547375E-01  0.00000000000E+00 0.  1.
  9000001    1    1    2    0    0  0.80734812584E-02 -0.10818456865E-01  0.12294488345E-01  0.53229452625E-01  0.50000000745E-01 0. -1.
</event>
<event>
 4   0  0.6886900E-01  0.9118800E+02  0.7818609E-02  0.1379984E+01
      -11   -1    0    0    0    0  0.00000000000E+00  0.00000000000E+00  0.35740347158E-01  0.35744000000E-01  0.51099999109E-03 0.  1.
       11   -1    0    0    0    0 -0.00000000000E+00 -0.00000000000E+00 -0.35740347158E-01  0.35744000000E-01  0.51099999109E-03 0. -1.
       22    1    1    2    0    0 -0.11029571752E-01  0.14548256166E-01 -0.26709874423E-03  0.18258547375E-01  0.00000000000E+00 0.  1.
  9000001    1    1    2    0    0  0.11029571752E-01 -0.14548256166E-01  0.26709874423E-03  0.53229452625E-01  0.50000000745E-01 0. -1.
</event>
<event>
 4   0  0.6886900E-01  0.9118800E+02  0.7818609E-02  0.1379984E+01
      -11   -1    0    0    0    0  0.00000000000E+00  0.00000000000E+00  0.35740347158E-01  0.35744000000E-01  0.51099999109E-03 0. -1.
       11   -1    0    0    0    0 -0.00000000000E+00 -0.00000000000E+00 -0.35740347158E-01  0.35744000000E-01  0.51099999109E-03 0.  1.
       22    1    1    2    0    0 -0.20163120995E-02  0.22559175617E-02 -0.18006106567E-01  0.18258547375E-01  0.00000000000E+00 0.  1.
  9000001    1    1    2    0    0  0.20163120995E-02 -0.22559175617E-02  0.18006106567E-01  0.53229452625E-01  0.50000000745E-01 0. -1.
</event>
<event>
 4   0  0.6886900E-01  0.9118800E+02  0.7818609E-02  0.1379984E+01
      -11   -1    0    0    0    0  0.00000000000E+00  0.00000000000E+00  0.35740347158E-01  0.35744000000E-01  0.51099999109E-03 0. -1.
       11   -1    0    0    0    0 -0.00000000000E+00 -0.00000000000E+00 -0.35740347158E-01  0.35744000000E-01  0.51099999109E-03 0.  1.
       22    1    1    2    0    0 -0.52274030964E-02  0.26001649104E-02 -0.17299940796E-01  0.18258547375E-01  0.00000000000E+00 0. -1.
  9000001    1    1    2    0    0  0.52274030964E-02 -0.26001649104E-02  0.17299940796E-01  0.53229452625E-01  0.50000000745E-01 0. -1.
</event>
<event>
 4   0  0.6886900E-01  0.9118800E+02  0.7818609E-02  0.1379984E+01
      -11   -1    0    0    0    0  0.00000000000E+00  0.00000000000E+00  0.35740347158E-01  0.35744000000E-01  0.51099999109E-03 0.  1.
       11   -1    0    0    0    0 -0.00000000000E+00 -0.00000000000E+00 -0.35740347158E-01  0.35744000000E-01  0.51099999109E-03 0. -1.
       22    1    1    2    0    0 -0.95475454082E-02 -0.13178150449E-01 -0.82798115727E-02  0.18258547375E-01  0.00000000000E+00 0. -1.
  9000001    1    1    2    0    0  0.95475454082E-02  0.13178150449E-01  0.82798115727E-02  0.53229452625E-01  0.50000000745E-01 0.  1.
</event>
<event>
 4   0  0.6886900E-01  0.9118800E+02  0.7818609E-02  0.1379984E+01
      -11   -1    0    0    0    0  0.00000000000E+00  0.00000000000E+00  0.35740347158E-01  0.35744000000E-01  0.51099999109E-03 0. -1.
       11   -1    0    0    0    0 -0.00000000000E+00 -0.00000000000E+00 -0.35740347158E-01  0.35744000000E-01  0.51099999109E-03 0.  1.
       22    1    1    2    0    0  0.11638014785E-01 -0.13782608522E-01 -0.28232722924E-02  0.18258547375E-01  0.00000000000E+00 0. -1.
  9000001    1    1    2    0    0 -0.11638014785E-01  0.13782608522E-01  0.28232722924E-02  0.53229452625E-01  0.50000000745E-01 0.  0.
</event>
<event>
 4   0  0.6886900E-01  0.9118800E+02  0.7818609E-02  0.1379984E+01
      -11   -1    0    0    0    0  0.00000000000E+00  0.00000000000E+00  0.35740347158E-01  0.35744000000E-01  0.51099999109E-03 0.  1.
       11   -1    0    0    0    0 -0.00000000000E+00 -0.00000000000E+00 -0.35740347158E-01  0.35744000000E-01  0.51099999109E-03 0. -1.
       22    1    1    2    0    0  0.65365384683E-02 -0.31445194813E-02  0.16755900881E-01  0.18258547375E-01  0.00000000000E+00 0. -1.
  9000001    1    1    2    0    0 -0.65365384683E-02  0.31445194813E-02 -0.16755900881E-01  0.53229452625E-01  0.50000000745E-01 0. -1.
</event>
<event>
 4   0  0.6886900E-01  0.9118800E+02  0.7818609E-02  0.1379984E+01
      -11   -1    0    0    0    0  0.00000000000E+00  0.00000000000E+00  0.35740347158E-01  0.35744000000E-01  0.51099999109E-03 0. -1.
       11   -1    0    0    0    0 -0.00000000000E+00 -0.00000000000E+00 -0.35740347158E-01  0.35744000000E-01  0.51099999109E-03 0.  1.
       22    1    1    2    0    0 -0.51397598254E-02 -0.10886539423E-01 -0.13727369762E-01  0.18258547375E-01  0.00000000000E+00 0.  1.
  9000001    1    1    2    0    0  0.51397598254E-02  0.10886539423E-01  0.13727369762E-01  0.53229452625E-01  0.50000000745E-01 0. -1.
</event>
<event>
 4   0  0.6886900E-01  0.9118800E+02  0.7818609E-02  0.1379984E+01
      -11   -1    0    0    0    0  0.00000000000E+00  0.00000000000E+00  0.35740347158E-01  0.35744000000E-01  0.51099999109E-03 0. -1.
       11   -1    0    0    0    0 -0.00000000000E+00 -0.00000000000E+00 -0.35740347158E-01  0.35744000000E-01  0.51099999109E-03 0.  1.
       22    1    1    2    0    0 -0.45111323834E-03 -0.95437649350E-02 -0.15559164501E-01  0.18258547375E-01  0.00000000000E+00 0.  1.
  9000001    1    1    2    0    0  0.45111323834E-03  0.95437649350E-02  0.15559164501E-01  0.53229452625E-01  0.50000000745E-01 0. -1.
</event>
<event>
 4   0  0.6886900E-01  0.9118800E+02  0.7818609E-02  0.1379984E+01
      -11   -1    0    0    0    0  0.00000000000E+00  0.00000000000E+00  0.35740347158E-01  0.35744000000E-01  0.51099999109E-03 0.  1.
       11   -1    0    0    0    0 -0.00000000000E+00 -0.00000000000E+00 -0.35740347158E-01  0.35744000000E-01  0.51099999109E-03 0. -1.
       22    1    1    2    0    0  0.92353088662E-02 -0.10826758420E-01 -0.11439620821E-01  0.18258547375E-01  0.00000000000E+00 0.  1.
  9000001    1    1    2    0    0 -0.92353088662E-02  0.10826758420E-01  0.11439620821E-01  0.53229452625E-01  0.50000000745E-01 0.  0.
</event>
<event>
 4   0  0.6886900E-01  0.9118800E+02  0.7818609E-02  0.1379984E+01
      -11   -1    0    0    0    0  0.00000000000E+00  0.00000000000E+00  0.35740347158E-01  0.35744000000E-01  0.51099999109E-03 0. -1.
       11   -1    0    0    0    0 -0.00000000000E+00 -0.00000000000E+00 -0.35740347158E-01  0.35744000000E-01  0.51099999109E-03 0.  1.
       22    1    1    2    0    0 -0.43894343743E-03 -0.41694953676E-02 -0.17770683422E-01  0.18258547375E-01  0.00000000000E+00 0. -1.
  9000001    1    1    2    0    0  0.43894343743E-03  0.41694953676E-02  0.17770683422E-01  0.53229452625E-01  0.50000000745E-01 0. -1.
</event>
<event>
 4   0  0.6886900E-01  0.9118800E+02  0.7818609E-02  0.1379984E+01
      -11   -1    0    0    0    0  0.00000000000E+00  0.00000000000E+00  0.35740347158E-01  0.35744000000E-01  0.51099999109E-03 0. -1.
       11   -1    0    0    0    0 -0.00000000000E+00 -0.00000000000E+00 -0.35740347158E-01  0.35744000000E-01  0.51099999109E-03 0.  1.
       22    1    1    2    0    0 -0.85470727671E-02 -0.15739730191E-01  0.35472514552E-02  0.18258547375E-01  0.00000000000E+00 0.  1.
  9000001    1    1    2    0    0  0.85470727671E-02  0.15739730191E-01 -0.35472514552E-02  0.53229452625E-01  0.50000000745E-01 0.  0.
</event>
<event>
 4   0  0.6886900E-01  0.9118800E+02  0.7818609E-02  0.1379984E+01
      -11   -1    0    0    0    0  0.00000000000E+00  0.00000000000E+00  0.35740347158E-01  0.35744000000E-01  0.51099999109E-03 0. -1.
       11   -1    0    0    0    0 -0.00000000000E+00 -0.00000000000E+00 -0.35740347158E-01  0.35744000000E-01  0.51099999109E-03 0.  1.
       22    1    1    2    0    0 -0.38216712197E-02 -0.20115644754E-02  0.17740433752E-01  0.18258547375E-01  0.00000000000E+00 0. -1.
  9000001    1    1    2    0    0  0.38216712197E-02  0.20115644754E-02 -0.17740433752E-01  0.53229452625E-01  0.50000000745E-01 0.  1.
</event>
<event>
 4   0  0.6886900E-01  0.9118800E+02  0.7818609E-02  0.1379984E+01
      -11   -1    0    0    0    0  0.00000000000E+00  0.00000000000E+00  0.35740347158E-01  0.35744000000E-01  0.51099999109E-03 0.  1.
       11   -1    0    0    0    0 -0.00000000000E+00 -0.00000000000E+00 -0.35740347158E-01  0.35744000000E-01  0.51099999109E-03 0. -1.
       22    1    1    2    0    0 -0.13081422412E-02 -0.32806818025E-02 -0.17913694288E-01  0.18258547375E-01  0.00000000000E+00 0. -1.
  9000001    1    1    2    0    0  0.13081422412E-02  0.32806818025E-02  0.17913694288E-01  0.53229452625E-01  0.50000000745E-01 0.  1.
</event>
<event>
 4   0  0.6886900E-01  0.9118800E+02  0.7818609E-02  0.1379984E+01
      -11   -1    0    0    0    0  0.00000000000E+00  0.00000000000E+00  0.35740347158E-01  0.35744000000E-01  0.51099999109E-03 0.  1.
       11   -1    0    0    0    0 -0.00000000000E+00 -0.00000000000E+00 -0.35740347158E-01  0.35744000000E-01  0.51099999109E-03 0. -1.
       22    1    1    2    0    0  0.17363373604E-02 -0.14098727437E-01  0.11471075340E-01  0.18258547375E-01  0.00000000000E+00 0. -1.
  9000001    1    1    2    0    0 -0.17363373604E-02  0.14098727437E-01 -0.11471075340E-01  0.53229452625E-01  0.50000000745E-01 0. -1.
</event>
<event>
 4   0  0.6886900E-01  0.9118800E+02  0.7818609E-02  0.1379984E+01
      -11   -1    0    0    0    0  0.00000000000E+00  0.00000000000E+00  0.35740347158E-01  0.35744000000E-01  0.51099999109E-03 0.  1.
       11   -1    0    0    0    0 -0.00000000000E+00 -0.00000000000E+00 -0.35740347158E-01  0.35744000000E-01  0.51099999109E-03 0. -1.
       22    1    1    2    0    0 -0.17577866754E-01  0.28931214043E-02 -0.40028741112E-02  0.18258547375E-01  0.00000000000E+00 0.  1.
  9000001    1    1    2    0    0  0.17577866754E-01 -0.28931214043E-02  0.40028741112E-02  0.53229452625E-01  0.50000000745E-01 0.  0.
</event>
<event>
 4   0  0.6886900E-01  0.9118800E+02  0.7818609E-02  0.1379984E+01
      -11   -1    0    0    0    0  0.00000000000E+00  0.00000000000E+00  0.35740347158E-01  0.35744000000E-01  0.51099999109E-03 0. -1.
       11   -1    0    0    0    0 -0.00000000000E+00 -0.00000000000E+00 -0.35740347158E-01  0.35744000000E-01  0.51099999109E-03 0.  1.
       22    1    1    2    0    0  0.59580931308E-02 -0.38073493667E-02 -0.16833887528E-01  0.18258547375E-01  0.00000000000E+00 0.  1.
  9000001    1    1    2    0    0 -0.59580931308E-02  0.38073493667E-02  0.16833887528E-01  0.53229452625E-01  0.50000000745E-01 0. -1.
</event>
<event>
 4   0  0.6886900E-01  0.9118800E+02  0.7818609E-02  0.1379984E+01
      -11   -1    0    0    0    0  0.00000000000E+00  0.00000000000E+00  0.35740347158E-01  0.35744000000E-01  0.51099999109E-03 0.  1.
       11   -1    0    0    0    0 -0.00000000000E+00 -0.00000000000E+00 -0.35740347158E-01  0.35744000000E-01  0.51099999109E-03 0. -1.
       22    1    1    2    0    0 -0.46972672202E-02 -0.28584592783E-02 -0.17410900134E-01  0.18258547375E-01  0.00000000000E+00 0.  1.
  9000001    1    1    2    0    0  0.46972672202E-02  0.28584592783E-02  0.17410900134E-01  0.53229452625E-01  0.50000000745E-01 0.  1.
</event>
<event>
 4   0  0.6886900E-01  0.9118800E+02  0.7818609E-02  0.1379984E+01
      -11   -1    0    0    0    0  0.00000000000E+00  0.00000000000E+00  0.35740347158E-01  0.35744000000E-01  0.51099999109E-03 0.  1.
       11   -1    0    0    0    0 -0.00000000000E+00 -0.00000000000E+00 -0.35740347158E-01  0.35744000000E-01  0.51099999109E-03 0. -1.
       22    1    1    2    0    0 -0.63164105216E-02  0.70397193952E-02  0.15617933961E-01  0.18258547375E-01  0.00000000000E+00 0. -1.
  9000001    1    1    2    0    0  0.63164105216E-02 -0.70397193952E-02 -0.15617933961E-01  0.53229452625E-01  0.50000000745E-01 0.  0.
</event>
<event>
 4   0  0.6886900E-01  0.9118800E+02  0.7818609E-02  0.1379984E+01
      -11   -1    0    0    0    0  0.00000000000E+00  0.00000000000E+00  0.35740347158E-01  0.35744000000E-01  0.51099999109E-03 0.  1.
       11   -1    0    0    0    0 -0.00000000000E+00 -0.00000000000E+00 -0.35740347158E-01  0.35744000000E-01  0.51099999109E-03 0. -1.
       22    1    1    2    0    0 -0.30694576874E-02 -0.55775066008E-02 -0.17112697095E-01  0.18258547375E-01  0.00000000000E+00 0. -1.
  9000001    1    1    2    0    0  0.30694576874E-02  0.55775066008E-02  0.17112697095E-01  0.53229452625E-01  0.50000000745E-01 0.  1.
</event>
<event>
 4   0  0.6886900E-01  0.9118800E+02  0.7818609E-02  0.1379984E+01
      -11   -1    0    0    0    0  0.00000000000E+00  0.00000000000E+00  0.35740347158E-01  0.35744000000E-01  0.51099999109E-03 0. -1.
       11   -1    0    0    0    0 -0.00000000000E+00 -0.00000000000E+00 -0.35740347158E-01  0.35744000000E-01  0.51099999109E-03 0.  1.
       22    1    1    2    0    0 -0.41523044331E-02  0.44332466429E-02 -0.17218572657E-01  0.18258547375E-01  0.00000000000E+00 0.  1.
  9000001    1    1    2    0    0  0.41523044331E-02 -0.44332466429E-02  0.17218572657E-01  0.53229452625E-01  0.50000000745E-01 0. -1.
</event>
<event>
 4   0  0.6886900E-01  0.9118800E+02  0.7818609E-02  0.1379984E+01
      -11   -1    0    0    0    0  0.00000000000E+00  0.00000000000E+00  0.35740347158E-01  0.35744000000E-01  0.51099999109E-03 0. -1.
       11   -1    0    0    0    0 -0.00000000000E+00 -0.00000000000E+00 -0.35740347158E-01  0.35744000000E-01  0.51099999109E-03 0.  1.
       22    1    1    2    0    0  0.97807955001E-02  0.86088416503E-02 -0.12790560467E-01  0.18258547375E-01  0.00000000000E+00 0. -1.
  9000001    1    1    2    0    0 -0.97807955001E-02 -0.86088416503E-02  0.12790560467E-01  0.53229452625E-01  0.50000000745E-01 0.  0.
</event>
<event>
 4   0  0.6886900E-01  0.9118800E+02  0.7818609E-02  0.1379984E+01
      -11   -1    0    0    0    0  0.00000000000E+00  0.00000000000E+00  0.35740347158E-01  0.35744000000E-01  0.51099999109E-03 0.  1.
       11   -1    0    0    0    0 -0.00000000000E+00 -0.00000000000E+00 -0.35740347158E-01  0.35744000000E-01  0.51099999109E-03 0. -1.
       22    1    1    2    0    0 -0.82276579951E-02 -0.11201954436E-01 -0.11840456620E-01  0.18258547375E-01  0.00000000000E+00 0.  1.
  9000001    1    1    2    0    0  0.82276579951E-02  0.11201954436E-01  0.11840456620E-01  0.53229452625E-01  0.50000000745E-01 0.  1.
</event>
<event>
 4   0  0.6886900E-01  0.9118800E+02  0.7818609E-02  0.1379984E+01
      -11   -1    0    0    0    0  0.00000000000E+00  0.00000000000E+00  0.35740347158E-01  0.35744000000E-01  0.51099999109E-03 0.  1.
       11   -1    0    0    0    0 -0.00000000000E+00 -0.00000000000E+00 -0.35740347158E-01  0.35744000000E-01  0.51099999109E-03 0. -1.
       22    1    1    2    0    0 -0.15773956165E-01  0.73105292325E-02 -0.55779047579E-02  0.18258547375E-01  0.00000000000E+00 0. -1.
  9000001    1    1    2    0    0  0.15773956165E-01 -0.73105292325E-02  0.55779047579E-02  0.53229452625E-01  0.50000000745E-01 0. -1.
</event>
<event>
 4   0  0.6886900E-01  0.9118800E+02  0.7818609E-02  0.1379984E+01
      -11   -1    0    0    0    0  0.00000000000E+00  0.00000000000E+00  0.35740347158E-01  0.35744000000E-01  0.51099999109E-03 0.  1.
       11   -1    0    0    0    0 -0.00000000000E+00 -0.00000000000E+00 -0.35740347158E-01  0.35744000000E-01  0.51099999109E-03 0. -1.
       22    1    1    2    0    0 -0.15547786159E-02 -0.53304244009E-02 -0.17393786000E-01  0.18258547375E-01  0.00000000000E+00 0.  1.
  9000001    1    1    2    0    0  0.15547786159E-02  0.53304244009E-02  0.17393786000E-01  0.53229452625E-01  0.50000000745E-01 0.  1.
</event>
<event>
 4   0  0.6886900E-01  0.9118800E+02  0.7818609E-02  0.1379984E+01
      -11   -1    0    0    0    0  0.00000000000E+00  0.00000000000E+00  0.35740347158E-01  0.35744000000E-01  0.51099999109E-03 0. -1.
       11   -1    0    0    0    0 -0.00000000000E+00 -0.00000000000E+00 -0.35740347158E-01  0.35744000000E-01  0.51099999109E-03 0.  1.
       22    1    1    2    0    0 -0.14433858186E-01  0.92366051921E-02 -0.63026513980E-02  0.18258547375E-01  0.00000000000E+00 0.  1.
  9000001    1    1    2    0    0  0.14433858186E-01 -0.92366051921E-02  0.63026513980E-02  0.53229452625E-01  0.50000000745E-01 0. -1.
</event>
<event>
 4   0  0.6886900E-01  0.9118800E+02  0.7818609E-02  0.1379984E+01
      -11   -1    0    0    0    0  0.00000000000E+00  0.00000000000E+00  0.35740347158E-01  0.35744000000E-01  0.51099999109E-03 0.  1.
       11   -1    0    0    0    0 -0.00000000000E+00 -0.00000000000E+00 -0.35740347158E-01  0.35744000000E-01  0.51099999109E-03 0. -1.
       22    1    1    2    0    0  0.22174986480E-02  0.50860529720E-02  0.17395094629E-01  0.18258547375E-01  0.00000000000E+00 0. -1.
  9000001    1    1    2    0    0 -0.22174986480E-02 -0.50860529720E-02 -0.17395094629E-01  0.53229452625E-01  0.50000000745E-01 0. -1.
</event>
<event>
 4   0  0.6886900E-01  0.9118800E+02  0.7818609E-02  0.1379984E+01
      -11   -1    0    0    0    0  0.00000000000E+00  0.00000000000E+00  0.35740347158E-01  0.35744000000E-01  0.51099999109E-03 0.  1.
       11   -1    0    0    0    0 -0.00000000000E+00 -0.00000000000E+00 -0.35740347158E-01  0.35744000000E-01  0.51099999109E-03 0. -1.
       22    1    1    2    0    0 -0.16084042211E-02 -0.28661274398E-02 -0.17960314630E-01  0.18258547375E-01  0.00000000000E+00 0. -1.
  9000001    1    1    2    0    0  0.16084042211E-02  0.28661274398E-02  0.17960314630E-01  0.53229452625E-01  0.50000000745E-01 0.  1.
</event>
<event>
 4   0  0.6886900E-01  0.9118800E+02  0.7818609E-02  0.1379984E+01
      -11   -1    0    0    0    0  0.00000000000E+00  0.00000000000E+00  0.35740347158E-01  0.35744000000E-01  0.51099999109E-03 0.  1.
       11   -1    0    0    0    0 -0.00000000000E+00 -0.00000000000E+00 -0.35740347158E-01  0.35744000000E-01  0.51099999109E-03 0. -1.
       22    1    1    2    0    0 -0.18121544397E-01  0.21818492339E-02 -0.47298501008E-03  0.18258547375E-01  0.00000000000E+00 0.  1.
  9000001    1    1    2    0    0  0.18121544397E-01 -0.21818492339E-02  0.47298501008E-03  0.53229452625E-01  0.50000000745E-01 0. -1.
</event>
<event>
 4   0  0.6886900E-01  0.9118800E+02  0.7818609E-02  0.1379984E+01
      -11   -1    0    0    0    0  0.00000000000E+00  0.00000000000E+00  0.35740347158E-01  0.35744000000E-01  0.51099999109E-03 0. -1.
       11   -1    0    0    0    0 -0.00000000000E+00 -0.00000000000E+00 -0.35740347158E-01  0.35744000000E-01  0.51099999109E-03 0.  1.
       22    1    1    2    0    0  0.51830764386E-02  0.81971471864E-02  0.15469875529E-01  0.18258547375E-01  0.00000000000E+00 0. -1.
  9000001    1    1    2    0    0 -0.51830764386E-02 -0.81971471864E-02 -0.15469875529E-01  0.53229452625E-01  0.50000000745E-01 0.  0.
</event>
<event>
 4   0  0.6886900E-01  0.9118800E+02  0.7818609E-02  0.1379984E+01
      -11   -1    0    0    0    0  0.00000000000E+00  0.00000000000E+00  0.35740347158E-01  0.35744000000E-01  0.51099999109E-03 0. -1.
       11   -1    0    0    0    0 -0.00000000000E+00 -0.00000000000E+00 -0.35740347158E-01  0.35744000000E-01  0.51099999109E-03 0.  1.
       22    1    1    2    0    0  0.36041242857E-02 -0.43619905758E-02  0.17359662399E-01  0.18258547375E-01  0.00000000000E+00 0. -1.
  9000001    1    1    2    0    0 -0.36041242857E-02  0.43619905758E-02 -0.17359662399E-01  0.53229452625E-01  0.50000000745E-01 0.  1.
</event>
<event>
 4   0  0.6886900E-01  0.9118800E+02  0.7818609E-02  0.1379984E+01
      -11   -1    0    0    0    0  0.00000000000E+00  0.00000000000E+00  0.35740347158E-01  0.35744000000E-01  0.51099999109E-03 0.  1.
       11   -1    0    0    0    0 -0.00000000000E+00 -0.00000000000E+00 -0.35740347158E-01  0.35744000000E-01  0.51099999109E-03 0. -1.
       22    1    1    2    0    0 -0.34240452348E-02 -0.32335922379E-02  0.17640701452E-01  0.18258547375E-01  0.00000000000E+00 0.  1.
  9000001    1    1    2    0    0  0.34240452348E-02  0.32335922379E-02 -0.17640701452E-01  0.53229452625E-01  0.50000000745E-01 0. -1.
</event>
<event>
 4   0  0.6886900E-01  0.9118800E+02  0.7818609E-02  0.1379984E+01
      -11   -1    0    0    0    0  0.00000000000E+00  0.00000000000E+00  0.35740347158E-01  0.35744000000E-01  0.51099999109E-03 0. -1.
       11   -1    0    0    0    0 -0.00000000000E+00 -0.00000000000E+00 -0.35740347158E-01  0.35744000000E-01  0.51099999109E-03 0.  1.
       22    1    1    2    0    0 -0.11561684570E-01  0.11734547401E-02 -0.14082791134E-01  0.18258547375E-01  0.00000000000E+00 0. -1.
  9000001    1    1    2    0    0  0.11561684570E-01 -0.11734547401E-02  0.14082791134E-01  0.53229452625E-01  0.50000000745E-01 0. -1.
</event>
<event>
 4   0  0.6886900E-01  0.9118800E+02  0.7818609E-02  0.1379984E+01
      -11   -1    0    0    0    0  0.00000000000E+00  0.00000000000E+00  0.35740347158E-01  0.35744000000E-01  0.51099999109E-03 0. -1.
       11   -1    0    0    0    0 -0.00000000000E+00 -0.00000000000E+00 -0.35740347158E-01  0.35744000000E-01  0.51099999109E-03 0.  1.
       22    1    1    2    0    0 -0.64782123885E-02 -0.41874569275E-02 -0.16549094265E-01  0.18258547375E-01  0.00000000000E+00 0.  1.
  9000001    1    1    2    0    0  0.64782123885E-02  0.41874569275E-02  0.16549094265E-01  0.53229452625E-01  0.50000000745E-01 0. -1.
</event>
<event>
 4   0  0.6886900E-01  0.9118800E+02  0.7818609E-02  0.1379984E+01
      -11   -1    0    0    0    0  0.00000000000E+00  0.00000000000E+00  0.35740347158E-01  0.35744000000E-01  0.51099999109E-03 0.  1.
       11   -1    0    0    0    0 -0.00000000000E+00 -0.00000000000E+00 -0.35740347158E-01  0.35744000000E-01  0.51099999109E-03 0. -1.
       22    1    1    2    0    0 -0.47279325533E-02  0.33143725205E-02  0.17321551340E-01  0.18258547375E-01  0.00000000000E+00 0. -1.
  9000001    1    1    2    0    0  0.47279325533E-02 -0.33143725205E-02 -0.17321551340E-01  0.53229452625E-01  0.50000000745E-01 0. -1.
</event>
<event>
 4   0  0.6886900E-01  0.9118800E+02  0.7818609E-02  0.1379984E+01
      -11   -1    0    0    0    0  0.00000000000E+00  0.00000000000E+00  0.35740347158E-01  0.35744000000E-01  0.51099999109E-03 0. -1.
       11   -1    0    0    0    0 -0.00000000000E+00 -0.00000000000E+00 -0.35740347158E-01  0.35744000000E-01  0.51099999109E-03 0.  1.
       22    1    1    2    0    0  0.64103162746E-03  0.69274073302E-02  0.16881192445E-01  0.18258547375E-01  0.00000000000E+00 0. -1.
  9000001    1    1    2    0    0 -0.64103162746E-03 -0.69274073302E-02 -0.16881192445E-01  0.53229452625E-01  0.50000000745E-01 0.  1.
</event>
<event>
 4   0  0.6886900E-01  0.9118800E+02  0.7818609E-02  0.1379984E+01
      -11   -1    0    0    0    0  0.00000000000E+00  0.00000000000E+00  0.35740347158E-01  0.35744000000E-01  0.51099999109E-03 0. -1.
       11   -1    0    0    0    0 -0.00000000000E+00 -0.00000000000E+00 -0.35740347158E-01  0.35744000000E-01  0.51099999109E-03 0.  1.
       22    1    1    2    0    0  0.72444316526E-02 -0.22964873254E-02  0.16601774250E-01  0.18258547375E-01  0.00000000000E+00 0. -1.
  9000001    1    1    2    0    0 -0.72444316526E-02  0.22964873254E-02 -0.16601774250E-01  0.53229452625E-01  0.50000000745E-01 0.  1.
</event>
<event>
 4   0  0.6886900E-01  0.9118800E+02  0.7818609E-02  0.1379984E+01
      -11   -1    0    0    0    0  0.00000000000E+00  0.00000000000E+00  0.35740347158E-01  0.35744000000E-01  0.51099999109E-03 0. -1.
       11   -1    0    0    0    0 -0.00000000000E+00 -0.00000000000E+00 -0.35740347158E-01  0.35744000000E-01  0.51099999109E-03 0.  1.
       22    1    1    2    0    0 -0.22219862386E-02  0.17156065240E-01  0.58400988752E-02  0.18258547375E-01  0.00000000000E+00 0.  1.
  9000001    1    1    2    0    0  0.22219862386E-02 -0.17156065240E-01 -0.58400988752E-02  0.53229452625E-01  0.50000000745E-01 0.  0.
</event>
<event>
 4   0  0.6886900E-01  0.9118800E+02  0.7818609E-02  0.1379984E+01
      -11   -1    0    0    0    0  0.00000000000E+00  0.00000000000E+00  0.35740347158E-01  0.35744000000E-01  0.51099999109E-03 0. -1.
       11   -1    0    0    0    0 -0.00000000000E+00 -0.00000000000E+00 -0.35740347158E-01  0.35744000000E-01  0.51099999109E-03 0.  1.
       22    1    1    2    0    0 -0.74571607208E-02  0.10620369065E-01 -0.12844184176E-01  0.18258547375E-01  0.00000000000E+00 0.  1.
  9000001    1    1    2    0    0  0.74571607208E-02 -0.10620369065E-01  0.12844184176E-01  0.53229452625E-01  0.50000000745E-01 0. -1.
</event>
<event>
 4   0  0.6886900E-01  0.9118800E+02  0.7818609E-02  0.1379984E+01
      -11   -1    0    0    0    0  0.00000000000E+00  0.00000000000E+00  0.35740347158E-01  0.35744000000E-01  0.51099999109E-03 0.  1.
       11   -1    0    0    0    0 -0.00000000000E+00 -0.00000000000E+00 -0.35740347158E-01  0.35744000000E-01  0.51099999109E-03 0. -1.
       22    1    1    2    0    0  0.70129471632E-02 -0.16974957432E-02 -0.16772347258E-01  0.18258547375E-01  0.00000000000E+00 0. -1.
  9000001    1    1    2    0    0 -0.70129471632E-02  0.16974957432E-02  0.16772347258E-01  0.53229452625E-01  0.50000000745E-01 0.  1.
</event>
<event>
 4   0  0.6886900E-01  0.9118800E+02  0.7818609E-02  0.1379984E+01
      -11   -1    0    0    0    0  0.00000000000E+00  0.00000000000E+00  0.35740347158E-01  0.35744000000E-01  0.51099999109E-03 0.  1.
       11   -1    0    0    0    0 -0.00000000000E+00 -0.00000000000E+00 -0.35740347158E-01  0.35744000000E-01  0.51099999109E-03 0. -1.
       22    1    1    2    0    0  0.71568508783E-02  0.50170524552E-03 -0.16789947278E-01  0.18258547375E-01  0.00000000000E+00 0. -1.
  9000001    1    1    2    0    0 -0.71568508783E-02 -0.50170524552E-03  0.16789947278E-01  0.53229452625E-01  0.50000000745E-01 0.  1.
</event>
<event>
 4   0  0.6886900E-01  0.9118800E+02  0.7818609E-02  0.1379984E+01
      -11   -1    0    0    0    0  0.00000000000E+00  0.00000000000E+00  0.35740347158E-01  0.35744000000E-01  0.51099999109E-03 0. -1.
       11   -1    0    0    0    0 -0.00000000000E+00 -0.00000000000E+00 -0.35740347158E-01  0.35744000000E-01  0.51099999109E-03 0.  1.
       22    1    1    2    0    0  0.68491066927E-02  0.20491276882E-02 -0.16800754908E-01  0.18258547375E-01  0.00000000000E+00 0.  1.
  9000001    1    1    2    0    0 -0.68491066927E-02 -0.20491276882E-02  0.16800754908E-01  0.53229452625E-01  0.50000000745E-01 0. -1.
</event>
<event>
 4   0  0.6886900E-01  0.9118800E+02  0.7818609E-02  0.1379984E+01
      -11   -1    0    0    0    0  0.00000000000E+00  0.00000000000E+00  0.35740347158E-01  0.35744000000E-01  0.51099999109E-03 0. -1.
       11   -1    0    0    0    0 -0.00000000000E+00 -0.00000000000E+00 -0.35740347158E-01  0.35744000000E-01  0.51099999109E-03 0.  1.
       22    1    1    2    0    0 -0.10781791183E-01 -0.11518453023E-01 -0.91898188835E-02  0.18258547375E-01  0.00000000000E+00 0.  1.
  9000001    1    1    2    0    0  0.10781791183E-01  0.11518453023E-01  0.91898188835E-02  0.53229452625E-01  0.50000000745E-01 0. -1.
</event>
<event>
 4   0  0.6886900E-01  0.9118800E+02  0.7818609E-02  0.1379984E+01
      -11   -1    0    0    0    0  0.00000000000E+00  0.00000000000E+00  0.35740347158E-01  0.35744000000E-01  0.51099999109E-03 0.  1.
       11   -1    0    0    0    0 -0.00000000000E+00 -0.00000000000E+00 -0.35740347158E-01  0.35744000000E-01  0.51099999109E-03 0. -1.
       22    1    1    2    0    0 -0.99577720193E-02 -0.49013316100E-03 -0.15296309952E-01  0.18258547375E-01  0.00000000000E+00 0.  1.
  9000001    1    1    2    0    0  0.99577720193E-02  0.49013316100E-03  0.15296309952E-01  0.53229452625E-01  0.50000000745E-01 0.  1.
</event>
<event>
 4   0  0.6886900E-01  0.9118800E+02  0.7818609E-02  0.1379984E+01
      -11   -1    0    0    0    0  0.00000000000E+00  0.00000000000E+00  0.35740347158E-01  0.35744000000E-01  0.51099999109E-03 0. -1.
       11   -1    0    0    0    0 -0.00000000000E+00 -0.00000000000E+00 -0.35740347158E-01  0.35744000000E-01  0.51099999109E-03 0.  1.
       22    1    1    2    0    0  0.43359029083E-02  0.39626637479E-02  0.17287908903E-01  0.18258547375E-01  0.00000000000E+00 0. -1.
  9000001    1    1    2    0    0 -0.43359029083E-02 -0.39626637479E-02 -0.17287908903E-01  0.53229452625E-01  0.50000000745E-01 0.  1.
</event>
<event>
 4   0  0.6886900E-01  0.9118800E+02  0.7818609E-02  0.1379984E+01
      -11   -1    0    0    0    0  0.00000000000E+00  0.00000000000E+00  0.35740347158E-01  0.35744000000E-01  0.51099999109E-03 0.  1.
       11   -1    0    0    0    0 -0.00000000000E+00 -0.00000000000E+00 -0.35740347158E-01  0.35744000000E-01  0.51099999109E-03 0. -1.
       22    1    1    2    0    0  0.88534382649E-02 -0.30454122119E-02 -0.15675351594E-01  0.18258547375E-01  0.00000000000E+00 0.  1.
  9000001    1    1    2    0    0 -0.88534382649E-02  0.30454122119E-02  0.15675351594E-01  0.53229452625E-01  0.50000000745E-01 0.  1.
</event>
<event>
 4   0  0.6886900E-01  0.9118800E+02  0.7818609E-02  0.1379984E+01
      -11   -1    0    0    0    0  0.00000000000E+00  0.00000000000E+00  0.35740347158E-01  0.35744000000E-01  0.51099999109E-03 0.  1.
       11   -1    0    0    0    0 -0.00000000000E+00 -0.00000000000E+00 -0.35740347158E-01  0.35744000000E-01  0.51099999109E-03 0. -1.
       22    1    1    2    0    0  0.11958576955E-01  0.13656165142E-01  0.19687922855E-02  0.18258547375E-01  0.00000000000E+00 0. -1.
  9000001    1    1    2    0    0 -0.11958576955E-01 -0.13656165142E-01 -0.19687922855E-02  0.53229452625E-01  0.50000000745E-01 0.  0.
</event>
<event>
 4   0  0.6886900E-01  0.9118800E+02  0.7818609E-02  0.1379984E+01
      -11   -1    0    0    0    0  0.00000000000E+00  0.00000000000E+00  0.35740347158E-01  0.35744000000E-01  0.51099999109E-03 0.  1.
       11   -1    0    0    0    0 -0.00000000000E+00 -0.00000000000E+00 -0.35740347158E-01  0.35744000000E-01  0.51099999109E-03 0. -1.
       22    1    1    2    0    0  0.10221892653E-02  0.14325173016E-01 -0.11274710613E-01  0.18258547375E-01  0.00000000000E+00 0.  1.
  9000001    1    1    2    0    0 -0.10221892653E-02 -0.14325173016E-01  0.11274710613E-01  0.53229452625E-01  0.50000000745E-01 0.  1.
</event>
<event>
 4   0  0.6886900E-01  0.9118800E+02  0.7818609E-02  0.1379984E+01
      -11   -1    0    0    0    0  0.00000000000E+00  0.00000000000E+00  0.35740347158E-01  0.35744000000E-01  0.51099999109E-03 0. -1.
       11   -1    0    0    0    0 -0.00000000000E+00 -0.00000000000E+00 -0.35740347158E-01  0.35744000000E-01  0.51099999109E-03 0.  1.
       22    1    1    2    0    0 -0.22259043934E-02  0.21359254582E-02 -0.17996047464E-01  0.18258547375E-01  0.00000000000E+00 0.  1.
  9000001    1    1    2    0    0  0.22259043934E-02 -0.21359254582E-02  0.17996047464E-01  0.53229452625E-01  0.50000000745E-01 0. -1.
</event>
<event>
 4   0  0.6886900E-01  0.9118800E+02  0.7818609E-02  0.1379984E+01
      -11   -1    0    0    0    0  0.00000000000E+00  0.00000000000E+00  0.35740347158E-01  0.35744000000E-01  0.51099999109E-03 0.  1.
       11   -1    0    0    0    0 -0.00000000000E+00 -0.00000000000E+00 -0.35740347158E-01  0.35744000000E-01  0.51099999109E-03 0. -1.
       22    1    1    2    0    0 -0.12602304810E-01 -0.10899713913E-01  0.74667732218E-02  0.18258547375E-01  0.00000000000E+00 0.  1.
  9000001    1    1    2    0    0  0.12602304810E-01  0.10899713913E-01 -0.74667732218E-02  0.53229452625E-01  0.50000000745E-01 0. -1.
</event>
<event>
 4   0  0.6886900E-01  0.9118800E+02  0.7818609E-02  0.1379984E+01
      -11   -1    0    0    0    0  0.00000000000E+00  0.00000000000E+00  0.35740347158E-01  0.35744000000E-01  0.51099999109E-03 0.  1.
       11   -1    0    0    0    0 -0.00000000000E+00 -0.00000000000E+00 -0.35740347158E-01  0.35744000000E-01  0.51099999109E-03 0. -1.
       22    1    1    2    0    0  0.49963841105E-02  0.46072307466E-02  0.16946507691E-01  0.18258547375E-01  0.00000000000E+00 0.  1.
  9000001    1    1    2    0    0 -0.49963841105E-02 -0.46072307466E-02 -0.16946507691E-01  0.53229452625E-01  0.50000000745E-01 0. -1.
</event>
<event>
 4   0  0.6886900E-01  0.9118800E+02  0.7818609E-02  0.1379984E+01
      -11   -1    0    0    0    0  0.00000000000E+00  0.00000000000E+00  0.35740347158E-01  0.35744000000E-01  0.51099999109E-03 0.  1.
       11   -1    0    0    0    0 -0.00000000000E+00 -0.00000000000E+00 -0.35740347158E-01  0.35744000000E-01  0.51099999109E-03 0. -1.
       22    1    1    2    0    0  0.58714542316E-02  0.41632871405E-03  0.17283727834E-01  0.18258547375E-01  0.00000000000E+00 0.  1.
  9000001    1    1    2    0    0 -0.58714542316E-02 -0.41632871405E-03 -0.17283727834E-01  0.53229452625E-01  0.50000000745E-01 0. -1.
</event>
<event>
 4   0  0.6886900E-01  0.9118800E+02  0.7818609E-02  0.1379984E+01
      -11   -1    0    0    0    0  0.00000000000E+00  0.00000000000E+00  0.35740347158E-01  0.35744000000E-01  0.51099999109E-03 0. -1.
       11   -1    0    0    0    0 -0.00000000000E+00 -0.00000000000E+00 -0.35740347158E-01  0.35744000000E-01  0.51099999109E-03 0.  1.
       22    1    1    2    0    0  0.41508211199E-02 -0.32490799271E-03  0.17777504636E-01  0.18258547375E-01  0.00000000000E+00 0. -1.
  9000001    1    1    2    0    0 -0.41508211199E-02  0.32490799271E-03 -0.17777504636E-01  0.53229452625E-01  0.50000000745E-01 0.  1.
</event>
<event>
 4   0  0.6886900E-01  0.9118800E+02  0.7818609E-02  0.1379984E+01
      -11   -1    0    0    0    0  0.00000000000E+00  0.00000000000E+00  0.35740347158E-01  0.35744000000E-01  0.51099999109E-03 0. -1.
       11   -1    0    0    0    0 -0.00000000000E+00 -0.00000000000E+00 -0.35740347158E-01  0.35744000000E-01  0.51099999109E-03 0.  1.
       22    1    1    2    0    0  0.34493022125E-02  0.46055359371E-02 -0.17328182398E-01  0.18258547375E-01  0.00000000000E+00 0. -1.
  9000001    1    1    2    0    0 -0.34493022125E-02 -0.46055359371E-02  0.17328182398E-01  0.53229452625E-01  0.50000000745E-01 0. -1.
</event>
<event>
 4   0  0.6886900E-01  0.9118800E+02  0.7818609E-02  0.1379984E+01
      -11   -1    0    0    0    0  0.00000000000E+00  0.00000000000E+00  0.35740347158E-01  0.35744000000E-01  0.51099999109E-03 0.  1.
       11   -1    0    0    0    0 -0.00000000000E+00 -0.00000000000E+00 -0.35740347158E-01  0.35744000000E-01  0.51099999109E-03 0. -1.
       22    1    1    2    0    0 -0.13779474457E-01 -0.76885946375E-02  0.91861933589E-02  0.18258547375E-01  0.00000000000E+00 0. -1.
  9000001    1    1    2    0    0  0.13779474457E-01  0.76885946375E-02 -0.91861933589E-02  0.53229452625E-01  0.50000000745E-01 0. -1.
</event>
<event>
 4   0  0.6886900E-01  0.9118800E+02  0.7818609E-02  0.1379984E+01
      -11   -1    0    0    0    0  0.00000000000E+00  0.00000000000E+00  0.35740347158E-01  0.35744000000E-01  0.51099999109E-03 0.  1.
       11   -1    0    0    0    0 -0.00000000000E+00 -0.00000000000E+00 -0.35740347158E-01  0.35744000000E-01  0.51099999109E-03 0. -1.
       22    1    1    2    0    0 -0.33641121666E-02 -0.15956067577E-02  0.17874880158E-01  0.18258547375E-01  0.00000000000E+00 0.  1.
  9000001    1    1    2    0    0  0.33641121666E-02  0.15956067577E-02 -0.17874880158E-01  0.53229452625E-01  0.50000000745E-01 0. -1.
</event>
<event>
 4   0  0.6886900E-01  0.9118800E+02  0.7818609E-02  0.1379984E+01
      -11   -1    0    0    0    0  0.00000000000E+00  0.00000000000E+00  0.35740347158E-01  0.35744000000E-01  0.51099999109E-03 0.  1.
       11   -1    0    0    0    0 -0.00000000000E+00 -0.00000000000E+00 -0.35740347158E-01  0.35744000000E-01  0.51099999109E-03 0. -1.
       22    1    1    2    0    0  0.15512328233E-02 -0.17802225364E-01  0.37481997078E-02  0.18258547375E-01  0.00000000000E+00 0.  1.
  9000001    1    1    2    0    0 -0.15512328233E-02  0.17802225364E-01 -0.37481997078E-02  0.53229452625E-01  0.50000000745E-01 0. -1.
</event>
<event>
 4   0  0.6886900E-01  0.9118800E+02  0.7818609E-02  0.1379984E+01
      -11   -1    0    0    0    0  0.00000000000E+00  0.00000000000E+00  0.35740347158E-01  0.35744000000E-01  0.51099999109E-03 0.  1.
       11   -1    0    0    0    0 -0.00000000000E+00 -0.00000000000E+00 -0.35740347158E-01  0.35744000000E-01  0.51099999109E-03 0. -1.
       22    1    1    2    0    0 -0.61966710478E-02 -0.96796031785E-02 -0.14187357135E-01  0.18258547375E-01  0.00000000000E+00 0. -1.
  9000001    1    1    2    0    0  0.61966710478E-02  0.96796031785E-02  0.14187357135E-01  0.53229452625E-01  0.50000000745E-01 0.  1.
</event>
<event>
 4   0  0.6886900E-01  0.9118800E+02  0.7818609E-02  0.1379984E+01
      -11   -1    0    0    0    0  0.00000000000E+00  0.00000000000E+00  0.35740347158E-01  0.35744000000E-01  0.51099999109E-03 0. -1.
       11   -1    0    0    0    0 -0.00000000000E+00 -0.00000000000E+00 -0.35740347158E-01  0.35744000000E-01  0.51099999109E-03 0.  1.
       22    1    1    2    0    0 -0.10211870605E-01 -0.10539627474E-01  0.10863171899E-01  0.18258547375E-01  0.00000000000E+00 0. -1.
  9000001    1    1    2    0    0  0.10211870605E-01  0.10539627474E-01 -0.10863171899E-01  0.53229452625E-01  0.50000000745E-01 0.  1.
</event>
<event>
 4   0  0.6886900E-01  0.9118800E+02  0.7818609E-02  0.1379984E+01
      -11   -1    0    0    0    0  0.00000000000E+00  0.00000000000E+00  0.35740347158E-01  0.35744000000E-01  0.51099999109E-03 0. -1.
       11   -1    0    0    0    0 -0.00000000000E+00 -0.00000000000E+00 -0.35740347158E-01  0.35744000000E-01  0.51099999109E-03 0.  1.
       22    1    1    2    0    0 -0.12446873861E-01 -0.13316205222E-01  0.10623379070E-02  0.18258547375E-01  0.00000000000E+00 0. -1.
  9000001    1    1    2    0    0  0.12446873861E-01  0.13316205222E-01 -0.10623379070E-02  0.53229452625E-01  0.50000000745E-01 0.  1.
</event>
<event>
 4   0  0.6886900E-01  0.9118800E+02  0.7818609E-02  0.1379984E+01
      -11   -1    0    0    0    0  0.00000000000E+00  0.00000000000E+00  0.35740347158E-01  0.35744000000E-01  0.51099999109E-03 0. -1.
       11   -1    0    0    0    0 -0.00000000000E+00 -0.00000000000E+00 -0.35740347158E-01  0.35744000000E-01  0.51099999109E-03 0.  1.
       22    1    1    2    0    0 -0.66729960153E-02 -0.24305403990E-05  0.16995460291E-01  0.18258547375E-01  0.00000000000E+00 0. -1.
  9000001    1    1    2    0    0  0.66729960153E-02  0.24305403990E-05 -0.16995460291E-01  0.53229452625E-01  0.50000000745E-01 0.  1.
</event>
<event>
 4   0  0.6886900E-01  0.9118800E+02  0.7818609E-02  0.1379984E+01
      -11   -1    0    0    0    0  0.00000000000E+00  0.00000000000E+00  0.35740347158E-01  0.35744000000E-01  0.51099999109E-03 0.  1.
       11   -1    0    0    0    0 -0.00000000000E+00 -0.00000000000E+00 -0.35740347158E-01  0.35744000000E-01  0.51099999109E-03 0. -1.
       22    1    1    2    0    0  0.88139782634E-02  0.82644811665E-02  0.13688925833E-01  0.18258547375E-01  0.00000000000E+00 0.  1.
  9000001    1    1    2    0    0 -0.88139782634E-02 -0.82644811665E-02 -0.13688925833E-01  0.53229452625E-01  0.50000000745E-01 0. -1.
</event>
<event>
 4   0  0.6886900E-01  0.9118800E+02  0.7818609E-02  0.1379984E+01
      -11   -1    0    0    0    0  0.00000000000E+00  0.00000000000E+00  0.35740347158E-01  0.35744000000E-01  0.51099999109E-03 0.  1.
       11   -1    0    0    0    0 -0.00000000000E+00 -0.00000000000E+00 -0.35740347158E-01  0.35744000000E-01  0.51099999109E-03 0. -1.
       22    1    1    2    0    0 -0.86276601528E-02 -0.11114135857E-02  0.16053124069E-01  0.18258547375E-01  0.00000000000E+00 0.  1.
  9000001    1    1    2    0    0  0.86276601528E-02  0.11114135857E-02 -0.16053124069E-01  0.53229452625E-01  0.50000000745E-01 0. -1.
</event>
<event>
 4   0  0.6886900E-01  0.9118800E+02  0.7818609E-02  0.1379984E+01
      -11   -1    0    0    0    0  0.00000000000E+00  0.00000000000E+00  0.35740347158E-01  0.35744000000E-01  0.51099999109E-03 0.  1.
       11   -1    0    0    0    0 -0.00000000000E+00 -0.00000000000E+00 -0.35740347158E-01  0.35744000000E-01  0.51099999109E-03 0. -1.
       22    1    1    2    0    0  0.94161116486E-02 -0.13683643107E-01 -0.75808512053E-02  0.18258547375E-01  0.00000000000E+00 0.  1.
  9000001    1    1    2    0    0 -0.94161116486E-02  0.13683643107E-01  0.75808512053E-02  0.53229452625E-01  0.50000000745E-01 0. -1.
</event>
<event>
 4   0  0.6886900E-01  0.9118800E+02  0.7818609E-02  0.1379984E+01
      -11   -1    0    0    0    0  0.00000000000E+00  0.00000000000E+00  0.35740347158E-01  0.35744000000E-01  0.51099999109E-03 0.  1.
       11   -1    0    0    0    0 -0.00000000000E+00 -0.00000000000E+00 -0.35740347158E-01  0.35744000000E-01  0.51099999109E-03 0. -1.
       22    1    1    2    0    0 -0.15513809486E-01 -0.96141637780E-02 -0.51392833151E-03  0.18258547375E-01  0.00000000000E+00 0.  1.
  9000001    1    1    2    0    0  0.15513809486E-01  0.96141637780E-02  0.51392833151E-03  0.53229452625E-01  0.50000000745E-01 0.  0.
</event>
<event>
 4   0  0.6886900E-01  0.9118800E+02  0.7818609E-02  0.1379984E+01
      -11   -1    0    0    0    0  0.00000000000E+00  0.00000000000E+00  0.35740347158E-01  0.35744000000E-01  0.51099999109E-03 0. -1.
       11   -1    0    0    0    0 -0.00000000000E+00 -0.00000000000E+00 -0.35740347158E-01  0.35744000000E-01  0.51099999109E-03 0.  1.
       22    1    1    2    0    0 -0.15221998533E-01 -0.37125299693E-02 -0.93745631445E-02  0.18258547375E-01  0.00000000000E+00 0. -1.
  9000001    1    1    2    0    0  0.15221998533E-01  0.37125299693E-02  0.93745631445E-02  0.53229452625E-01  0.50000000745E-01 0. -1.
</event>
<event>
 4   0  0.6886900E-01  0.9118800E+02  0.7818609E-02  0.1379984E+01
      -11   -1    0    0    0    0  0.00000000000E+00  0.00000000000E+00  0.35740347158E-01  0.35744000000E-01  0.51099999109E-03 0.  1.
       11   -1    0    0    0    0 -0.00000000000E+00 -0.00000000000E+00 -0.35740347158E-01  0.35744000000E-01  0.51099999109E-03 0. -1.
       22    1    1    2    0    0 -0.22889496226E-02  0.67050490847E-02 -0.16827880991E-01  0.18258547375E-01  0.00000000000E+00 0. -1.
  9000001    1    1    2    0    0  0.22889496226E-02 -0.67050490847E-02  0.16827880991E-01  0.53229452625E-01  0.50000000745E-01 0.  1.
</event>
<event>
 4   0  0.6886900E-01  0.9118800E+02  0.7818609E-02  0.1379984E+01
      -11   -1    0    0    0    0  0.00000000000E+00  0.00000000000E+00  0.35740347158E-01  0.35744000000E-01  0.51099999109E-03 0.  1.
       11   -1    0    0    0    0 -0.00000000000E+00 -0.00000000000E+00 -0.35740347158E-01  0.35744000000E-01  0.51099999109E-03 0. -1.
       22    1    1    2    0    0 -0.33122716553E-02  0.14352166808E-02 -0.17898144088E-01  0.18258547375E-01  0.00000000000E+00 0.  1.
  9000001    1    1    2    0    0  0.33122716553E-02 -0.14352166808E-02  0.17898144088E-01  0.53229452625E-01  0.50000000745E-01 0.  1.
</event>
<event>
 4   0  0.6886900E-01  0.9118800E+02  0.7818609E-02  0.1379984E+01
      -11   -1    0    0    0    0  0.00000000000E+00  0.00000000000E+00  0.35740347158E-01  0.35744000000E-01  0.51099999109E-03 0.  1.
       11   -1    0    0    0    0 -0.00000000000E+00 -0.00000000000E+00 -0.35740347158E-01  0.35744000000E-01  0.51099999109E-03 0. -1.
       22    1    1    2    0    0 -0.18219496668E-02 -0.16423911125E-01  0.77659638821E-02  0.18258547375E-01  0.00000000000E+00 0. -1.
  9000001    1    1    2    0    0  0.18219496668E-02  0.16423911125E-01 -0.77659638821E-02  0.53229452625E-01  0.50000000745E-01 0.  1.
</event>
<event>
 4   0  0.6886900E-01  0.9118800E+02  0.7818609E-02  0.1379984E+01
      -11   -1    0    0    0    0  0.00000000000E+00  0.00000000000E+00  0.35740347158E-01  0.35744000000E-01  0.51099999109E-03 0. -1.
       11   -1    0    0    0    0 -0.00000000000E+00 -0.00000000000E+00 -0.35740347158E-01  0.35744000000E-01  0.51099999109E-03 0.  1.
       22    1    1    2    0    0  0.11681831296E-01  0.72999692913E-02  0.11984148621E-01  0.18258547375E-01  0.00000000000E+00 0. -1.
  9000001    1    1    2    0    0 -0.11681831296E-01 -0.72999692913E-02 -0.11984148621E-01  0.53229452625E-01  0.50000000745E-01 0.  1.
</event>
<event>
 4   0  0.6886900E-01  0.9118800E+02  0.7818609E-02  0.1379984E+01
      -11   -1    0    0    0    0  0.00000000000E+00  0.00000000000E+00  0.35740347158E-01  0.35744000000E-01  0.51099999109E-03 0.  1.
       11   -1    0    0    0    0 -0.00000000000E+00 -0.00000000000E+00 -0.35740347158E-01  0.35744000000E-01  0.51099999109E-03 0. -1.
       22    1    1    2    0    0  0.38198725672E-02  0.17482467284E-01 -0.36258052202E-02  0.18258547375E-01  0.00000000000E+00 0. -1.
  9000001    1    1    2    0    0 -0.38198725672E-02 -0.17482467284E-01  0.36258052202E-02  0.53229452625E-01  0.50000000745E-01 0.  1.
</event>
<event>
 4   0  0.6886900E-01  0.9118800E+02  0.7818609E-02  0.1379984E+01
      -11   -1    0    0    0    0  0.00000000000E+00  0.00000000000E+00  0.35740347158E-01  0.35744000000E-01  0.51099999109E-03 0. -1.
       11   -1    0    0    0    0 -0.00000000000E+00 -0.00000000000E+00 -0.35740347158E-01  0.35744000000E-01  0.51099999109E-03 0.  1.
       22    1    1    2    0    0 -0.58829636413E-02 -0.53953982018E-02  0.16421174419E-01  0.18258547375E-01  0.00000000000E+00 0.  1.
  9000001    1    1    2    0    0  0.58829636413E-02  0.53953982018E-02 -0.16421174419E-01  0.53229452625E-01  0.50000000745E-01 0.  1.
</event>
<event>
 4   0  0.6886900E-01  0.9118800E+02  0.7818609E-02  0.1379984E+01
      -11   -1    0    0    0    0  0.00000000000E+00  0.00000000000E+00  0.35740347158E-01  0.35744000000E-01  0.51099999109E-03 0.  1.
       11   -1    0    0    0    0 -0.00000000000E+00 -0.00000000000E+00 -0.35740347158E-01  0.35744000000E-01  0.51099999109E-03 0. -1.
       22    1    1    2    0    0 -0.54573016661E-02  0.66696424663E-02 -0.16096840688E-01  0.18258547375E-01  0.00000000000E+00 0. -1.
  9000001    1    1    2    0    0  0.54573016661E-02 -0.66696424663E-02  0.16096840688E-01  0.53229452625E-01  0.50000000745E-01 0.  1.
</event>
<event>
 4   0  0.6886900E-01  0.9118800E+02  0.7818609E-02  0.1379984E+01
      -11   -1    0    0    0    0  0.00000000000E+00  0.00000000000E+00  0.35740347158E-01  0.35744000000E-01  0.51099999109E-03 0. -1.
       11   -1    0    0    0    0 -0.00000000000E+00 -0.00000000000E+00 -0.35740347158E-01  0.35744000000E-01  0.51099999109E-03 0.  1.
       22    1    1    2    0    0  0.23699511731E-02  0.45850073456E-02  0.17513868543E-01  0.18258547375E-01  0.00000000000E+00 0. -1.
  9000001    1    1    2    0    0 -0.23699511731E-02 -0.45850073456E-02 -0.17513868543E-01  0.53229452625E-01  0.50000000745E-01 0.  1.
</event>
<event>
 4   0  0.6886900E-01  0.9118800E+02  0.7818609E-02  0.1379984E+01
      -11   -1    0    0    0    0  0.00000000000E+00  0.00000000000E+00  0.35740347158E-01  0.35744000000E-01  0.51099999109E-03 0.  1.
       11   -1    0    0    0    0 -0.00000000000E+00 -0.00000000000E+00 -0.35740347158E-01  0.35744000000E-01  0.51099999109E-03 0. -1.
       22    1    1    2    0    0 -0.84334830777E-02 -0.22050481198E-02 -0.16043337502E-01  0.18258547375E-01  0.00000000000E+00 0. -1.
  9000001    1    1    2    0    0  0.84334830777E-02  0.22050481198E-02  0.16043337502E-01  0.53229452625E-01  0.50000000745E-01 0.  1.
</event>
<event>
 4   0  0.6886900E-01  0.9118800E+02  0.7818609E-02  0.1379984E+01
      -11   -1    0    0    0    0  0.00000000000E+00  0.00000000000E+00  0.35740347158E-01  0.35744000000E-01  0.51099999109E-03 0.  1.
       11   -1    0    0    0    0 -0.00000000000E+00 -0.00000000000E+00 -0.35740347158E-01  0.35744000000E-01  0.51099999109E-03 0. -1.
       22    1    1    2    0    0 -0.77276652195E-02 -0.64257948005E-02 -0.15243585657E-01  0.18258547375E-01  0.00000000000E+00 0. -1.
  9000001    1    1    2    0    0  0.77276652195E-02  0.64257948005E-02  0.15243585657E-01  0.53229452625E-01  0.50000000745E-01 0.  1.
</event>
<event>
 4   0  0.6886900E-01  0.9118800E+02  0.7818609E-02  0.1379984E+01
      -11   -1    0    0    0    0  0.00000000000E+00  0.00000000000E+00  0.35740347158E-01  0.35744000000E-01  0.51099999109E-03 0.  1.
       11   -1    0    0    0    0 -0.00000000000E+00 -0.00000000000E+00 -0.35740347158E-01  0.35744000000E-01  0.51099999109E-03 0. -1.
       22    1    1    2    0    0  0.76614706641E-02  0.57374371986E-02 -0.15548576588E-01  0.18258547375E-01  0.00000000000E+00 0. -1.
  9000001    1    1    2    0    0 -0.76614706641E-02 -0.57374371986E-02  0.15548576588E-01  0.53229452625E-01  0.50000000745E-01 0.  1.
</event>
<event>
 4   0  0.6886900E-01  0.9118800E+02  0.7818609E-02  0.1379984E+01
      -11   -1    0    0    0    0  0.00000000000E+00  0.00000000000E+00  0.35740347158E-01  0.35744000000E-01  0.51099999109E-03 0. -1.
       11   -1    0    0    0    0 -0.00000000000E+00 -0.00000000000E+00 -0.35740347158E-01  0.35744000000E-01  0.51099999109E-03 0.  1.
       22    1    1    2    0    0 -0.29458477494E-02  0.26235972405E-02  0.17827318105E-01  0.18258547375E-01  0.00000000000E+00 0. -1.
  9000001    1    1    2    0    0  0.29458477494E-02 -0.26235972405E-02 -0.17827318105E-01  0.53229452625E-01  0.50000000745E-01 0.  1.
</event>
<event>
 4   0  0.6886900E-01  0.9118800E+02  0.7818609E-02  0.1379984E+01
      -11   -1    0    0    0    0  0.00000000000E+00  0.00000000000E+00  0.35740347158E-01  0.35744000000E-01  0.51099999109E-03 0.  1.
       11   -1    0    0    0    0 -0.00000000000E+00 -0.00000000000E+00 -0.35740347158E-01  0.35744000000E-01  0.51099999109E-03 0. -1.
       22    1    1    2    0    0  0.29134817701E-02  0.32510986254E-02 -0.17728974419E-01  0.18258547375E-01  0.00000000000E+00 0. -1.
  9000001    1    1    2    0    0 -0.29134817701E-02 -0.32510986254E-02  0.17728974419E-01  0.53229452625E-01  0.50000000745E-01 0.  1.
</event>
<event>
 4   0  0.6886900E-01  0.9118800E+02  0.7818609E-02  0.1379984E+01
      -11   -1    0    0    0    0  0.00000000000E+00  0.00000000000E+00  0.35740347158E-01  0.35744000000E-01  0.51099999109E-03 0. -1.
       11   -1    0    0    0    0 -0.00000000000E+00 -0.00000000000E+00 -0.35740347158E-01  0.35744000000E-01  0.51099999109E-03 0.  1.
       22    1    1    2    0    0 -0.23816139241E-02  0.36306349263E-02 -0.17734738718E-01  0.18258547375E-01  0.00000000000E+00 0.  1.
  9000001    1    1    2    0    0  0.23816139241E-02 -0.36306349263E-02  0.17734738718E-01  0.53229452625E-01  0.50000000745E-01 0. -1.
</event>
<event>
 4   0  0.6886900E-01  0.9118800E+02  0.7818609E-02  0.1379984E+01
      -11   -1    0    0    0    0  0.00000000000E+00  0.00000000000E+00  0.35740347158E-01  0.35744000000E-01  0.51099999109E-03 0. -1.
       11   -1    0    0    0    0 -0.00000000000E+00 -0.00000000000E+00 -0.35740347158E-01  0.35744000000E-01  0.51099999109E-03 0.  1.
       22    1    1    2    0    0  0.99612857431E-02 -0.74563149428E-02  0.13362286708E-01  0.18258547375E-01  0.00000000000E+00 0. -1.
  9000001    1    1    2    0    0 -0.99612857431E-02  0.74563149428E-02 -0.13362286708E-01  0.53229452625E-01  0.50000000745E-01 0.  1.
</event>
<event>
 4   0  0.6886900E-01  0.9118800E+02  0.7818609E-02  0.1379984E+01
      -11   -1    0    0    0    0  0.00000000000E+00  0.00000000000E+00  0.35740347158E-01  0.35744000000E-01  0.51099999109E-03 0.  1.
       11   -1    0    0    0    0 -0.00000000000E+00 -0.00000000000E+00 -0.35740347158E-01  0.35744000000E-01  0.51099999109E-03 0. -1.
       22    1    1    2    0    0 -0.19422857553E-03  0.15717550359E-01 -0.92895338007E-02  0.18258547375E-01  0.00000000000E+00 0. -1.
  9000001    1    1    2    0    0  0.19422857553E-03 -0.15717550359E-01  0.92895338007E-02  0.53229452625E-01  0.50000000745E-01 0.  1.
</event>
<event>
 4   0  0.6886900E-01  0.9118800E+02  0.7818609E-02  0.1379984E+01
      -11   -1    0    0    0    0  0.00000000000E+00  0.00000000000E+00  0.35740347158E-01  0.35744000000E-01  0.51099999109E-03 0. -1.
       11   -1    0    0    0    0 -0.00000000000E+00 -0.00000000000E+00 -0.35740347158E-01  0.35744000000E-01  0.51099999109E-03 0.  1.
       22    1    1    2    0    0 -0.89082734263E-03 -0.14683100733E-01  0.10816077467E-01  0.18258547375E-01  0.00000000000E+00 0. -1.
  9000001    1    1    2    0    0  0.89082734263E-03  0.14683100733E-01 -0.10816077467E-01  0.53229452625E-01  0.50000000745E-01 0.  1.
</event>
<event>
 4   0  0.6886900E-01  0.9118800E+02  0.7818609E-02  0.1379984E+01
      -11   -1    0    0    0    0  0.00000000000E+00  0.00000000000E+00  0.35740347158E-01  0.35744000000E-01  0.51099999109E-03 0.  1.
       11   -1    0    0    0    0 -0.00000000000E+00 -0.00000000000E+00 -0.35740347158E-01  0.35744000000E-01  0.51099999109E-03 0. -1.
       22    1    1    2    0    0 -0.66487213524E-02  0.36611935487E-02 -0.16606165073E-01  0.18258547375E-01  0.00000000000E+00 0. -1.
  9000001    1    1    2    0    0  0.66487213524E-02 -0.36611935487E-02  0.16606165073E-01  0.53229452625E-01  0.50000000745E-01 0.  1.
</event>
<event>
 4   0  0.6886900E-01  0.9118800E+02  0.7818609E-02  0.1379984E+01
      -11   -1    0    0    0    0  0.00000000000E+00  0.00000000000E+00  0.35740347158E-01  0.35744000000E-01  0.51099999109E-03 0.  1.
       11   -1    0    0    0    0 -0.00000000000E+00 -0.00000000000E+00 -0.35740347158E-01  0.35744000000E-01  0.51099999109E-03 0. -1.
       22    1    1    2    0    0 -0.13270643780E-01 -0.10394558278E-01 -0.70155344852E-02  0.18258547375E-01  0.00000000000E+00 0.  1.
  9000001    1    1    2    0    0  0.13270643780E-01  0.10394558278E-01  0.70155344852E-02  0.53229452625E-01  0.50000000745E-01 0. -1.
</event>
<event>
 4   0  0.6886900E-01  0.9118800E+02  0.7818609E-02  0.1379984E+01
      -11   -1    0    0    0    0  0.00000000000E+00  0.00000000000E+00  0.35740347158E-01  0.35744000000E-01  0.51099999109E-03 0.  1.
       11   -1    0    0    0    0 -0.00000000000E+00 -0.00000000000E+00 -0.35740347158E-01  0.35744000000E-01  0.51099999109E-03 0. -1.
       22    1    1    2    0    0 -0.17626310416E-02  0.32009650708E-02  0.17889144940E-01  0.18258547375E-01  0.00000000000E+00 0. -1.
  9000001    1    1    2    0    0  0.17626310416E-02 -0.32009650708E-02 -0.17889144940E-01  0.53229452625E-01  0.50000000745E-01 0. -1.
</event>
<event>
 4   0  0.6886900E-01  0.9118800E+02  0.7818609E-02  0.1379984E+01
      -11   -1    0    0    0    0  0.00000000000E+00  0.00000000000E+00  0.35740347158E-01  0.35744000000E-01  0.51099999109E-03 0.  1.
       11   -1    0    0    0    0 -0.00000000000E+00 -0.00000000000E+00 -0.35740347158E-01  0.35744000000E-01  0.51099999109E-03 0. -1.
       22    1    1    2    0    0  0.59488714676E-02  0.15864748430E-01  0.68040603886E-02  0.18258547375E-01  0.00000000000E+00 0.  1.
  9000001    1    1    2    0    0 -0.59488714676E-02 -0.15864748430E-01 -0.68040603886E-02  0.53229452625E-01  0.50000000745E-01 0. -1.
</event>
<event>
 4   0  0.6886900E-01  0.9118800E+02  0.7818609E-02  0.1379984E+01
      -11   -1    0    0    0    0  0.00000000000E+00  0.00000000000E+00  0.35740347158E-01  0.35744000000E-01  0.51099999109E-03 0. -1.
       11   -1    0    0    0    0 -0.00000000000E+00 -0.00000000000E+00 -0.35740347158E-01  0.35744000000E-01  0.51099999109E-03 0.  1.
       22    1    1    2    0    0  0.38932483786E-02  0.14242992976E-02 -0.17781691169E-01  0.18258547375E-01  0.00000000000E+00 0. -1.
  9000001    1    1    2    0    0 -0.38932483786E-02 -0.14242992976E-02  0.17781691169E-01  0.53229452625E-01  0.50000000745E-01 0. -1.
</event>
<event>
 4   0  0.6886900E-01  0.9118800E+02  0.7818609E-02  0.1379984E+01
      -11   -1    0    0    0    0  0.00000000000E+00  0.00000000000E+00  0.35740347158E-01  0.35744000000E-01  0.51099999109E-03 0. -1.
       11   -1    0    0    0    0 -0.00000000000E+00 -0.00000000000E+00 -0.35740347158E-01  0.35744000000E-01  0.51099999109E-03 0.  1.
       22    1    1    2    0    0 -0.32421917214E-02 -0.29608690216E-02  0.17722753729E-01  0.18258547375E-01  0.00000000000E+00 0. -1.
  9000001    1    1    2    0    0  0.32421917214E-02  0.29608690216E-02 -0.17722753729E-01  0.53229452625E-01  0.50000000745E-01 0.  1.
</event>
<event>
 4   0  0.6886900E-01  0.9118800E+02  0.7818609E-02  0.1379984E+01
      -11   -1    0    0    0    0  0.00000000000E+00  0.00000000000E+00  0.35740347158E-01  0.35744000000E-01  0.51099999109E-03 0.  1.
       11   -1    0    0    0    0 -0.00000000000E+00 -0.00000000000E+00 -0.35740347158E-01  0.35744000000E-01  0.51099999109E-03 0. -1.
       22    1    1    2    0    0 -0.42782338532E-02 -0.99465717620E-03  0.17722356628E-01  0.18258547375E-01  0.00000000000E+00 0.  1.
  9000001    1    1    2    0    0  0.42782338532E-02  0.99465717620E-03 -0.17722356628E-01  0.53229452625E-01  0.50000000745E-01 0. -1.
</event>
<event>
 4   0  0.6886900E-01  0.9118800E+02  0.7818609E-02  0.1379984E+01
      -11   -1    0    0    0    0  0.00000000000E+00  0.00000000000E+00  0.35740347158E-01  0.35744000000E-01  0.51099999109E-03 0. -1.
       11   -1    0    0    0    0 -0.00000000000E+00 -0.00000000000E+00 -0.35740347158E-01  0.35744000000E-01  0.51099999109E-03 0.  1.
       22    1    1    2    0    0  0.57666426691E-02 -0.10678347017E-02 -0.17291041427E-01  0.18258547375E-01  0.00000000000E+00 0.  1.
  9000001    1    1    2    0    0 -0.57666426691E-02  0.10678347017E-02  0.17291041427E-01  0.53229452625E-01  0.50000000745E-01 0. -1.
</event>
<event>
 4   0  0.6886900E-01  0.9118800E+02  0.7818609E-02  0.1379984E+01
      -11   -1    0    0    0    0  0.00000000000E+00  0.00000000000E+00  0.35740347158E-01  0.35744000000E-01  0.51099999109E-03 0. -1.
       11   -1    0    0    0    0 -0.00000000000E+00 -0.00000000000E+00 -0.35740347158E-01  0.35744000000E-01  0.51099999109E-03 0.  1.
       22    1    1    2    0    0  0.29268335738E-02  0.62769483597E-02  0.16894026067E-01  0.18258547375E-01  0.00000000000E+00 0. -1.
  9000001    1    1    2    0    0 -0.29268335738E-02 -0.62769483597E-02 -0.16894026067E-01  0.53229452625E-01  0.50000000745E-01 0.  1.
</event>
<event>
 4   0  0.6886900E-01  0.9118800E+02  0.7818609E-02  0.1379984E+01
      -11   -1    0    0    0    0  0.00000000000E+00  0.00000000000E+00  0.35740347158E-01  0.35744000000E-01  0.51099999109E-03 0. -1.
       11   -1    0    0    0    0 -0.00000000000E+00 -0.00000000000E+00 -0.35740347158E-01  0.35744000000E-01  0.51099999109E-03 0.  1.
       22    1    1    2    0    0  0.10155090373E-02 -0.65735545825E-02 -0.17003872318E-01  0.18258547375E-01  0.00000000000E+00 0. -1.
  9000001    1    1    2    0    0 -0.10155090373E-02  0.65735545825E-02  0.17003872318E-01  0.53229452625E-01  0.50000000745E-01 0.  0.
</event>
<event>
 4   0  0.6886900E-01  0.9118800E+02  0.7818609E-02  0.1379984E+01
      -11   -1    0    0    0    0  0.00000000000E+00  0.00000000000E+00  0.35740347158E-01  0.35744000000E-01  0.51099999109E-03 0.  1.
       11   -1    0    0    0    0 -0.00000000000E+00 -0.00000000000E+00 -0.35740347158E-01  0.35744000000E-01  0.51099999109E-03 0. -1.
       22    1    1    2    0    0  0.27697548731E-02 -0.15612952267E-02 -0.17979581959E-01  0.18258547375E-01  0.00000000000E+00 0. -1.
  9000001    1    1    2    0    0 -0.27697548731E-02  0.15612952267E-02  0.17979581959E-01  0.53229452625E-01  0.50000000745E-01 0.  1.
</event>
<event>
 4   0  0.6886900E-01  0.9118800E+02  0.7818609E-02  0.1379984E+01
      -11   -1    0    0    0    0  0.00000000000E+00  0.00000000000E+00  0.35740347158E-01  0.35744000000E-01  0.51099999109E-03 0.  1.
       11   -1    0    0    0    0 -0.00000000000E+00 -0.00000000000E+00 -0.35740347158E-01  0.35744000000E-01  0.51099999109E-03 0. -1.
       22    1    1    2    0    0 -0.12813057174E-01  0.67598170223E-03  0.12990118046E-01  0.18258547375E-01  0.00000000000E+00 0.  1.
  9000001    1    1    2    0    0  0.12813057174E-01 -0.67598170223E-03 -0.12990118046E-01  0.53229452625E-01  0.50000000745E-01 0. -1.
</event>
<event>
 4   0  0.6886900E-01  0.9118800E+02  0.7818609E-02  0.1379984E+01
      -11   -1    0    0    0    0  0.00000000000E+00  0.00000000000E+00  0.35740347158E-01  0.35744000000E-01  0.51099999109E-03 0. -1.
       11   -1    0    0    0    0 -0.00000000000E+00 -0.00000000000E+00 -0.35740347158E-01  0.35744000000E-01  0.51099999109E-03 0.  1.
       22    1    1    2    0    0  0.33067938882E-02 -0.14273128805E-01  0.10895754243E-01  0.18258547375E-01  0.00000000000E+00 0. -1.
  9000001    1    1    2    0    0 -0.33067938882E-02  0.14273128805E-01 -0.10895754243E-01  0.53229452625E-01  0.50000000745E-01 0.  1.
</event>
<event>
 4   0  0.6886900E-01  0.9118800E+02  0.7818609E-02  0.1379984E+01
      -11   -1    0    0    0    0  0.00000000000E+00  0.00000000000E+00  0.35740347158E-01  0.35744000000E-01  0.51099999109E-03 0. -1.
       11   -1    0    0    0    0 -0.00000000000E+00 -0.00000000000E+00 -0.35740347158E-01  0.35744000000E-01  0.51099999109E-03 0.  1.
       22    1    1    2    0    0  0.11869066648E-02  0.52119845081E-02 -0.17458551552E-01  0.18258547375E-01  0.00000000000E+00 0.  1.
  9000001    1    1    2    0    0 -0.11869066648E-02 -0.52119845081E-02  0.17458551552E-01  0.53229452625E-01  0.50000000745E-01 0. -1.
</event>
<event>
 4   0  0.6886900E-01  0.9118800E+02  0.7818609E-02  0.1379984E+01
      -11   -1    0    0    0    0  0.00000000000E+00  0.00000000000E+00  0.35740347158E-01  0.35744000000E-01  0.51099999109E-03 0.  1.
       11   -1    0    0    0    0 -0.00000000000E+00 -0.00000000000E+00 -0.35740347158E-01  0.35744000000E-01  0.51099999109E-03 0. -1.
       22    1    1    2    0    0 -0.81524776422E-03  0.81860706657E-02  0.16300250623E-01  0.18258547375E-01  0.00000000000E+00 0.  1.
  9000001    1    1    2    0    0  0.81524776422E-03 -0.81860706657E-02 -0.16300250623E-01  0.53229452625E-01  0.50000000745E-01 0. -1.
</event>
<event>
 4   0  0.6886900E-01  0.9118800E+02  0.7818609E-02  0.1379984E+01
      -11   -1    0    0    0    0  0.00000000000E+00  0.00000000000E+00  0.35740347158E-01  0.35744000000E-01  0.51099999109E-03 0. -1.
       11   -1    0    0    0    0 -0.00000000000E+00 -0.00000000000E+00 -0.35740347158E-01  0.35744000000E-01  0.51099999109E-03 0.  1.
       22    1    1    2    0    0 -0.14154984642E-01  0.45811823654E-03  0.11523935513E-01  0.18258547375E-01  0.00000000000E+00 0. -1.
  9000001    1    1    2    0    0  0.14154984642E-01 -0.45811823654E-03 -0.11523935513E-01  0.53229452625E-01  0.50000000745E-01 0.  1.
</event>
<event>
 4   0  0.6886900E-01  0.9118800E+02  0.7818609E-02  0.1379984E+01
      -11   -1    0    0    0    0  0.00000000000E+00  0.00000000000E+00  0.35740347158E-01  0.35744000000E-01  0.51099999109E-03 0. -1.
       11   -1    0    0    0    0 -0.00000000000E+00 -0.00000000000E+00 -0.35740347158E-01  0.35744000000E-01  0.51099999109E-03 0.  1.
       22    1    1    2    0    0  0.11642471052E-01  0.49788416388E-02 -0.13154412035E-01  0.18258547375E-01  0.00000000000E+00 0.  1.
  9000001    1    1    2    0    0 -0.11642471052E-01 -0.49788416388E-02  0.13154412035E-01  0.53229452625E-01  0.50000000745E-01 0. -1.
</event>
<event>
 4   0  0.6886900E-01  0.9118800E+02  0.7818609E-02  0.1379984E+01
      -11   -1    0    0    0    0  0.00000000000E+00  0.00000000000E+00  0.35740347158E-01  0.35744000000E-01  0.51099999109E-03 0.  1.
       11   -1    0    0    0    0 -0.00000000000E+00 -0.00000000000E+00 -0.35740347158E-01  0.35744000000E-01  0.51099999109E-03 0. -1.
       22    1    1    2    0    0  0.17239028626E-02 -0.16738841133E-01  0.70861772966E-02  0.18258547375E-01  0.00000000000E+00 0.  1.
  9000001    1    1    2    0    0 -0.17239028626E-02  0.16738841133E-01 -0.70861772966E-02  0.53229452625E-01  0.50000000745E-01 0. -1.
</event>
<event>
 4   0  0.6886900E-01  0.9118800E+02  0.7818609E-02  0.1379984E+01
      -11   -1    0    0    0    0  0.00000000000E+00  0.00000000000E+00  0.35740347158E-01  0.35744000000E-01  0.51099999109E-03 0. -1.
       11   -1    0    0    0    0 -0.00000000000E+00 -0.00000000000E+00 -0.35740347158E-01  0.35744000000E-01  0.51099999109E-03 0.  1.
       22    1    1    2    0    0  0.60016825678E-02  0.15543513464E-01 -0.74668298355E-02  0.18258547375E-01  0.00000000000E+00 0.  1.
  9000001    1    1    2    0    0 -0.60016825678E-02 -0.15543513464E-01  0.74668298355E-02  0.53229452625E-01  0.50000000745E-01 0. -1.
</event>
<event>
 4   0  0.6886900E-01  0.9118800E+02  0.7818609E-02  0.1379984E+01
      -11   -1    0    0    0    0  0.00000000000E+00  0.00000000000E+00  0.35740347158E-01  0.35744000000E-01  0.51099999109E-03 0.  1.
       11   -1    0    0    0    0 -0.00000000000E+00 -0.00000000000E+00 -0.35740347158E-01  0.35744000000E-01  0.51099999109E-03 0. -1.
       22    1    1    2    0    0 -0.36119001369E-02 -0.11889871266E-02  0.17858192497E-01  0.18258547375E-01  0.00000000000E+00 0.  1.
  9000001    1    1    2    0    0  0.36119001369E-02  0.11889871266E-02 -0.17858192497E-01  0.53229452625E-01  0.50000000745E-01 0. -1.
</event>
<event>
 4   0  0.6886900E-01  0.9118800E+02  0.7818609E-02  0.1379984E+01
      -11   -1    0    0    0    0  0.00000000000E+00  0.00000000000E+00  0.35740347158E-01  0.35744000000E-01  0.51099999109E-03 0.  1.
       11   -1    0    0    0    0 -0.00000000000E+00 -0.00000000000E+00 -0.35740347158E-01  0.35744000000E-01  0.51099999109E-03 0. -1.
       22    1    1    2    0    0  0.72478260017E-02 -0.30528200483E-02  0.16477981073E-01  0.18258547375E-01  0.00000000000E+00 0.  1.
  9000001    1    1    2    0    0 -0.72478260017E-02  0.30528200483E-02 -0.16477981073E-01  0.53229452625E-01  0.50000000745E-01 0. -1.
</event>
<event>
 4   0  0.6886900E-01  0.9118800E+02  0.7818609E-02  0.1379984E+01
      -11   -1    0    0    0    0  0.00000000000E+00  0.00000000000E+00  0.35740347158E-01  0.35744000000E-01  0.51099999109E-03 0. -1.
       11   -1    0    0    0    0 -0.00000000000E+00 -0.00000000000E+00 -0.35740347158E-01  0.35744000000E-01  0.51099999109E-03 0.  1.
       22    1    1    2    0    0  0.95280002218E-03  0.30424929536E-02  0.17978041078E-01  0.18258547375E-01  0.00000000000E+00 0. -1.
  9000001    1    1    2    0    0 -0.95280002218E-03 -0.30424929536E-02 -0.17978041078E-01  0.53229452625E-01  0.50000000745E-01 0.  1.
</event>
<event>
 4   0  0.6886900E-01  0.9118800E+02  0.7818609E-02  0.1379984E+01
      -11   -1    0    0    0    0  0.00000000000E+00  0.00000000000E+00  0.35740347158E-01  0.35744000000E-01  0.51099999109E-03 0. -1.
       11   -1    0    0    0    0 -0.00000000000E+00 -0.00000000000E+00 -0.35740347158E-01  0.35744000000E-01  0.51099999109E-03 0.  1.
       22    1    1    2    0    0  0.66214129696E-02 -0.22539403577E-02  0.16865680994E-01  0.18258547375E-01  0.00000000000E+00 0. -1.
  9000001    1    1    2    0    0 -0.66214129696E-02  0.22539403577E-02 -0.16865680994E-01  0.53229452625E-01  0.50000000745E-01 0.  1.
</event>
<event>
 4   0  0.6886900E-01  0.9118800E+02  0.7818609E-02  0.1379984E+01
      -11   -1    0    0    0    0  0.00000000000E+00  0.00000000000E+00  0.35740347158E-01  0.35744000000E-01  0.51099999109E-03 0.  1.
       11   -1    0    0    0    0 -0.00000000000E+00 -0.00000000000E+00 -0.35740347158E-01  0.35744000000E-01  0.51099999109E-03 0. -1.
       22    1    1    2    0    0  0.11491623762E-01 -0.43746081809E-02  0.13497404892E-01  0.18258547375E-01  0.00000000000E+00 0.  1.
  9000001    1    1    2    0    0 -0.11491623762E-01  0.43746081809E-02 -0.13497404892E-01  0.53229452625E-01  0.50000000745E-01 0. -1.
</event>
<event>
 4   0  0.6886900E-01  0.9118800E+02  0.7818609E-02  0.1379984E+01
      -11   -1    0    0    0    0  0.00000000000E+00  0.00000000000E+00  0.35740347158E-01  0.35744000000E-01  0.51099999109E-03 0.  1.
       11   -1    0    0    0    0 -0.00000000000E+00 -0.00000000000E+00 -0.35740347158E-01  0.35744000000E-01  0.51099999109E-03 0. -1.
       22    1    1    2    0    0 -0.27791012430E-02 -0.14945386943E-02  0.17983812238E-01  0.18258547375E-01  0.00000000000E+00 0.  1.
  9000001    1    1    2    0    0  0.27791012430E-02  0.14945386943E-02 -0.17983812238E-01  0.53229452625E-01  0.50000000745E-01 0.  0.
</event>
<event>
 4   0  0.6886900E-01  0.9118800E+02  0.7818609E-02  0.1379984E+01
      -11   -1    0    0    0    0  0.00000000000E+00  0.00000000000E+00  0.35740347158E-01  0.35744000000E-01  0.51099999109E-03 0. -1.
       11   -1    0    0    0    0 -0.00000000000E+00 -0.00000000000E+00 -0.35740347158E-01  0.35744000000E-01  0.51099999109E-03 0.  1.
       22    1    1    2    0    0  0.14173600454E-03  0.84865211074E-02 -0.16165810300E-01  0.18258547375E-01  0.00000000000E+00 0.  1.
  9000001    1    1    2    0    0 -0.14173600454E-03 -0.84865211074E-02  0.16165810300E-01  0.53229452625E-01  0.50000000745E-01 0. -1.
</event>
<event>
 4   0  0.6886900E-01  0.9118800E+02  0.7818609E-02  0.1379984E+01
      -11   -1    0    0    0    0  0.00000000000E+00  0.00000000000E+00  0.35740347158E-01  0.35744000000E-01  0.51099999109E-03 0.  1.
       11   -1    0    0    0    0 -0.00000000000E+00 -0.00000000000E+00 -0.35740347158E-01  0.35744000000E-01  0.51099999109E-03 0. -1.
       22    1    1    2    0    0  0.57247717015E-02  0.85212329360E-02  0.15099342054E-01  0.18258547375E-01  0.00000000000E+00 0.  1.
  9000001    1    1    2    0    0 -0.57247717015E-02 -0.85212329360E-02 -0.15099342054E-01  0.53229452625E-01  0.50000000745E-01 0.  0.
</event>
<event>
 4   0  0.6886900E-01  0.9118800E+02  0.7818609E-02  0.1379984E+01
      -11   -1    0    0    0    0  0.00000000000E+00  0.00000000000E+00  0.35740347158E-01  0.35744000000E-01  0.51099999109E-03 0.  1.
       11   -1    0    0    0    0 -0.00000000000E+00 -0.00000000000E+00 -0.35740347158E-01  0.35744000000E-01  0.51099999109E-03 0. -1.
       22    1    1    2    0    0  0.55099165005E-02  0.36413054816E-02  0.17022228608E-01  0.18258547375E-01  0.00000000000E+00 0.  1.
  9000001    1    1    2    0    0 -0.55099165005E-02 -0.36413054816E-02 -0.17022228608E-01  0.53229452625E-01  0.50000000745E-01 0. -1.
</event>
<event>
 4   0  0.6886900E-01  0.9118800E+02  0.7818609E-02  0.1379984E+01
      -11   -1    0    0    0    0  0.00000000000E+00  0.00000000000E+00  0.35740347158E-01  0.35744000000E-01  0.51099999109E-03 0. -1.
       11   -1    0    0    0    0 -0.00000000000E+00 -0.00000000000E+00 -0.35740347158E-01  0.35744000000E-01  0.51099999109E-03 0.  1.
       22    1    1    2    0    0 -0.42643741836E-02 -0.30335117130E-02 -0.17492497585E-01  0.18258547375E-01  0.00000000000E+00 0.  1.
  9000001    1    1    2    0    0  0.42643741836E-02  0.30335117130E-02  0.17492497585E-01  0.53229452625E-01  0.50000000745E-01 0. -1.
</event>
<event>
 4   0  0.6886900E-01  0.9118800E+02  0.7818609E-02  0.1379984E+01
      -11   -1    0    0    0    0  0.00000000000E+00  0.00000000000E+00  0.35740347158E-01  0.35744000000E-01  0.51099999109E-03 0.  1.
       11   -1    0    0    0    0 -0.00000000000E+00 -0.00000000000E+00 -0.35740347158E-01  0.35744000000E-01  0.51099999109E-03 0. -1.
       22    1    1    2    0    0 -0.70336881074E-02  0.33191261467E-02  0.16519236831E-01  0.18258547375E-01  0.00000000000E+00 0. -1.
  9000001    1    1    2    0    0  0.70336881074E-02 -0.33191261467E-02 -0.16519236831E-01  0.53229452625E-01  0.50000000745E-01 0. -1.
</event>
<event>
 4   0  0.6886900E-01  0.9118800E+02  0.7818609E-02  0.1379984E+01
      -11   -1    0    0    0    0  0.00000000000E+00  0.00000000000E+00  0.35740347158E-01  0.35744000000E-01  0.51099999109E-03 0.  1.
       11   -1    0    0    0    0 -0.00000000000E+00 -0.00000000000E+00 -0.35740347158E-01  0.35744000000E-01  0.51099999109E-03 0. -1.
       22    1    1    2    0    0 -0.31210706648E-02 -0.14234315908E-02 -0.17933413302E-01  0.18258547375E-01  0.00000000000E+00 0. -1.
  9000001    1    1    2    0    0  0.31210706648E-02  0.14234315908E-02  0.17933413302E-01  0.53229452625E-01  0.50000000745E-01 0.  1.
</event>
<event>
 4   0  0.6886900E-01  0.9118800E+02  0.7818609E-02  0.1379984E+01
      -11   -1    0    0    0    0  0.00000000000E+00  0.00000000000E+00  0.35740347158E-01  0.35744000000E-01  0.51099999109E-03 0. -1.
       11   -1    0    0    0    0 -0.00000000000E+00 -0.00000000000E+00 -0.35740347158E-01  0.35744000000E-01  0.51099999109E-03 0.  1.
       22    1    1    2    0    0 -0.15024766544E-01 -0.10374332190E-01 -0.64607847211E-04  0.18258547375E-01  0.00000000000E+00 0.  1.
  9000001    1    1    2    0    0  0.15024766544E-01  0.10374332190E-01  0.64607847211E-04  0.53229452625E-01  0.50000000745E-01 0.  0.
</event>
<event>
 4   0  0.6886900E-01  0.9118800E+02  0.7818609E-02  0.1379984E+01
      -11   -1    0    0    0    0  0.00000000000E+00  0.00000000000E+00  0.35740347158E-01  0.35744000000E-01  0.51099999109E-03 0. -1.
       11   -1    0    0    0    0 -0.00000000000E+00 -0.00000000000E+00 -0.35740347158E-01  0.35744000000E-01  0.51099999109E-03 0.  1.
       22    1    1    2    0    0 -0.73336173996E-03  0.16485644195E-01  0.78141070054E-02  0.18258547375E-01  0.00000000000E+00 0. -1.
  9000001    1    1    2    0    0  0.73336173996E-03 -0.16485644195E-01 -0.78141070054E-02  0.53229452625E-01  0.50000000745E-01 0.  1.
</event>
<event>
 4   0  0.6886900E-01  0.9118800E+02  0.7818609E-02  0.1379984E+01
      -11   -1    0    0    0    0  0.00000000000E+00  0.00000000000E+00  0.35740347158E-01  0.35744000000E-01  0.51099999109E-03 0.  1.
       11   -1    0    0    0    0 -0.00000000000E+00 -0.00000000000E+00 -0.35740347158E-01  0.35744000000E-01  0.51099999109E-03 0. -1.
       22    1    1    2    0    0 -0.10854242956E-02  0.30945396147E-02  0.17961632190E-01  0.18258547375E-01  0.00000000000E+00 0.  1.
  9000001    1    1    2    0    0  0.10854242956E-02 -0.30945396147E-02 -0.17961632190E-01  0.53229452625E-01  0.50000000745E-01 0. -1.
</event>
<event>
 4   0  0.6886900E-01  0.9118800E+02  0.7818609E-02  0.1379984E+01
      -11   -1    0    0    0    0  0.00000000000E+00  0.00000000000E+00  0.35740347158E-01  0.35744000000E-01  0.51099999109E-03 0. -1.
       11   -1    0    0    0    0 -0.00000000000E+00 -0.00000000000E+00 -0.35740347158E-01  0.35744000000E-01  0.51099999109E-03 0.  1.
       22    1    1    2    0    0 -0.47093309412E-02  0.75826145086E-02 -0.15927985169E-01  0.18258547375E-01  0.00000000000E+00 0. -1.
  9000001    1    1    2    0    0  0.47093309412E-02 -0.75826145086E-02  0.15927985169E-01  0.53229452625E-01  0.50000000745E-01 0.  0.
</event>
<event>
 4   0  0.6886900E-01  0.9118800E+02  0.7818609E-02  0.1379984E+01
      -11   -1    0    0    0    0  0.00000000000E+00  0.00000000000E+00  0.35740347158E-01  0.35744000000E-01  0.51099999109E-03 0. -1.
       11   -1    0    0    0    0 -0.00000000000E+00 -0.00000000000E+00 -0.35740347158E-01  0.35744000000E-01  0.51099999109E-03 0.  1.
       22    1    1    2    0    0 -0.17722915456E-01 -0.69725299432E-03 -0.43343578825E-02  0.18258547375E-01  0.00000000000E+00 0.  1.
  9000001    1    1    2    0    0  0.17722915456E-01  0.69725299432E-03  0.43343578825E-02  0.53229452625E-01  0.50000000745E-01 0.  0.
</event>
<event>
 4   0  0.6886900E-01  0.9118800E+02  0.7818609E-02  0.1379984E+01
      -11   -1    0    0    0    0  0.00000000000E+00  0.00000000000E+00  0.35740347158E-01  0.35744000000E-01  0.51099999109E-03 0.  1.
       11   -1    0    0    0    0 -0.00000000000E+00 -0.00000000000E+00 -0.35740347158E-01  0.35744000000E-01  0.51099999109E-03 0. -1.
       22    1    1    2    0    0 -0.17333897015E-01  0.45824146889E-02  0.34513826398E-02  0.18258547375E-01  0.00000000000E+00 0. -1.
  9000001    1    1    2    0    0  0.17333897015E-01 -0.45824146889E-02 -0.34513826398E-02  0.53229452625E-01  0.50000000745E-01 0.  1.
</event>
<event>
 4   0  0.6886900E-01  0.9118800E+02  0.7818609E-02  0.1379984E+01
      -11   -1    0    0    0    0  0.00000000000E+00  0.00000000000E+00  0.35740347158E-01  0.35744000000E-01  0.51099999109E-03 0. -1.
       11   -1    0    0    0    0 -0.00000000000E+00 -0.00000000000E+00 -0.35740347158E-01  0.35744000000E-01  0.51099999109E-03 0.  1.
       22    1    1    2    0    0 -0.52792281847E-02  0.22188790834E-02 -0.17337268459E-01  0.18258547375E-01  0.00000000000E+00 0. -1.
  9000001    1    1    2    0    0  0.52792281847E-02 -0.22188790834E-02  0.17337268459E-01  0.53229452625E-01  0.50000000745E-01 0. -1.
</event>
<event>
 4   0  0.6886900E-01  0.9118800E+02  0.7818609E-02  0.1379984E+01
      -11   -1    0    0    0    0  0.00000000000E+00  0.00000000000E+00  0.35740347158E-01  0.35744000000E-01  0.51099999109E-03 0.  1.
       11   -1    0    0    0    0 -0.00000000000E+00 -0.00000000000E+00 -0.35740347158E-01  0.35744000000E-01  0.51099999109E-03 0. -1.
       22    1    1    2    0    0 -0.97432835338E-03 -0.58636890949E-02 -0.17263904156E-01  0.18258547375E-01  0.00000000000E+00 0. -1.
  9000001    1    1    2    0    0  0.97432835338E-03  0.58636890949E-02  0.17263904156E-01  0.53229452625E-01  0.50000000745E-01 0.  1.
</event>
<event>
 4   0  0.6886900E-01  0.9118800E+02  0.7818609E-02  0.1379984E+01
      -11   -1    0    0    0    0  0.00000000000E+00  0.00000000000E+00  0.35740347158E-01  0.35744000000E-01  0.51099999109E-03 0.  1.
       11   -1    0    0    0    0 -0.00000000000E+00 -0.00000000000E+00 -0.35740347158E-01  0.35744000000E-01  0.51099999109E-03 0. -1.
       22    1    1    2    0    0 -0.58943997264E-02  0.34172473679E-02 -0.16939687852E-01  0.18258547375E-01  0.00000000000E+00 0. -1.
  9000001    1    1    2    0    0  0.58943997264E-02 -0.34172473679E-02  0.16939687852E-01  0.53229452625E-01  0.50000000745E-01 0.  1.
</event>
<event>
 4   0  0.6886900E-01  0.9118800E+02  0.7818609E-02  0.1379984E+01
      -11   -1    0    0    0    0  0.00000000000E+00  0.00000000000E+00  0.35740347158E-01  0.35744000000E-01  0.51099999109E-03 0.  1.
       11   -1    0    0    0    0 -0.00000000000E+00 -0.00000000000E+00 -0.35740347158E-01  0.35744000000E-01  0.51099999109E-03 0. -1.
       22    1    1    2    0    0  0.13985407207E-01 -0.73541989340E-02  0.91486991181E-02  0.18258547375E-01  0.00000000000E+00 0.  1.
  9000001    1    1    2    0    0 -0.13985407207E-01  0.73541989340E-02 -0.91486991181E-02  0.53229452625E-01  0.50000000745E-01 0.  0.
</event>
<event>
 4   0  0.6886900E-01  0.9118800E+02  0.7818609E-02  0.1379984E+01
      -11   -1    0    0    0    0  0.00000000000E+00  0.00000000000E+00  0.35740347158E-01  0.35744000000E-01  0.51099999109E-03 0. -1.
       11   -1    0    0    0    0 -0.00000000000E+00 -0.00000000000E+00 -0.35740347158E-01  0.35744000000E-01  0.51099999109E-03 0.  1.
       22    1    1    2    0    0  0.12171670512E-01  0.18863932112E-02 -0.13478371928E-01  0.18258547375E-01  0.00000000000E+00 0.  1.
  9000001    1    1    2    0    0 -0.12171670512E-01 -0.18863932112E-02  0.13478371928E-01  0.53229452625E-01  0.50000000745E-01 0. -1.
</event>
<event>
 4   0  0.6886900E-01  0.9118800E+02  0.7818609E-02  0.1379984E+01
      -11   -1    0    0    0    0  0.00000000000E+00  0.00000000000E+00  0.35740347158E-01  0.35744000000E-01  0.51099999109E-03 0.  1.
       11   -1    0    0    0    0 -0.00000000000E+00 -0.00000000000E+00 -0.35740347158E-01  0.35744000000E-01  0.51099999109E-03 0. -1.
       22    1    1    2    0    0 -0.87978497302E-02  0.39613559275E-02  0.15500969376E-01  0.18258547375E-01  0.00000000000E+00 0.  1.
  9000001    1    1    2    0    0  0.87978497302E-02 -0.39613559275E-02 -0.15500969376E-01  0.53229452625E-01  0.50000000745E-01 0. -1.
</event>
<event>
 4   0  0.6886900E-01  0.9118800E+02  0.7818609E-02  0.1379984E+01
      -11   -1    0    0    0    0  0.00000000000E+00  0.00000000000E+00  0.35740347158E-01  0.35744000000E-01  0.51099999109E-03 0.  1.
       11   -1    0    0    0    0 -0.00000000000E+00 -0.00000000000E+00 -0.35740347158E-01  0.35744000000E-01  0.51099999109E-03 0. -1.
       22    1    1    2    0    0 -0.12344290343E-01  0.13634420255E-02  0.13384097803E-01  0.18258547375E-01  0.00000000000E+00 0.  1.
  9000001    1    1    2    0    0  0.12344290343E-01 -0.13634420255E-02 -0.13384097803E-01  0.53229452625E-01  0.50000000745E-01 0.  0.
</event>
<event>
 4   0  0.6886900E-01  0.9118800E+02  0.7818609E-02  0.1379984E+01
      -11   -1    0    0    0    0  0.00000000000E+00  0.00000000000E+00  0.35740347158E-01  0.35744000000E-01  0.51099999109E-03 0. -1.
       11   -1    0    0    0    0 -0.00000000000E+00 -0.00000000000E+00 -0.35740347158E-01  0.35744000000E-01  0.51099999109E-03 0.  1.
       22    1    1    2    0    0 -0.22143478531E-02 -0.33485917599E-02 -0.17811741887E-01  0.18258547375E-01  0.00000000000E+00 0.  1.
  9000001    1    1    2    0    0  0.22143478531E-02  0.33485917599E-02  0.17811741887E-01  0.53229452625E-01  0.50000000745E-01 0. -1.
</event>
<event>
 4   0  0.6886900E-01  0.9118800E+02  0.7818609E-02  0.1379984E+01
      -11   -1    0    0    0    0  0.00000000000E+00  0.00000000000E+00  0.35740347158E-01  0.35744000000E-01  0.51099999109E-03 0.  1.
       11   -1    0    0    0    0 -0.00000000000E+00 -0.00000000000E+00 -0.35740347158E-01  0.35744000000E-01  0.51099999109E-03 0. -1.
       22    1    1    2    0    0  0.11194212790E-01  0.69742392737E-02 -0.12626327210E-01  0.18258547375E-01  0.00000000000E+00 0. -1.
  9000001    1    1    2    0    0 -0.11194212790E-01 -0.69742392737E-02  0.12626327210E-01  0.53229452625E-01  0.50000000745E-01 0.  1.
</event>
<event>
 4   0  0.6886900E-01  0.9118800E+02  0.7818609E-02  0.1379984E+01
      -11   -1    0    0    0    0  0.00000000000E+00  0.00000000000E+00  0.35740347158E-01  0.35744000000E-01  0.51099999109E-03 0. -1.
       11   -1    0    0    0    0 -0.00000000000E+00 -0.00000000000E+00 -0.35740347158E-01  0.35744000000E-01  0.51099999109E-03 0.  1.
       22    1    1    2    0    0  0.69797555046E-02  0.27683018125E-02  0.16643138839E-01  0.18258547375E-01  0.00000000000E+00 0. -1.
  9000001    1    1    2    0    0 -0.69797555046E-02 -0.27683018125E-02 -0.16643138839E-01  0.53229452625E-01  0.50000000745E-01 0.  1.
</event>
<event>
 4   0  0.6886900E-01  0.9118800E+02  0.7818609E-02  0.1379984E+01
      -11   -1    0    0    0    0  0.00000000000E+00  0.00000000000E+00  0.35740347158E-01  0.35744000000E-01  0.51099999109E-03 0.  1.
       11   -1    0    0    0    0 -0.00000000000E+00 -0.00000000000E+00 -0.35740347158E-01  0.35744000000E-01  0.51099999109E-03 0. -1.
       22    1    1    2    0    0 -0.85404809474E-02 -0.99080800768E-02 -0.12738315690E-01  0.18258547375E-01  0.00000000000E+00 0. -1.
  9000001    1    1    2    0    0  0.85404809474E-02  0.99080800768E-02  0.12738315690E-01  0.53229452625E-01  0.50000000745E-01 0.  1.
</event>
<event>
 4   0  0.6886900E-01  0.9118800E+02  0.7818609E-02  0.1379984E+01
      -11   -1    0    0    0    0  0.00000000000E+00  0.00000000000E+00  0.35740347158E-01  0.35744000000E-01  0.51099999109E-03 0.  1.
       11   -1    0    0    0    0 -0.00000000000E+00 -0.00000000000E+00 -0.35740347158E-01  0.35744000000E-01  0.51099999109E-03 0. -1.
       22    1    1    2    0    0 -0.51544895210E-02  0.93276235768E-02  0.14825694872E-01  0.18258547375E-01  0.00000000000E+00 0.  1.
  9000001    1    1    2    0    0  0.51544895210E-02 -0.93276235768E-02 -0.14825694872E-01  0.53229452625E-01  0.50000000745E-01 0. -1.
</event>
<event>
 4   0  0.6886900E-01  0.9118800E+02  0.7818609E-02  0.1379984E+01
      -11   -1    0    0    0    0  0.00000000000E+00  0.00000000000E+00  0.35740347158E-01  0.35744000000E-01  0.51099999109E-03 0. -1.
       11   -1    0    0    0    0 -0.00000000000E+00 -0.00000000000E+00 -0.35740347158E-01  0.35744000000E-01  0.51099999109E-03 0.  1.
       22    1    1    2    0    0  0.21880450742E-02  0.18110882416E-01 -0.76351103284E-03  0.18258547375E-01  0.00000000000E+00 0. -1.
  9000001    1    1    2    0    0 -0.21880450742E-02 -0.18110882416E-01  0.76351103284E-03  0.53229452625E-01  0.50000000745E-01 0. -1.
</event>
<event>
 4   0  0.6886900E-01  0.9118800E+02  0.7818609E-02  0.1379984E+01
      -11   -1    0    0    0    0  0.00000000000E+00  0.00000000000E+00  0.35740347158E-01  0.35744000000E-01  0.51099999109E-03 0.  1.
       11   -1    0    0    0    0 -0.00000000000E+00 -0.00000000000E+00 -0.35740347158E-01  0.35744000000E-01  0.51099999109E-03 0. -1.
       22    1    1    2    0    0  0.68045707032E-02  0.10999919467E-01  0.12886975654E-01  0.18258547375E-01  0.00000000000E+00 0.  1.
  9000001    1    1    2    0    0 -0.68045707032E-02 -0.10999919467E-01 -0.12886975654E-01  0.53229452625E-01  0.50000000745E-01 0. -1.
</event>
<event>
 4   0  0.6886900E-01  0.9118800E+02  0.7818609E-02  0.1379984E+01
      -11   -1    0    0    0    0  0.00000000000E+00  0.00000000000E+00  0.35740347158E-01  0.35744000000E-01  0.51099999109E-03 0.  1.
       11   -1    0    0    0    0 -0.00000000000E+00 -0.00000000000E+00 -0.35740347158E-01  0.35744000000E-01  0.51099999109E-03 0. -1.
       22    1    1    2    0    0  0.19384330099E-03  0.87717852977E-02  0.16012269037E-01  0.18258547375E-01  0.00000000000E+00 0.  1.
  9000001    1    1    2    0    0 -0.19384330099E-03 -0.87717852977E-02 -0.16012269037E-01  0.53229452625E-01  0.50000000745E-01 0. -1.
</event>
<event>
 4   0  0.6886900E-01  0.9118800E+02  0.7818609E-02  0.1379984E+01
      -11   -1    0    0    0    0  0.00000000000E+00  0.00000000000E+00  0.35740347158E-01  0.35744000000E-01  0.51099999109E-03 0.  1.
       11   -1    0    0    0    0 -0.00000000000E+00 -0.00000000000E+00 -0.35740347158E-01  0.35744000000E-01  0.51099999109E-03 0. -1.
       22    1    1    2    0    0  0.11927503750E-01  0.36158619022E-02 -0.13342966283E-01  0.18258547375E-01  0.00000000000E+00 0. -1.
  9000001    1    1    2    0    0 -0.11927503750E-01 -0.36158619022E-02  0.13342966283E-01  0.53229452625E-01  0.50000000745E-01 0.  1.
</event>
<event>
 4   0  0.6886900E-01  0.9118800E+02  0.7818609E-02  0.1379984E+01
      -11   -1    0    0    0    0  0.00000000000E+00  0.00000000000E+00  0.35740347158E-01  0.35744000000E-01  0.51099999109E-03 0. -1.
       11   -1    0    0    0    0 -0.00000000000E+00 -0.00000000000E+00 -0.35740347158E-01  0.35744000000E-01  0.51099999109E-03 0.  1.
       22    1    1    2    0    0 -0.63962373813E-02 -0.15077684991E-01  0.80700752744E-02  0.18258547375E-01  0.00000000000E+00 0. -1.
  9000001    1    1    2    0    0  0.63962373813E-02  0.15077684991E-01 -0.80700752744E-02  0.53229452625E-01  0.50000000745E-01 0.  1.
</event>
<event>
 4   0  0.6886900E-01  0.9118800E+02  0.7818609E-02  0.1379984E+01
      -11   -1    0    0    0    0  0.00000000000E+00  0.00000000000E+00  0.35740347158E-01  0.35744000000E-01  0.51099999109E-03 0. -1.
       11   -1    0    0    0    0 -0.00000000000E+00 -0.00000000000E+00 -0.35740347158E-01  0.35744000000E-01  0.51099999109E-03 0.  1.
       22    1    1    2    0    0 -0.82905180837E-02 -0.10996900930E-01  0.11987911915E-01  0.18258547375E-01  0.00000000000E+00 0. -1.
  9000001    1    1    2    0    0  0.82905180837E-02  0.10996900930E-01 -0.11987911915E-01  0.53229452625E-01  0.50000000745E-01 0.  1.
</event>
<event>
 4   0  0.6886900E-01  0.9118800E+02  0.7818609E-02  0.1379984E+01
      -11   -1    0    0    0    0  0.00000000000E+00  0.00000000000E+00  0.35740347158E-01  0.35744000000E-01  0.51099999109E-03 0.  1.
       11   -1    0    0    0    0 -0.00000000000E+00 -0.00000000000E+00 -0.35740347158E-01  0.35744000000E-01  0.51099999109E-03 0. -1.
       22    1    1    2    0    0  0.30840395855E-02  0.38883278327E-02 -0.17571117174E-01  0.18258547375E-01  0.00000000000E+00 0. -1.
  9000001    1    1    2    0    0 -0.30840395855E-02 -0.38883278327E-02  0.17571117174E-01  0.53229452625E-01  0.50000000745E-01 0.  1.
</event>
<event>
 4   0  0.6886900E-01  0.9118800E+02  0.7818609E-02  0.1379984E+01
      -11   -1    0    0    0    0  0.00000000000E+00  0.00000000000E+00  0.35740347158E-01  0.35744000000E-01  0.51099999109E-03 0. -1.
       11   -1    0    0    0    0 -0.00000000000E+00 -0.00000000000E+00 -0.35740347158E-01  0.35744000000E-01  0.51099999109E-03 0.  1.
       22    1    1    2    0    0  0.62826458328E-02  0.65040443764E-02 -0.15861914145E-01  0.18258547375E-01  0.00000000000E+00 0.  1.
  9000001    1    1    2    0    0 -0.62826458328E-02 -0.65040443764E-02  0.15861914145E-01  0.53229452625E-01  0.50000000745E-01 0. -1.
</event>
<event>
 4   0  0.6886900E-01  0.9118800E+02  0.7818609E-02  0.1379984E+01
      -11   -1    0    0    0    0  0.00000000000E+00  0.00000000000E+00  0.35740347158E-01  0.35744000000E-01  0.51099999109E-03 0. -1.
       11   -1    0    0    0    0 -0.00000000000E+00 -0.00000000000E+00 -0.35740347158E-01  0.35744000000E-01  0.51099999109E-03 0.  1.
       22    1    1    2    0    0 -0.16198046037E-01  0.35363653448E-02  0.76480047710E-02  0.18258547375E-01  0.00000000000E+00 0.  1.
  9000001    1    1    2    0    0  0.16198046037E-01 -0.35363653448E-02 -0.76480047710E-02  0.53229452625E-01  0.50000000745E-01 0.  1.
</event>
<event>
 4   0  0.6886900E-01  0.9118800E+02  0.7818609E-02  0.1379984E+01
      -11   -1    0    0    0    0  0.00000000000E+00  0.00000000000E+00  0.35740347158E-01  0.35744000000E-01  0.51099999109E-03 0.  1.
       11   -1    0    0    0    0 -0.00000000000E+00 -0.00000000000E+00 -0.35740347158E-01  0.35744000000E-01  0.51099999109E-03 0. -1.
       22    1    1    2    0    0  0.13834810233E-01  0.11833552289E-01 -0.13927017938E-02  0.18258547375E-01  0.00000000000E+00 0. -1.
  9000001    1    1    2    0    0 -0.13834810233E-01 -0.11833552289E-01  0.13927017938E-02  0.53229452625E-01  0.50000000745E-01 0.  1.
</event>
<event>
 4   0  0.6886900E-01  0.9118800E+02  0.7818609E-02  0.1379984E+01
      -11   -1    0    0    0    0  0.00000000000E+00  0.00000000000E+00  0.35740347158E-01  0.35744000000E-01  0.51099999109E-03 0.  1.
       11   -1    0    0    0    0 -0.00000000000E+00 -0.00000000000E+00 -0.35740347158E-01  0.35744000000E-01  0.51099999109E-03 0. -1.
       22    1    1    2    0    0  0.18879284110E-02 -0.52341632426E-02 -0.17390049273E-01  0.18258547375E-01  0.00000000000E+00 0. -1.
  9000001    1    1    2    0    0 -0.18879284110E-02  0.52341632426E-02  0.17390049273E-01  0.53229452625E-01  0.50000000745E-01 0.  1.
</event>
<event>
 4   0  0.6886900E-01  0.9118800E+02  0.7818609E-02  0.1379984E+01
      -11   -1    0    0    0    0  0.00000000000E+00  0.00000000000E+00  0.35740347158E-01  0.35744000000E-01  0.51099999109E-03 0.  1.
       11   -1    0    0    0    0 -0.00000000000E+00 -0.00000000000E+00 -0.35740347158E-01  0.35744000000E-01  0.51099999109E-03 0. -1.
       22    1    1    2    0    0  0.52914297933E-02 -0.87406054034E-02  0.15131990622E-01  0.18258547375E-01  0.00000000000E+00 0.  1.
  9000001    1    1    2    0    0 -0.52914297933E-02  0.87406054034E-02 -0.15131990622E-01  0.53229452625E-01  0.50000000745E-01 0. -1.
</event>
<event>
 4   0  0.6886900E-01  0.9118800E+02  0.7818609E-02  0.1379984E+01
      -11   -1    0    0    0    0  0.00000000000E+00  0.00000000000E+00  0.35740347158E-01  0.35744000000E-01  0.51099999109E-03 0. -1.
       11   -1    0    0    0    0 -0.00000000000E+00 -0.00000000000E+00 -0.35740347158E-01  0.35744000000E-01  0.51099999109E-03 0.  1.
       22    1    1    2    0    0  0.12837376676E-04 -0.35880616694E-02  0.17902519401E-01  0.18258547375E-01  0.00000000000E+00 0. -1.
  9000001    1    1    2    0    0 -0.12837376676E-04  0.35880616694E-02 -0.17902519401E-01  0.53229452625E-01  0.50000000745E-01 0.  1.
</event>
<event>
 4   0  0.6886900E-01  0.9118800E+02  0.7818609E-02  0.1379984E+01
      -11   -1    0    0    0    0  0.00000000000E+00  0.00000000000E+00  0.35740347158E-01  0.35744000000E-01  0.51099999109E-03 0.  1.
       11   -1    0    0    0    0 -0.00000000000E+00 -0.00000000000E+00 -0.35740347158E-01  0.35744000000E-01  0.51099999109E-03 0. -1.
       22    1    1    2    0    0  0.66342091945E-02 -0.41134328761E-02 -0.16505801725E-01  0.18258547375E-01  0.00000000000E+00 0. -1.
  9000001    1    1    2    0    0 -0.66342091945E-02  0.41134328761E-02  0.16505801725E-01  0.53229452625E-01  0.50000000745E-01 0.  1.
</event>
<event>
 4   0  0.6886900E-01  0.9118800E+02  0.7818609E-02  0.1379984E+01
      -11   -1    0    0    0    0  0.00000000000E+00  0.00000000000E+00  0.35740347158E-01  0.35744000000E-01  0.51099999109E-03 0.  1.
       11   -1    0    0    0    0 -0.00000000000E+00 -0.00000000000E+00 -0.35740347158E-01  0.35744000000E-01  0.51099999109E-03 0. -1.
       22    1    1    2    0    0  0.11703235411E-01 -0.69705134195E-02 -0.12158156761E-01  0.18258547375E-01  0.00000000000E+00 0.  1.
  9000001    1    1    2    0    0 -0.11703235411E-01  0.69705134195E-02  0.12158156761E-01  0.53229452625E-01  0.50000000745E-01 0.  1.
</event>
<event>
 4   0  0.6886900E-01  0.9118800E+02  0.7818609E-02  0.1379984E+01
      -11   -1    0    0    0    0  0.00000000000E+00  0.00000000000E+00  0.35740347158E-01  0.35744000000E-01  0.51099999109E-03 0.  1.
       11   -1    0    0    0    0 -0.00000000000E+00 -0.00000000000E+00 -0.35740347158E-01  0.35744000000E-01  0.51099999109E-03 0. -1.
       22    1    1    2    0    0 -0.87562462416E-02 -0.25815583069E-03  0.16019864530E-01  0.18258547375E-01  0.00000000000E+00 0. -1.
  9000001    1    1    2    0    0  0.87562462416E-02  0.25815583069E-03 -0.16019864530E-01  0.53229452625E-01  0.50000000745E-01 0. -1.
</event>
<event>
 4   0  0.6886900E-01  0.9118800E+02  0.7818609E-02  0.1379984E+01
      -11   -1    0    0    0    0  0.00000000000E+00  0.00000000000E+00  0.35740347158E-01  0.35744000000E-01  0.51099999109E-03 0. -1.
       11   -1    0    0    0    0 -0.00000000000E+00 -0.00000000000E+00 -0.35740347158E-01  0.35744000000E-01  0.51099999109E-03 0.  1.
       22    1    1    2    0    0  0.60843097392E-02 -0.11210962865E-02  0.17178442024E-01  0.18258547375E-01  0.00000000000E+00 0.  1.
  9000001    1    1    2    0    0 -0.60843097392E-02  0.11210962865E-02 -0.17178442024E-01  0.53229452625E-01  0.50000000745E-01 0.  1.
</event>
<event>
 4   0  0.6886900E-01  0.9118800E+02  0.7818609E-02  0.1379984E+01
      -11   -1    0    0    0    0  0.00000000000E+00  0.00000000000E+00  0.35740347158E-01  0.35744000000E-01  0.51099999109E-03 0. -1.
       11   -1    0    0    0    0 -0.00000000000E+00 -0.00000000000E+00 -0.35740347158E-01  0.35744000000E-01  0.51099999109E-03 0.  1.
       22    1    1    2    0    0 -0.16948190382E-02  0.46294756233E-02 -0.17580389533E-01  0.18258547375E-01  0.00000000000E+00 0.  1.
  9000001    1    1    2    0    0  0.16948190382E-02 -0.46294756233E-02  0.17580389533E-01  0.53229452625E-01  0.50000000745E-01 0. -1.
</event>
<event>
 4   0  0.6886900E-01  0.9118800E+02  0.7818609E-02  0.1379984E+01
      -11   -1    0    0    0    0  0.00000000000E+00  0.00000000000E+00  0.35740347158E-01  0.35744000000E-01  0.51099999109E-03 0. -1.
       11   -1    0    0    0    0 -0.00000000000E+00 -0.00000000000E+00 -0.35740347158E-01  0.35744000000E-01  0.51099999109E-03 0.  1.
       22    1    1    2    0    0  0.70868692608E-02 -0.15193284477E-01  0.72329069616E-02  0.18258547375E-01  0.00000000000E+00 0. -1.
  9000001    1    1    2    0    0 -0.70868692608E-02  0.15193284477E-01 -0.72329069616E-02  0.53229452625E-01  0.50000000745E-01 0.  1.
</event>
<event>
 4   0  0.6886900E-01  0.9118800E+02  0.7818609E-02  0.1379984E+01
      -11   -1    0    0    0    0  0.00000000000E+00  0.00000000000E+00  0.35740347158E-01  0.35744000000E-01  0.51099999109E-03 0.  1.
       11   -1    0    0    0    0 -0.00000000000E+00 -0.00000000000E+00 -0.35740347158E-01  0.35744000000E-01  0.51099999109E-03 0. -1.
       22    1    1    2    0    0  0.13160906920E-02  0.13599962952E-01 -0.12111294944E-01  0.18258547375E-01  0.00000000000E+00 0. -1.
  9000001    1    1    2    0    0 -0.13160906920E-02 -0.13599962952E-01  0.12111294944E-01  0.53229452625E-01  0.50000000745E-01 0.  1.
</event>
<event>
 4   0  0.6886900E-01  0.9118800E+02  0.7818609E-02  0.1379984E+01
      -11   -1    0    0    0    0  0.00000000000E+00  0.00000000000E+00  0.35740347158E-01  0.35744000000E-01  0.51099999109E-03 0. -1.
       11   -1    0    0    0    0 -0.00000000000E+00 -0.00000000000E+00 -0.35740347158E-01  0.35744000000E-01  0.51099999109E-03 0.  1.
       22    1    1    2    0    0 -0.19836487054E-02 -0.23250142596E-02 -0.18000944385E-01  0.18258547375E-01  0.00000000000E+00 0. -1.
  9000001    1    1    2    0    0  0.19836487054E-02  0.23250142596E-02  0.18000944385E-01  0.53229452625E-01  0.50000000745E-01 0. -1.
</event>
<event>
 4   0  0.6886900E-01  0.9118800E+02  0.7818609E-02  0.1379984E+01
      -11   -1    0    0    0    0  0.00000000000E+00  0.00000000000E+00  0.35740347158E-01  0.35744000000E-01  0.51099999109E-03 0.  1.
       11   -1    0    0    0    0 -0.00000000000E+00 -0.00000000000E+00 -0.35740347158E-01  0.35744000000E-01  0.51099999109E-03 0. -1.
       22    1    1    2    0    0 -0.41253077903E-02 -0.36198499095E-02  0.17414163044E-01  0.18258547375E-01  0.00000000000E+00 0.  1.
  9000001    1    1    2    0    0  0.41253077903E-02  0.36198499095E-02 -0.17414163044E-01  0.53229452625E-01  0.50000000745E-01 0. -1.
</event>
<event>
 4   0  0.6886900E-01  0.9118800E+02  0.7818609E-02  0.1379984E+01
      -11   -1    0    0    0    0  0.00000000000E+00  0.00000000000E+00  0.35740347158E-01  0.35744000000E-01  0.51099999109E-03 0.  1.
       11   -1    0    0    0    0 -0.00000000000E+00 -0.00000000000E+00 -0.35740347158E-01  0.35744000000E-01  0.51099999109E-03 0. -1.
       22    1    1    2    0    0  0.14983890195E-01 -0.95960934015E-02 -0.40954338371E-02  0.18258547375E-01  0.00000000000E+00 0.  1.
  9000001    1    1    2    0    0 -0.14983890195E-01  0.95960934015E-02  0.40954338371E-02  0.53229452625E-01  0.50000000745E-01 0.  0.
</event>
<event>
 4   0  0.6886900E-01  0.9118800E+02  0.7818609E-02  0.1379984E+01
      -11   -1    0    0    0    0  0.00000000000E+00  0.00000000000E+00  0.35740347158E-01  0.35744000000E-01  0.51099999109E-03 0.  1.
       11   -1    0    0    0    0 -0.00000000000E+00 -0.00000000000E+00 -0.35740347158E-01  0.35744000000E-01  0.51099999109E-03 0. -1.
       22    1    1    2    0    0 -0.15111569575E-02 -0.46393528515E-02 -0.17594526479E-01  0.18258547375E-01  0.00000000000E+00 0. -1.
  9000001    1    1    2    0    0  0.15111569575E-02  0.46393528515E-02  0.17594526479E-01  0.53229452625E-01  0.50000000745E-01 0.  1.
</event>
<event>
 4   0  0.6886900E-01  0.9118800E+02  0.7818609E-02  0.1379984E+01
      -11   -1    0    0    0    0  0.00000000000E+00  0.00000000000E+00  0.35740347158E-01  0.35744000000E-01  0.51099999109E-03 0.  1.
       11   -1    0    0    0    0 -0.00000000000E+00 -0.00000000000E+00 -0.35740347158E-01  0.35744000000E-01  0.51099999109E-03 0. -1.
       22    1    1    2    0    0 -0.14565879398E-01 -0.28715310182E-02  0.10628453284E-01  0.18258547375E-01  0.00000000000E+00 0.  1.
  9000001    1    1    2    0    0  0.14565879398E-01  0.28715310182E-02 -0.10628453284E-01  0.53229452625E-01  0.50000000745E-01 0. -1.
</event>
<event>
 4   0  0.6886900E-01  0.9118800E+02  0.7818609E-02  0.1379984E+01
      -11   -1    0    0    0    0  0.00000000000E+00  0.00000000000E+00  0.35740347158E-01  0.35744000000E-01  0.51099999109E-03 0.  1.
       11   -1    0    0    0    0 -0.00000000000E+00 -0.00000000000E+00 -0.35740347158E-01  0.35744000000E-01  0.51099999109E-03 0. -1.
       22    1    1    2    0    0 -0.18330602972E-02  0.16181508962E-01  0.82567069646E-02  0.18258547375E-01  0.00000000000E+00 0. -1.
  9000001    1    1    2    0    0  0.18330602972E-02 -0.16181508962E-01 -0.82567069646E-02  0.53229452625E-01  0.50000000745E-01 0.  0.
</event>
<event>
 4   0  0.6886900E-01  0.9118800E+02  0.7818609E-02  0.1379984E+01
      -11   -1    0    0    0    0  0.00000000000E+00  0.00000000000E+00  0.35740347158E-01  0.35744000000E-01  0.51099999109E-03 0. -1.
       11   -1    0    0    0    0 -0.00000000000E+00 -0.00000000000E+00 -0.35740347158E-01  0.35744000000E-01  0.51099999109E-03 0.  1.
       22    1    1    2    0    0 -0.15656351171E-01  0.30213189064E-02 -0.88952151362E-02  0.18258547375E-01  0.00000000000E+00 0.  1.
  9000001    1    1    2    0    0  0.15656351171E-01 -0.30213189064E-02  0.88952151362E-02  0.53229452625E-01  0.50000000745E-01 0. -1.
</event>
<event>
 4   0  0.6886900E-01  0.9118800E+02  0.7818609E-02  0.1379984E+01
      -11   -1    0    0    0    0  0.00000000000E+00  0.00000000000E+00  0.35740347158E-01  0.35744000000E-01  0.51099999109E-03 0. -1.
       11   -1    0    0    0    0 -0.00000000000E+00 -0.00000000000E+00 -0.35740347158E-01  0.35744000000E-01  0.51099999109E-03 0.  1.
       22    1    1    2    0    0 -0.47643906456E-02 -0.25988927968E-02  0.17433326999E-01  0.18258547375E-01  0.00000000000E+00 0. -1.
  9000001    1    1    2    0    0  0.47643906456E-02  0.25988927968E-02 -0.17433326999E-01  0.53229452625E-01  0.50000000745E-01 0.  1.
</event>
<event>
 4   0  0.6886900E-01  0.9118800E+02  0.7818609E-02  0.1379984E+01
      -11   -1    0    0    0    0  0.00000000000E+00  0.00000000000E+00  0.35740347158E-01  0.35744000000E-01  0.51099999109E-03 0.  1.
       11   -1    0    0    0    0 -0.00000000000E+00 -0.00000000000E+00 -0.35740347158E-01  0.35744000000E-01  0.51099999109E-03 0. -1.
       22    1    1    2    0    0  0.67076396777E-03  0.53876871925E-02  0.17432654837E-01  0.18258547375E-01  0.00000000000E+00 0.  1.
  9000001    1    1    2    0    0 -0.67076396777E-03 -0.53876871925E-02 -0.17432654837E-01  0.53229452625E-01  0.50000000745E-01 0. -1.
</event>
<event>
 4   0  0.6886900E-01  0.9118800E+02  0.7818609E-02  0.1379984E+01
      -11   -1    0    0    0    0  0.00000000000E+00  0.00000000000E+00  0.35740347158E-01  0.35744000000E-01  0.51099999109E-03 0. -1.
       11   -1    0    0    0    0 -0.00000000000E+00 -0.00000000000E+00 -0.35740347158E-01  0.35744000000E-01  0.51099999109E-03 0.  1.
       22    1    1    2    0    0  0.36764167052E-02 -0.54857832798E-02 -0.17022476150E-01  0.18258547375E-01  0.00000000000E+00 0.  1.
  9000001    1    1    2    0    0 -0.36764167052E-02  0.54857832798E-02  0.17022476150E-01  0.53229452625E-01  0.50000000745E-01 0. -1.
</event>
<event>
 4   0  0.6886900E-01  0.9118800E+02  0.7818609E-02  0.1379984E+01
      -11   -1    0    0    0    0  0.00000000000E+00  0.00000000000E+00  0.35740347158E-01  0.35744000000E-01  0.51099999109E-03 0.  1.
       11   -1    0    0    0    0 -0.00000000000E+00 -0.00000000000E+00 -0.35740347158E-01  0.35744000000E-01  0.51099999109E-03 0. -1.
       22    1    1    2    0    0 -0.50311863448E-02 -0.67541241856E-03  0.17538686789E-01  0.18258547375E-01  0.00000000000E+00 0.  1.
  9000001    1    1    2    0    0  0.50311863448E-02  0.67541241856E-03 -0.17538686789E-01  0.53229452625E-01  0.50000000745E-01 0. -1.
</event>
<event>
 4   0  0.6886900E-01  0.9118800E+02  0.7818609E-02  0.1379984E+01
      -11   -1    0    0    0    0  0.00000000000E+00  0.00000000000E+00  0.35740347158E-01  0.35744000000E-01  0.51099999109E-03 0. -1.
       11   -1    0    0    0    0 -0.00000000000E+00 -0.00000000000E+00 -0.35740347158E-01  0.35744000000E-01  0.51099999109E-03 0.  1.
       22    1    1    2    0    0  0.88520314948E-04  0.16231932138E-01 -0.83600894416E-02  0.18258547375E-01  0.00000000000E+00 0.  1.
  9000001    1    1    2    0    0 -0.88520314948E-04 -0.16231932138E-01  0.83600894416E-02  0.53229452625E-01  0.50000000745E-01 0. -1.
</event>
<event>
 4   0  0.6886900E-01  0.9118800E+02  0.7818609E-02  0.1379984E+01
      -11   -1    0    0    0    0  0.00000000000E+00  0.00000000000E+00  0.35740347158E-01  0.35744000000E-01  0.51099999109E-03 0. -1.
       11   -1    0    0    0    0 -0.00000000000E+00 -0.00000000000E+00 -0.35740347158E-01  0.35744000000E-01  0.51099999109E-03 0.  1.
       22    1    1    2    0    0 -0.18099887174E-01 -0.23824095421E-02 -0.30456739650E-03  0.18258547375E-01  0.00000000000E+00 0.  1.
  9000001    1    1    2    0    0  0.18099887174E-01  0.23824095421E-02  0.30456739650E-03  0.53229452625E-01  0.50000000745E-01 0.  0.
</event>
<event>
 4   0  0.6886900E-01  0.9118800E+02  0.7818609E-02  0.1379984E+01
      -11   -1    0    0    0    0  0.00000000000E+00  0.00000000000E+00  0.35740347158E-01  0.35744000000E-01  0.51099999109E-03 0.  1.
       11   -1    0    0    0    0 -0.00000000000E+00 -0.00000000000E+00 -0.35740347158E-01  0.35744000000E-01  0.51099999109E-03 0. -1.
       22    1    1    2    0    0 -0.36906323964E-02  0.34072049154E-02 -0.17554051938E-01  0.18258547375E-01  0.00000000000E+00 0. -1.
  9000001    1    1    2    0    0  0.36906323964E-02 -0.34072049154E-02  0.17554051938E-01  0.53229452625E-01  0.50000000745E-01 0.  1.
</event>
<event>
 4   0  0.6886900E-01  0.9118800E+02  0.7818609E-02  0.1379984E+01
      -11   -1    0    0    0    0  0.00000000000E+00  0.00000000000E+00  0.35740347158E-01  0.35744000000E-01  0.51099999109E-03 0.  1.
       11   -1    0    0    0    0 -0.00000000000E+00 -0.00000000000E+00 -0.35740347158E-01  0.35744000000E-01  0.51099999109E-03 0. -1.
       22    1    1    2    0    0 -0.12401484333E-01  0.79143076615E-02  0.10813948068E-01  0.18258547375E-01  0.00000000000E+00 0.  1.
  9000001    1    1    2    0    0  0.12401484333E-01 -0.79143076615E-02 -0.10813948068E-01  0.53229452625E-01  0.50000000745E-01 0. -1.
</event>
<event>
 4   0  0.6886900E-01  0.9118800E+02  0.7818609E-02  0.1379984E+01
      -11   -1    0    0    0    0  0.00000000000E+00  0.00000000000E+00  0.35740347158E-01  0.35744000000E-01  0.51099999109E-03 0.  1.
       11   -1    0    0    0    0 -0.00000000000E+00 -0.00000000000E+00 -0.35740347158E-01  0.35744000000E-01  0.51099999109E-03 0. -1.
       22    1    1    2    0    0  0.41912796914E-02  0.12164512558E-02 -0.17729297029E-01  0.18258547375E-01  0.00000000000E+00 0. -1.
  9000001    1    1    2    0    0 -0.41912796914E-02 -0.12164512558E-02  0.17729297029E-01  0.53229452625E-01  0.50000000745E-01 0.  1.
</event>
<event>
 4   0  0.6886900E-01  0.9118800E+02  0.7818609E-02  0.1379984E+01
      -11   -1    0    0    0    0  0.00000000000E+00  0.00000000000E+00  0.35740347158E-01  0.35744000000E-01  0.51099999109E-03 0. -1.
       11   -1    0    0    0    0 -0.00000000000E+00 -0.00000000000E+00 -0.35740347158E-01  0.35744000000E-01  0.51099999109E-03 0.  1.
       22    1    1    2    0    0  0.45863227344E-02 -0.12105594879E-01  0.12876131742E-01  0.18258547375E-01  0.00000000000E+00 0. -1.
  9000001    1    1    2    0    0 -0.45863227344E-02  0.12105594879E-01 -0.12876131742E-01  0.53229452625E-01  0.50000000745E-01 0.  1.
</event>
<event>
 4   0  0.6886900E-01  0.9118800E+02  0.7818609E-02  0.1379984E+01
      -11   -1    0    0    0    0  0.00000000000E+00  0.00000000000E+00  0.35740347158E-01  0.35744000000E-01  0.51099999109E-03 0. -1.
       11   -1    0    0    0    0 -0.00000000000E+00 -0.00000000000E+00 -0.35740347158E-01  0.35744000000E-01  0.51099999109E-03 0.  1.
       22    1    1    2    0    0 -0.11954887247E-01 -0.96006470687E-03 -0.13767116579E-01  0.18258547375E-01  0.00000000000E+00 0.  1.
  9000001    1    1    2    0    0  0.11954887247E-01  0.96006470687E-03  0.13767116579E-01  0.53229452625E-01  0.50000000745E-01 0. -1.
</event>
<event>
 4   0  0.6886900E-01  0.9118800E+02  0.7818609E-02  0.1379984E+01
      -11   -1    0    0    0    0  0.00000000000E+00  0.00000000000E+00  0.35740347158E-01  0.35744000000E-01  0.51099999109E-03 0. -1.
       11   -1    0    0    0    0 -0.00000000000E+00 -0.00000000000E+00 -0.35740347158E-01  0.35744000000E-01  0.51099999109E-03 0.  1.
       22    1    1    2    0    0  0.12242865759E-01  0.97146294890E-02  0.94399557286E-02  0.18258547375E-01  0.00000000000E+00 0. -1.
  9000001    1    1    2    0    0 -0.12242865759E-01 -0.97146294890E-02 -0.94399557286E-02  0.53229452625E-01  0.50000000745E-01 0.  1.
</event>
<event>
 4   0  0.6886900E-01  0.9118800E+02  0.7818609E-02  0.1379984E+01
      -11   -1    0    0    0    0  0.00000000000E+00  0.00000000000E+00  0.35740347158E-01  0.35744000000E-01  0.51099999109E-03 0. -1.
       11   -1    0    0    0    0 -0.00000000000E+00 -0.00000000000E+00 -0.35740347158E-01  0.35744000000E-01  0.51099999109E-03 0.  1.
       22    1    1    2    0    0  0.76100008346E-03  0.57844649478E-02 -0.17301311985E-01  0.18258547375E-01  0.00000000000E+00 0.  1.
  9000001    1    1    2    0    0 -0.76100008346E-03 -0.57844649478E-02  0.17301311985E-01  0.53229452625E-01  0.50000000745E-01 0. -1.
</event>
<event>
 4   0  0.6886900E-01  0.9118800E+02  0.7818609E-02  0.1379984E+01
      -11   -1    0    0    0    0  0.00000000000E+00  0.00000000000E+00  0.35740347158E-01  0.35744000000E-01  0.51099999109E-03 0. -1.
       11   -1    0    0    0    0 -0.00000000000E+00 -0.00000000000E+00 -0.35740347158E-01  0.35744000000E-01  0.51099999109E-03 0.  1.
       22    1    1    2    0    0 -0.80776917083E-04  0.32125371850E-02 -0.17973525869E-01  0.18258547375E-01  0.00000000000E+00 0.  1.
  9000001    1    1    2    0    0  0.80776917083E-04 -0.32125371850E-02  0.17973525869E-01  0.53229452625E-01  0.50000000745E-01 0. -1.
</event>
<event>
 4   0  0.6886900E-01  0.9118800E+02  0.7818609E-02  0.1379984E+01
      -11   -1    0    0    0    0  0.00000000000E+00  0.00000000000E+00  0.35740347158E-01  0.35744000000E-01  0.51099999109E-03 0.  1.
       11   -1    0    0    0    0 -0.00000000000E+00 -0.00000000000E+00 -0.35740347158E-01  0.35744000000E-01  0.51099999109E-03 0. -1.
       22    1    1    2    0    0  0.83851594704E-02  0.64591402008E-02 -0.14877606016E-01  0.18258547375E-01  0.00000000000E+00 0. -1.
  9000001    1    1    2    0    0 -0.83851594704E-02 -0.64591402008E-02  0.14877606016E-01  0.53229452625E-01  0.50000000745E-01 0.  1.
</event>
<event>
 4   0  0.6886900E-01  0.9118800E+02  0.7818609E-02  0.1379984E+01
      -11   -1    0    0    0    0  0.00000000000E+00  0.00000000000E+00  0.35740347158E-01  0.35744000000E-01  0.51099999109E-03 0.  1.
       11   -1    0    0    0    0 -0.00000000000E+00 -0.00000000000E+00 -0.35740347158E-01  0.35744000000E-01  0.51099999109E-03 0. -1.
       22    1    1    2    0    0 -0.73498441316E-02 -0.56091599619E-02 -0.15744575828E-01  0.18258547375E-01  0.00000000000E+00 0.  1.
  9000001    1    1    2    0    0  0.73498441316E-02  0.56091599619E-02  0.15744575828E-01  0.53229452625E-01  0.50000000745E-01 0.  1.
</event>
<event>
 4   0  0.6886900E-01  0.9118800E+02  0.7818609E-02  0.1379984E+01
      -11   -1    0    0    0    0  0.00000000000E+00  0.00000000000E+00  0.35740347158E-01  0.35744000000E-01  0.51099999109E-03 0. -1.
       11   -1    0    0    0    0 -0.00000000000E+00 -0.00000000000E+00 -0.35740347158E-01  0.35744000000E-01  0.51099999109E-03 0.  1.
       22    1    1    2    0    0 -0.20253443677E-03 -0.68441479754E-02 -0.16926050057E-01  0.18258547375E-01  0.00000000000E+00 0. -1.
  9000001    1    1    2    0    0  0.20253443677E-03  0.68441479754E-02  0.16926050057E-01  0.53229452625E-01  0.50000000745E-01 0. -1.
</event>
<event>
 4   0  0.6886900E-01  0.9118800E+02  0.7818609E-02  0.1379984E+01
      -11   -1    0    0    0    0  0.00000000000E+00  0.00000000000E+00  0.35740347158E-01  0.35744000000E-01  0.51099999109E-03 0. -1.
       11   -1    0    0    0    0 -0.00000000000E+00 -0.00000000000E+00 -0.35740347158E-01  0.35744000000E-01  0.51099999109E-03 0.  1.
       22    1    1    2    0    0 -0.11790403222E-01 -0.13904075522E-01  0.10186402587E-02  0.18258547375E-01  0.00000000000E+00 0. -1.
  9000001    1    1    2    0    0  0.11790403222E-01  0.13904075522E-01 -0.10186402587E-02  0.53229452625E-01  0.50000000745E-01 0.  1.
</event>
<event>
 4   0  0.6886900E-01  0.9118800E+02  0.7818609E-02  0.1379984E+01
      -11   -1    0    0    0    0  0.00000000000E+00  0.00000000000E+00  0.35740347158E-01  0.35744000000E-01  0.51099999109E-03 0. -1.
       11   -1    0    0    0    0 -0.00000000000E+00 -0.00000000000E+00 -0.35740347158E-01  0.35744000000E-01  0.51099999109E-03 0.  1.
       22    1    1    2    0    0 -0.59839173222E-04  0.31632796845E-02  0.17982342260E-01  0.18258547375E-01  0.00000000000E+00 0. -1.
  9000001    1    1    2    0    0  0.59839173222E-04 -0.31632796845E-02 -0.17982342260E-01  0.53229452625E-01  0.50000000745E-01 0.  1.
</event>
<event>
 4   0  0.6886900E-01  0.9118800E+02  0.7818609E-02  0.1379984E+01
      -11   -1    0    0    0    0  0.00000000000E+00  0.00000000000E+00  0.35740347158E-01  0.35744000000E-01  0.51099999109E-03 0. -1.
       11   -1    0    0    0    0 -0.00000000000E+00 -0.00000000000E+00 -0.35740347158E-01  0.35744000000E-01  0.51099999109E-03 0.  1.
       22    1    1    2    0    0  0.61265137437E-02  0.24048819329E-02 -0.17031057644E-01  0.18258547375E-01  0.00000000000E+00 0.  1.
  9000001    1    1    2    0    0 -0.61265137437E-02 -0.24048819329E-02  0.17031057644E-01  0.53229452625E-01  0.50000000745E-01 0. -1.
</event>
<event>
 4   0  0.6886900E-01  0.9118800E+02  0.7818609E-02  0.1379984E+01
      -11   -1    0    0    0    0  0.00000000000E+00  0.00000000000E+00  0.35740347158E-01  0.35744000000E-01  0.51099999109E-03 0. -1.
       11   -1    0    0    0    0 -0.00000000000E+00 -0.00000000000E+00 -0.35740347158E-01  0.35744000000E-01  0.51099999109E-03 0.  1.
       22    1    1    2    0    0  0.18567354070E-02  0.34892974497E-02 -0.17825596461E-01  0.18258547375E-01  0.00000000000E+00 0.  1.
  9000001    1    1    2    0    0 -0.18567354070E-02 -0.34892974497E-02  0.17825596461E-01  0.53229452625E-01  0.50000000745E-01 0. -1.
</event>
<event>
 4   0  0.6886900E-01  0.9118800E+02  0.7818609E-02  0.1379984E+01
      -11   -1    0    0    0    0  0.00000000000E+00  0.00000000000E+00  0.35740347158E-01  0.35744000000E-01  0.51099999109E-03 0. -1.
       11   -1    0    0    0    0 -0.00000000000E+00 -0.00000000000E+00 -0.35740347158E-01  0.35744000000E-01  0.51099999109E-03 0.  1.
       22    1    1    2    0    0 -0.66321653363E-02 -0.40100029361E-02 -0.16532054066E-01  0.18258547375E-01  0.00000000000E+00 0. -1.
  9000001    1    1    2    0    0  0.66321653363E-02  0.40100029361E-02  0.16532054066E-01  0.53229452625E-01  0.50000000745E-01 0. -1.
</event>
<event>
 4   0  0.6886900E-01  0.9118800E+02  0.7818609E-02  0.1379984E+01
      -11   -1    0    0    0    0  0.00000000000E+00  0.00000000000E+00  0.35740347158E-01  0.35744000000E-01  0.51099999109E-03 0.  1.
       11   -1    0    0    0    0 -0.00000000000E+00 -0.00000000000E+00 -0.35740347158E-01  0.35744000000E-01  0.51099999109E-03 0. -1.
       22    1    1    2    0    0 -0.22319870810E-02 -0.47763796082E-02 -0.17480817594E-01  0.18258547375E-01  0.00000000000E+00 0.  1.
  9000001    1    1    2    0    0  0.22319870810E-02  0.47763796082E-02  0.17480817594E-01  0.53229452625E-01  0.50000000745E-01 0.  1.
</event>
<event>
 4   0  0.6886900E-01  0.9118800E+02  0.7818609E-02  0.1379984E+01
      -11   -1    0    0    0    0  0.00000000000E+00  0.00000000000E+00  0.35740347158E-01  0.35744000000E-01  0.51099999109E-03 0. -1.
       11   -1    0    0    0    0 -0.00000000000E+00 -0.00000000000E+00 -0.35740347158E-01  0.35744000000E-01  0.51099999109E-03 0.  1.
       22    1    1    2    0    0 -0.51842442312E-02 -0.30865230700E-03  0.17504367962E-01  0.18258547375E-01  0.00000000000E+00 0. -1.
  9000001    1    1    2    0    0  0.51842442312E-02  0.30865230700E-03 -0.17504367962E-01  0.53229452625E-01  0.50000000745E-01 0.  1.
</event>
<event>
 4   0  0.6886900E-01  0.9118800E+02  0.7818609E-02  0.1379984E+01
      -11   -1    0    0    0    0  0.00000000000E+00  0.00000000000E+00  0.35740347158E-01  0.35744000000E-01  0.51099999109E-03 0. -1.
       11   -1    0    0    0    0 -0.00000000000E+00 -0.00000000000E+00 -0.35740347158E-01  0.35744000000E-01  0.51099999109E-03 0.  1.
       22    1    1    2    0    0  0.59324116676E-02  0.15851808594E-01 -0.68484456877E-02  0.18258547375E-01  0.00000000000E+00 0.  1.
  9000001    1    1    2    0    0 -0.59324116676E-02 -0.15851808594E-01  0.68484456877E-02  0.53229452625E-01  0.50000000745E-01 0. -1.
</event>
<event>
 4   0  0.6886900E-01  0.9118800E+02  0.7818609E-02  0.1379984E+01
      -11   -1    0    0    0    0  0.00000000000E+00  0.00000000000E+00  0.35740347158E-01  0.35744000000E-01  0.51099999109E-03 0.  1.
       11   -1    0    0    0    0 -0.00000000000E+00 -0.00000000000E+00 -0.35740347158E-01  0.35744000000E-01  0.51099999109E-03 0. -1.
       22    1    1    2    0    0 -0.37041378515E-02 -0.88566192243E-03 -0.17856917931E-01  0.18258547375E-01  0.00000000000E+00 0. -1.
  9000001    1    1    2    0    0  0.37041378515E-02  0.88566192243E-03  0.17856917931E-01  0.53229452625E-01  0.50000000745E-01 0.  0.
</event>
<event>
 4   0  0.6886900E-01  0.9118800E+02  0.7818609E-02  0.1379984E+01
      -11   -1    0    0    0    0  0.00000000000E+00  0.00000000000E+00  0.35740347158E-01  0.35744000000E-01  0.51099999109E-03 0.  1.
       11   -1    0    0    0    0 -0.00000000000E+00 -0.00000000000E+00 -0.35740347158E-01  0.35744000000E-01  0.51099999109E-03 0. -1.
       22    1    1    2    0    0  0.75687475292E-03 -0.36689895224E-02  0.17870092578E-01  0.18258547375E-01  0.00000000000E+00 0.  1.
  9000001    1    1    2    0    0 -0.75687475292E-03  0.36689895224E-02 -0.17870092578E-01  0.53229452625E-01  0.50000000745E-01 0. -1.
</event>
<event>
 4   0  0.6886900E-01  0.9118800E+02  0.7818609E-02  0.1379984E+01
      -11   -1    0    0    0    0  0.00000000000E+00  0.00000000000E+00  0.35740347158E-01  0.35744000000E-01  0.51099999109E-03 0.  1.
       11   -1    0    0    0    0 -0.00000000000E+00 -0.00000000000E+00 -0.35740347158E-01  0.35744000000E-01  0.51099999109E-03 0. -1.
       22    1    1    2    0    0  0.12098757670E-03 -0.15806451830E-01 -0.91387085951E-02  0.18258547375E-01  0.00000000000E+00 0. -1.
  9000001    1    1    2    0    0 -0.12098757670E-03  0.15806451830E-01  0.91387085951E-02  0.53229452625E-01  0.50000000745E-01 0.  1.
</event>
<event>
 4   0  0.6886900E-01  0.9118800E+02  0.7818609E-02  0.1379984E+01
      -11   -1    0    0    0    0  0.00000000000E+00  0.00000000000E+00  0.35740347158E-01  0.35744000000E-01  0.51099999109E-03 0.  1.
       11   -1    0    0    0    0 -0.00000000000E+00 -0.00000000000E+00 -0.35740347158E-01  0.35744000000E-01  0.51099999109E-03 0. -1.
       22    1    1    2    0    0 -0.19914090059E-02 -0.25527071589E-02  0.17969210572E-01  0.18258547375E-01  0.00000000000E+00 0.  1.
  9000001    1    1    2    0    0  0.19914090059E-02  0.25527071589E-02 -0.17969210572E-01  0.53229452625E-01  0.50000000745E-01 0. -1.
</event>
<event>
 4   0  0.6886900E-01  0.9118800E+02  0.7818609E-02  0.1379984E+01
      -11   -1    0    0    0    0  0.00000000000E+00  0.00000000000E+00  0.35740347158E-01  0.35744000000E-01  0.51099999109E-03 0.  1.
       11   -1    0    0    0    0 -0.00000000000E+00 -0.00000000000E+00 -0.35740347158E-01  0.35744000000E-01  0.51099999109E-03 0. -1.
       22    1    1    2    0    0  0.86189254408E-02  0.16026616452E-01  0.14954068318E-02  0.18258547375E-01  0.00000000000E+00 0. -1.
  9000001    1    1    2    0    0 -0.86189254408E-02 -0.16026616452E-01 -0.14954068318E-02  0.53229452625E-01  0.50000000745E-01 0.  0.
</event>
<event>
 4   0  0.6886900E-01  0.9118800E+02  0.7818609E-02  0.1379984E+01
      -11   -1    0    0    0    0  0.00000000000E+00  0.00000000000E+00  0.35740347158E-01  0.35744000000E-01  0.51099999109E-03 0.  1.
       11   -1    0    0    0    0 -0.00000000000E+00 -0.00000000000E+00 -0.35740347158E-01  0.35744000000E-01  0.51099999109E-03 0. -1.
       22    1    1    2    0    0  0.27336930423E-02 -0.27437094364E-02 -0.17843024775E-01  0.18258547375E-01  0.00000000000E+00 0. -1.
  9000001    1    1    2    0    0 -0.27336930423E-02  0.27437094364E-02  0.17843024775E-01  0.53229452625E-01  0.50000000745E-01 0.  1.
</event>
<event>
 4   0  0.6886900E-01  0.9118800E+02  0.7818609E-02  0.1379984E+01
      -11   -1    0    0    0    0  0.00000000000E+00  0.00000000000E+00  0.35740347158E-01  0.35744000000E-01  0.51099999109E-03 0. -1.
       11   -1    0    0    0    0 -0.00000000000E+00 -0.00000000000E+00 -0.35740347158E-01  0.35744000000E-01  0.51099999109E-03 0.  1.
       22    1    1    2    0    0  0.91687970954E-02  0.24853487486E-02 -0.15592650630E-01  0.18258547375E-01  0.00000000000E+00 0.  1.
  9000001    1    1    2    0    0 -0.91687970954E-02 -0.24853487486E-02  0.15592650630E-01  0.53229452625E-01  0.50000000745E-01 0. -1.
</event>
<event>
 4   0  0.6886900E-01  0.9118800E+02  0.7818609E-02  0.1379984E+01
      -11   -1    0    0    0    0  0.00000000000E+00  0.00000000000E+00  0.35740347158E-01  0.35744000000E-01  0.51099999109E-03 0. -1.
       11   -1    0    0    0    0 -0.00000000000E+00 -0.00000000000E+00 -0.35740347158E-01  0.35744000000E-01  0.51099999109E-03 0.  1.
       22    1    1    2    0    0 -0.81704103495E-02 -0.11638654786E-01  0.11452539533E-01  0.18258547375E-01  0.00000000000E+00 0. -1.
  9000001    1    1    2    0    0  0.81704103495E-02  0.11638654786E-01 -0.11452539533E-01  0.53229452625E-01  0.50000000745E-01 0.  1.
</event>
<event>
 4   0  0.6886900E-01  0.9118800E+02  0.7818609E-02  0.1379984E+01
      -11   -1    0    0    0    0  0.00000000000E+00  0.00000000000E+00  0.35740347158E-01  0.35744000000E-01  0.51099999109E-03 0. -1.
       11   -1    0    0    0    0 -0.00000000000E+00 -0.00000000000E+00 -0.35740347158E-01  0.35744000000E-01  0.51099999109E-03 0.  1.
       22    1    1    2    0    0 -0.26051249691E-02 -0.21875396032E-02 -0.17938855778E-01  0.18258547375E-01  0.00000000000E+00 0.  1.
  9000001    1    1    2    0    0  0.26051249691E-02  0.21875396032E-02  0.17938855778E-01  0.53229452625E-01  0.50000000745E-01 0. -1.
</event>
<event>
 4   0  0.6886900E-01  0.9118800E+02  0.7818609E-02  0.1379984E+01
      -11   -1    0    0    0    0  0.00000000000E+00  0.00000000000E+00  0.35740347158E-01  0.35744000000E-01  0.51099999109E-03 0.  1.
       11   -1    0    0    0    0 -0.00000000000E+00 -0.00000000000E+00 -0.35740347158E-01  0.35744000000E-01  0.51099999109E-03 0. -1.
       22    1    1    2    0    0 -0.42328985366E-02 -0.10269614236E-02  0.17731397927E-01  0.18258547375E-01  0.00000000000E+00 0.  1.
  9000001    1    1    2    0    0  0.42328985366E-02  0.10269614236E-02 -0.17731397927E-01  0.53229452625E-01  0.50000000745E-01 0. -1.
</event>
<event>
 4   0  0.6886900E-01  0.9118800E+02  0.7818609E-02  0.1379984E+01
      -11   -1    0    0    0    0  0.00000000000E+00  0.00000000000E+00  0.35740347158E-01  0.35744000000E-01  0.51099999109E-03 0. -1.
       11   -1    0    0    0    0 -0.00000000000E+00 -0.00000000000E+00 -0.35740347158E-01  0.35744000000E-01  0.51099999109E-03 0.  1.
       22    1    1    2    0    0  0.75108836000E-03  0.50244742216E-02 -0.17537533388E-01  0.18258547375E-01  0.00000000000E+00 0.  1.
  9000001    1    1    2    0    0 -0.75108836000E-03 -0.50244742216E-02  0.17537533388E-01  0.53229452625E-01  0.50000000745E-01 0. -1.
</event>
<event>
 4   0  0.6886900E-01  0.9118800E+02  0.7818609E-02  0.1379984E+01
      -11   -1    0    0    0    0  0.00000000000E+00  0.00000000000E+00  0.35740347158E-01  0.35744000000E-01  0.51099999109E-03 0. -1.
       11   -1    0    0    0    0 -0.00000000000E+00 -0.00000000000E+00 -0.35740347158E-01  0.35744000000E-01  0.51099999109E-03 0.  1.
       22    1    1    2    0    0 -0.15231747894E-01 -0.98812883658E-03  0.10019581316E-01  0.18258547375E-01  0.00000000000E+00 0. -1.
  9000001    1    1    2    0    0  0.15231747894E-01  0.98812883658E-03 -0.10019581316E-01  0.53229452625E-01  0.50000000745E-01 0.  1.
</event>
<event>
 4   0  0.6886900E-01  0.9118800E+02  0.7818609E-02  0.1379984E+01
      -11   -1    0    0    0    0  0.00000000000E+00  0.00000000000E+00  0.35740347158E-01  0.35744000000E-01  0.51099999109E-03 0.  1.
       11   -1    0    0    0    0 -0.00000000000E+00 -0.00000000000E+00 -0.35740347158E-01  0.35744000000E-01  0.51099999109E-03 0. -1.
       22    1    1    2    0    0 -0.31137764418E-02 -0.67978438963E-02  0.16657378752E-01  0.18258547375E-01  0.00000000000E+00 0.  1.
  9000001    1    1    2    0    0  0.31137764418E-02  0.67978438963E-02 -0.16657378752E-01  0.53229452625E-01  0.50000000745E-01 0. -1.
</event>
<event>
 4   0  0.6886900E-01  0.9118800E+02  0.7818609E-02  0.1379984E+01
      -11   -1    0    0    0    0  0.00000000000E+00  0.00000000000E+00  0.35740347158E-01  0.35744000000E-01  0.51099999109E-03 0. -1.
       11   -1    0    0    0    0 -0.00000000000E+00 -0.00000000000E+00 -0.35740347158E-01  0.35744000000E-01  0.51099999109E-03 0.  1.
       22    1    1    2    0    0  0.98460838096E-03 -0.96820141195E-02  0.15448744323E-01  0.18258547375E-01  0.00000000000E+00 0. -1.
  9000001    1    1    2    0    0 -0.98460838096E-03  0.96820141195E-02 -0.15448744323E-01  0.53229452625E-01  0.50000000745E-01 0.  1.
</event>
<event>
 4   0  0.6886900E-01  0.9118800E+02  0.7818609E-02  0.1379984E+01
      -11   -1    0    0    0    0  0.00000000000E+00  0.00000000000E+00  0.35740347158E-01  0.35744000000E-01  0.51099999109E-03 0.  1.
       11   -1    0    0    0    0 -0.00000000000E+00 -0.00000000000E+00 -0.35740347158E-01  0.35744000000E-01  0.51099999109E-03 0. -1.
       22    1    1    2    0    0  0.25685153596E-02 -0.88796561885E-02  0.15745760924E-01  0.18258547375E-01  0.00000000000E+00 0.  1.
  9000001    1    1    2    0    0 -0.25685153596E-02  0.88796561885E-02 -0.15745760924E-01  0.53229452625E-01  0.50000000745E-01 0. -1.
</event>
<event>
 4   0  0.6886900E-01  0.9118800E+02  0.7818609E-02  0.1379984E+01
      -11   -1    0    0    0    0  0.00000000000E+00  0.00000000000E+00  0.35740347158E-01  0.35744000000E-01  0.51099999109E-03 0.  1.
       11   -1    0    0    0    0 -0.00000000000E+00 -0.00000000000E+00 -0.35740347158E-01  0.35744000000E-01  0.51099999109E-03 0. -1.
       22    1    1    2    0    0 -0.54427312657E-02 -0.60460282706E-02 -0.16346154617E-01  0.18258547375E-01  0.00000000000E+00 0. -1.
  9000001    1    1    2    0    0  0.54427312657E-02  0.60460282706E-02  0.16346154617E-01  0.53229452625E-01  0.50000000745E-01 0.  1.
</event>
<event>
 4   0  0.6886900E-01  0.9118800E+02  0.7818609E-02  0.1379984E+01
      -11   -1    0    0    0    0  0.00000000000E+00  0.00000000000E+00  0.35740347158E-01  0.35744000000E-01  0.51099999109E-03 0.  1.
       11   -1    0    0    0    0 -0.00000000000E+00 -0.00000000000E+00 -0.35740347158E-01  0.35744000000E-01  0.51099999109E-03 0. -1.
       22    1    1    2    0    0  0.24668467456E-02 -0.72082968028E-02  0.16593061097E-01  0.18258547375E-01  0.00000000000E+00 0.  1.
  9000001    1    1    2    0    0 -0.24668467456E-02  0.72082968028E-02 -0.16593061097E-01  0.53229452625E-01  0.50000000745E-01 0. -1.
</event>
<event>
 4   0  0.6886900E-01  0.9118800E+02  0.7818609E-02  0.1379984E+01
      -11   -1    0    0    0    0  0.00000000000E+00  0.00000000000E+00  0.35740347158E-01  0.35744000000E-01  0.51099999109E-03 0. -1.
       11   -1    0    0    0    0 -0.00000000000E+00 -0.00000000000E+00 -0.35740347158E-01  0.35744000000E-01  0.51099999109E-03 0.  1.
       22    1    1    2    0    0  0.11430841169E-01 -0.17076329096E-02 -0.14134865131E-01  0.18258547375E-01  0.00000000000E+00 0. -1.
  9000001    1    1    2    0    0 -0.11430841169E-01  0.17076329096E-02  0.14134865131E-01  0.53229452625E-01  0.50000000745E-01 0. -1.
</event>
<event>
 4   0  0.6886900E-01  0.9118800E+02  0.7818609E-02  0.1379984E+01
      -11   -1    0    0    0    0  0.00000000000E+00  0.00000000000E+00  0.35740347158E-01  0.35744000000E-01  0.51099999109E-03 0. -1.
       11   -1    0    0    0    0 -0.00000000000E+00 -0.00000000000E+00 -0.35740347158E-01  0.35744000000E-01  0.51099999109E-03 0.  1.
       22    1    1    2    0    0 -0.13874842846E-01  0.60898404512E-02 -0.10187106141E-01  0.18258547375E-01  0.00000000000E+00 0.  1.
  9000001    1    1    2    0    0  0.13874842846E-01 -0.60898404512E-02  0.10187106141E-01  0.53229452625E-01  0.50000000745E-01 0.  0.
</event>
<event>
 4   0  0.6886900E-01  0.9118800E+02  0.7818609E-02  0.1379984E+01
      -11   -1    0    0    0    0  0.00000000000E+00  0.00000000000E+00  0.35740347158E-01  0.35744000000E-01  0.51099999109E-03 0. -1.
       11   -1    0    0    0    0 -0.00000000000E+00 -0.00000000000E+00 -0.35740347158E-01  0.35744000000E-01  0.51099999109E-03 0.  1.
       22    1    1    2    0    0  0.44687780202E-02 -0.10233685224E-01 -0.14445631242E-01  0.18258547375E-01  0.00000000000E+00 0.  1.
  9000001    1    1    2    0    0 -0.44687780202E-02  0.10233685224E-01  0.14445631242E-01  0.53229452625E-01  0.50000000745E-01 0. -1.
</event>
<event>
 4   0  0.6886900E-01  0.9118800E+02  0.7818609E-02  0.1379984E+01
      -11   -1    0    0    0    0  0.00000000000E+00  0.00000000000E+00  0.35740347158E-01  0.35744000000E-01  0.51099999109E-03 0.  1.
       11   -1    0    0    0    0 -0.00000000000E+00 -0.00000000000E+00 -0.35740347158E-01  0.35744000000E-01  0.51099999109E-03 0. -1.
       22    1    1    2    0    0  0.60741873145E-02 -0.55006835650E-02  0.16316288825E-01  0.18258547375E-01  0.00000000000E+00 0.  1.
  9000001    1    1    2    0    0 -0.60741873145E-02  0.55006835650E-02 -0.16316288825E-01  0.53229452625E-01  0.50000000745E-01 0. -1.
</event>
<event>
 4   0  0.6886900E-01  0.9118800E+02  0.7818609E-02  0.1379984E+01
      -11   -1    0    0    0    0  0.00000000000E+00  0.00000000000E+00  0.35740347158E-01  0.35744000000E-01  0.51099999109E-03 0.  1.
       11   -1    0    0    0    0 -0.00000000000E+00 -0.00000000000E+00 -0.35740347158E-01  0.35744000000E-01  0.51099999109E-03 0. -1.
       22    1    1    2    0    0 -0.40869213093E-02  0.39721793523E-02 -0.17346279649E-01  0.18258547375E-01  0.00000000000E+00 0. -1.
  9000001    1    1    2    0    0  0.40869213093E-02 -0.39721793523E-02  0.17346279649E-01  0.53229452625E-01  0.50000000745E-01 0.  1.
</event>
<event>
 4   0  0.6886900E-01  0.9118800E+02  0.7818609E-02  0.1379984E+01
      -11   -1    0    0    0    0  0.00000000000E+00  0.00000000000E+00  0.35740347158E-01  0.35744000000E-01  0.51099999109E-03 0.  1.
       11   -1    0    0    0    0 -0.00000000000E+00 -0.00000000000E+00 -0.35740347158E-01  0.35744000000E-01  0.51099999109E-03 0. -1.
       22    1    1    2    0    0  0.41568918948E-02 -0.41831280770E-02  0.17279937544E-01  0.18258547375E-01  0.00000000000E+00 0.  1.
  9000001    1    1    2    0    0 -0.41568918948E-02  0.41831280770E-02 -0.17279937544E-01  0.53229452625E-01  0.50000000745E-01 0. -1.
</event>
<event>
 4   0  0.6886900E-01  0.9118800E+02  0.7818609E-02  0.1379984E+01
      -11   -1    0    0    0    0  0.00000000000E+00  0.00000000000E+00  0.35740347158E-01  0.35744000000E-01  0.51099999109E-03 0. -1.
       11   -1    0    0    0    0 -0.00000000000E+00 -0.00000000000E+00 -0.35740347158E-01  0.35744000000E-01  0.51099999109E-03 0.  1.
       22    1    1    2    0    0  0.13486362229E-01 -0.12096731803E-01 -0.22719299617E-02  0.18258547375E-01  0.00000000000E+00 0. -1.
  9000001    1    1    2    0    0 -0.13486362229E-01  0.12096731803E-01  0.22719299617E-02  0.53229452625E-01  0.50000000745E-01 0.  0.
</event>
<event>
 4   0  0.6886900E-01  0.9118800E+02  0.7818609E-02  0.1379984E+01
      -11   -1    0    0    0    0  0.00000000000E+00  0.00000000000E+00  0.35740347158E-01  0.35744000000E-01  0.51099999109E-03 0. -1.
       11   -1    0    0    0    0 -0.00000000000E+00 -0.00000000000E+00 -0.35740347158E-01  0.35744000000E-01  0.51099999109E-03 0.  1.
       22    1    1    2    0    0  0.11595701432E-01  0.39008580378E-02  0.13553507557E-01  0.18258547375E-01  0.00000000000E+00 0. -1.
  9000001    1    1    2    0    0 -0.11595701432E-01 -0.39008580378E-02 -0.13553507557E-01  0.53229452625E-01  0.50000000745E-01 0.  1.
</event>
<event>
 4   0  0.6886900E-01  0.9118800E+02  0.7818609E-02  0.1379984E+01
      -11   -1    0    0    0    0  0.00000000000E+00  0.00000000000E+00  0.35740347158E-01  0.35744000000E-01  0.51099999109E-03 0.  1.
       11   -1    0    0    0    0 -0.00000000000E+00 -0.00000000000E+00 -0.35740347158E-01  0.35744000000E-01  0.51099999109E-03 0. -1.
       22    1    1    2    0    0  0.44881295659E-02  0.17326939284E-01 -0.36067187710E-02  0.18258547375E-01  0.00000000000E+00 0. -1.
  9000001    1    1    2    0    0 -0.44881295659E-02 -0.17326939284E-01  0.36067187710E-02  0.53229452625E-01  0.50000000745E-01 0.  0.
</event>
<event>
 4   0  0.6886900E-01  0.9118800E+02  0.7818609E-02  0.1379984E+01
      -11   -1    0    0    0    0  0.00000000000E+00  0.00000000000E+00  0.35740347158E-01  0.35744000000E-01  0.51099999109E-03 0. -1.
       11   -1    0    0    0    0 -0.00000000000E+00 -0.00000000000E+00 -0.35740347158E-01  0.35744000000E-01  0.51099999109E-03 0.  1.
       22    1    1    2    0    0 -0.37142508526E-02  0.17430862092E-01 -0.39678633510E-02  0.18258547375E-01  0.00000000000E+00 0. -1.
  9000001    1    1    2    0    0  0.37142508526E-02 -0.17430862092E-01  0.39678633510E-02  0.53229452625E-01  0.50000000745E-01 0.  1.
</event>
<event>
 4   0  0.6886900E-01  0.9118800E+02  0.7818609E-02  0.1379984E+01
      -11   -1    0    0    0    0  0.00000000000E+00  0.00000000000E+00  0.35740347158E-01  0.35744000000E-01  0.51099999109E-03 0.  1.
       11   -1    0    0    0    0 -0.00000000000E+00 -0.00000000000E+00 -0.35740347158E-01  0.35744000000E-01  0.51099999109E-03 0. -1.
       22    1    1    2    0    0  0.10000031588E-01  0.49130703063E-02  0.14464980492E-01  0.18258547375E-01  0.00000000000E+00 0.  1.
  9000001    1    1    2    0    0 -0.10000031588E-01 -0.49130703063E-02 -0.14464980492E-01  0.53229452625E-01  0.50000000745E-01 0. -1.
</event>
<event>
 4   0  0.6886900E-01  0.9118800E+02  0.7818609E-02  0.1379984E+01
      -11   -1    0    0    0    0  0.00000000000E+00  0.00000000000E+00  0.35740347158E-01  0.35744000000E-01  0.51099999109E-03 0.  1.
       11   -1    0    0    0    0 -0.00000000000E+00 -0.00000000000E+00 -0.35740347158E-01  0.35744000000E-01  0.51099999109E-03 0. -1.
       22    1    1    2    0    0 -0.57227754152E-02  0.59005843979E-02  0.16303603821E-01  0.18258547375E-01  0.00000000000E+00 0.  1.
  9000001    1    1    2    0    0  0.57227754152E-02 -0.59005843979E-02 -0.16303603821E-01  0.53229452625E-01  0.50000000745E-01 0. -1.
</event>
<event>
 4   0  0.6886900E-01  0.9118800E+02  0.7818609E-02  0.1379984E+01
      -11   -1    0    0    0    0  0.00000000000E+00  0.00000000000E+00  0.35740347158E-01  0.35744000000E-01  0.51099999109E-03 0.  1.
       11   -1    0    0    0    0 -0.00000000000E+00 -0.00000000000E+00 -0.35740347158E-01  0.35744000000E-01  0.51099999109E-03 0. -1.
       22    1    1    2    0    0 -0.14160399694E-01 -0.10438534795E-01  0.48882127695E-02  0.18258547375E-01  0.00000000000E+00 0.  1.
  9000001    1    1    2    0    0  0.14160399694E-01  0.10438534795E-01 -0.48882127695E-02  0.53229452625E-01  0.50000000745E-01 0.  0.
</event>
<event>
 4   0  0.6886900E-01  0.9118800E+02  0.7818609E-02  0.1379984E+01
      -11   -1    0    0    0    0  0.00000000000E+00  0.00000000000E+00  0.35740347158E-01  0.35744000000E-01  0.51099999109E-03 0.  1.
       11   -1    0    0    0    0 -0.00000000000E+00 -0.00000000000E+00 -0.35740347158E-01  0.35744000000E-01  0.51099999109E-03 0. -1.
       22    1    1    2    0    0  0.14736413677E-01  0.63669885006E-02 -0.86990874018E-02  0.18258547375E-01  0.00000000000E+00 0. -1.
  9000001    1    1    2    0    0 -0.14736413677E-01 -0.63669885006E-02  0.86990874018E-02  0.53229452625E-01  0.50000000745E-01 0.  1.
</event>
<event>
 4   0  0.6886900E-01  0.9118800E+02  0.7818609E-02  0.1379984E+01
      -11   -1    0    0    0    0  0.00000000000E+00  0.00000000000E+00  0.35740347158E-01  0.35744000000E-01  0.51099999109E-03 0. -1.
       11   -1    0    0    0    0 -0.00000000000E+00 -0.00000000000E+00 -0.35740347158E-01  0.35744000000E-01  0.51099999109E-03 0.  1.
       22    1    1    2    0    0  0.58059500248E-02  0.16563782975E-01 -0.50305655866E-02  0.18258547375E-01  0.00000000000E+00 0. -1.
  9000001    1    1    2    0    0 -0.58059500248E-02 -0.16563782975E-01  0.50305655866E-02  0.53229452625E-01  0.50000000745E-01 0.  1.
</event>
<event>
 4   0  0.6886900E-01  0.9118800E+02  0.7818609E-02  0.1379984E+01
      -11   -1    0    0    0    0  0.00000000000E+00  0.00000000000E+00  0.35740347158E-01  0.35744000000E-01  0.51099999109E-03 0. -1.
       11   -1    0    0    0    0 -0.00000000000E+00 -0.00000000000E+00 -0.35740347158E-01  0.35744000000E-01  0.51099999109E-03 0.  1.
       22    1    1    2    0    0 -0.62425899105E-02 -0.93769799271E-02  0.14369303076E-01  0.18258547375E-01  0.00000000000E+00 0.  1.
  9000001    1    1    2    0    0  0.62425899105E-02  0.93769799271E-02 -0.14369303076E-01  0.53229452625E-01  0.50000000745E-01 0.  1.
</event>
<event>
 4   0  0.6886900E-01  0.9118800E+02  0.7818609E-02  0.1379984E+01
      -11   -1    0    0    0    0  0.00000000000E+00  0.00000000000E+00  0.35740347158E-01  0.35744000000E-01  0.51099999109E-03 0.  1.
       11   -1    0    0    0    0 -0.00000000000E+00 -0.00000000000E+00 -0.35740347158E-01  0.35744000000E-01  0.51099999109E-03 0. -1.
       22    1    1    2    0    0 -0.23180550868E-02  0.25284338915E-02  0.17933437900E-01  0.18258547375E-01  0.00000000000E+00 0.  1.
  9000001    1    1    2    0    0  0.23180550868E-02 -0.25284338915E-02 -0.17933437900E-01  0.53229452625E-01  0.50000000745E-01 0. -1.
</event>
<event>
 4   0  0.6886900E-01  0.9118800E+02  0.7818609E-02  0.1379984E+01
      -11   -1    0    0    0    0  0.00000000000E+00  0.00000000000E+00  0.35740347158E-01  0.35744000000E-01  0.51099999109E-03 0.  1.
       11   -1    0    0    0    0 -0.00000000000E+00 -0.00000000000E+00 -0.35740347158E-01  0.35744000000E-01  0.51099999109E-03 0. -1.
       22    1    1    2    0    0 -0.76281195634E-02  0.46921902074E-02 -0.15911307150E-01  0.18258547375E-01  0.00000000000E+00 0. -1.
  9000001    1    1    2    0    0  0.76281195634E-02 -0.46921902074E-02  0.15911307150E-01  0.53229452625E-01  0.50000000745E-01 0.  1.
</event>
<event>
 4   0  0.6886900E-01  0.9118800E+02  0.7818609E-02  0.1379984E+01
      -11   -1    0    0    0    0  0.00000000000E+00  0.00000000000E+00  0.35740347158E-01  0.35744000000E-01  0.51099999109E-03 0. -1.
       11   -1    0    0    0    0 -0.00000000000E+00 -0.00000000000E+00 -0.35740347158E-01  0.35744000000E-01  0.51099999109E-03 0.  1.
       22    1    1    2    0    0 -0.84849630281E-04  0.38239200686E-02  0.17853430709E-01  0.18258547375E-01  0.00000000000E+00 0.  1.
  9000001    1    1    2    0    0  0.84849630281E-04 -0.38239200686E-02 -0.17853430709E-01  0.53229452625E-01  0.50000000745E-01 0.  1.
</event>
<event>
 4   0  0.6886900E-01  0.9118800E+02  0.7818609E-02  0.1379984E+01
      -11   -1    0    0    0    0  0.00000000000E+00  0.00000000000E+00  0.35740347158E-01  0.35744000000E-01  0.51099999109E-03 0.  1.
       11   -1    0    0    0    0 -0.00000000000E+00 -0.00000000000E+00 -0.35740347158E-01  0.35744000000E-01  0.51099999109E-03 0. -1.
       22    1    1    2    0    0  0.63932049031E-02  0.53099741943E-02  0.16257480044E-01  0.18258547375E-01  0.00000000000E+00 0.  1.
  9000001    1    1    2    0    0 -0.63932049031E-02 -0.53099741943E-02 -0.16257480044E-01  0.53229452625E-01  0.50000000745E-01 0. -1.
</event>
<event>
 4   0  0.6886900E-01  0.9118800E+02  0.7818609E-02  0.1379984E+01
      -11   -1    0    0    0    0  0.00000000000E+00  0.00000000000E+00  0.35740347158E-01  0.35744000000E-01  0.51099999109E-03 0. -1.
       11   -1    0    0    0    0 -0.00000000000E+00 -0.00000000000E+00 -0.35740347158E-01  0.35744000000E-01  0.51099999109E-03 0.  1.
       22    1    1    2    0    0  0.46919685850E-02  0.12771463616E-01 -0.12175783348E-01  0.18258547375E-01  0.00000000000E+00 0.  1.
  9000001    1    1    2    0    0 -0.46919685850E-02 -0.12771463616E-01  0.12175783348E-01  0.53229452625E-01  0.50000000745E-01 0. -1.
</event>
<event>
 4   0  0.6886900E-01  0.9118800E+02  0.7818609E-02  0.1379984E+01
      -11   -1    0    0    0    0  0.00000000000E+00  0.00000000000E+00  0.35740347158E-01  0.35744000000E-01  0.51099999109E-03 0. -1.
       11   -1    0    0    0    0 -0.00000000000E+00 -0.00000000000E+00 -0.35740347158E-01  0.35744000000E-01  0.51099999109E-03 0.  1.
       22    1    1    2    0    0 -0.48780462741E-03  0.94027660581E-02  0.15643675698E-01  0.18258547375E-01  0.00000000000E+00 0. -1.
  9000001    1    1    2    0    0  0.48780462741E-03 -0.94027660581E-02 -0.15643675698E-01  0.53229452625E-01  0.50000000745E-01 0.  1.
</event>
<event>
 4   0  0.6886900E-01  0.9118800E+02  0.7818609E-02  0.1379984E+01
      -11   -1    0    0    0    0  0.00000000000E+00  0.00000000000E+00  0.35740347158E-01  0.35744000000E-01  0.51099999109E-03 0. -1.
       11   -1    0    0    0    0 -0.00000000000E+00 -0.00000000000E+00 -0.35740347158E-01  0.35744000000E-01  0.51099999109E-03 0.  1.
       22    1    1    2    0    0 -0.69206275970E-02 -0.26356271608E-03  0.16894081822E-01  0.18258547375E-01  0.00000000000E+00 0. -1.
  9000001    1    1    2    0    0  0.69206275970E-02  0.26356271608E-03 -0.16894081822E-01  0.53229452625E-01  0.50000000745E-01 0.  1.
</event>
<event>
 4   0  0.6886900E-01  0.9118800E+02  0.7818609E-02  0.1379984E+01
      -11   -1    0    0    0    0  0.00000000000E+00  0.00000000000E+00  0.35740347158E-01  0.35744000000E-01  0.51099999109E-03 0. -1.
       11   -1    0    0    0    0 -0.00000000000E+00 -0.00000000000E+00 -0.35740347158E-01  0.35744000000E-01  0.51099999109E-03 0.  1.
       22    1    1    2    0    0 -0.71713782414E-02  0.42793665513E-02  0.16236776413E-01  0.18258547375E-01  0.00000000000E+00 0. -1.
  9000001    1    1    2    0    0  0.71713782414E-02 -0.42793665513E-02 -0.16236776413E-01  0.53229452625E-01  0.50000000745E-01 0.  1.
</event>
<event>
 4   0  0.6886900E-01  0.9118800E+02  0.7818609E-02  0.1379984E+01
      -11   -1    0    0    0    0  0.00000000000E+00  0.00000000000E+00  0.35740347158E-01  0.35744000000E-01  0.51099999109E-03 0. -1.
       11   -1    0    0    0    0 -0.00000000000E+00 -0.00000000000E+00 -0.35740347158E-01  0.35744000000E-01  0.51099999109E-03 0.  1.
       22    1    1    2    0    0  0.16425254685E-01 -0.66330423116E-02 -0.44258683289E-02  0.18258547375E-01  0.00000000000E+00 0.  1.
  9000001    1    1    2    0    0 -0.16425254685E-01  0.66330423116E-02  0.44258683289E-02  0.53229452625E-01  0.50000000745E-01 0. -1.
</event>
<event>
 4   0  0.6886900E-01  0.9118800E+02  0.7818609E-02  0.1379984E+01
      -11   -1    0    0    0    0  0.00000000000E+00  0.00000000000E+00  0.35740347158E-01  0.35744000000E-01  0.51099999109E-03 0.  1.
       11   -1    0    0    0    0 -0.00000000000E+00 -0.00000000000E+00 -0.35740347158E-01  0.35744000000E-01  0.51099999109E-03 0. -1.
       22    1    1    2    0    0  0.23599829239E-02 -0.25551300119E-02  0.17924183202E-01  0.18258547375E-01  0.00000000000E+00 0.  1.
  9000001    1    1    2    0    0 -0.23599829239E-02  0.25551300119E-02 -0.17924183202E-01  0.53229452625E-01  0.50000000745E-01 0. -1.
</event>
<event>
 4   0  0.6886900E-01  0.9118800E+02  0.7818609E-02  0.1379984E+01
      -11   -1    0    0    0    0  0.00000000000E+00  0.00000000000E+00  0.35740347158E-01  0.35744000000E-01  0.51099999109E-03 0.  1.
       11   -1    0    0    0    0 -0.00000000000E+00 -0.00000000000E+00 -0.35740347158E-01  0.35744000000E-01  0.51099999109E-03 0. -1.
       22    1    1    2    0    0  0.48167320308E-02 -0.95449323402E-03  0.17585863284E-01  0.18258547375E-01  0.00000000000E+00 0.  1.
  9000001    1    1    2    0    0 -0.48167320308E-02  0.95449323402E-03 -0.17585863284E-01  0.53229452625E-01  0.50000000745E-01 0. -1.
</event>
<event>
 4   0  0.6886900E-01  0.9118800E+02  0.7818609E-02  0.1379984E+01
      -11   -1    0    0    0    0  0.00000000000E+00  0.00000000000E+00  0.35740347158E-01  0.35744000000E-01  0.51099999109E-03 0. -1.
       11   -1    0    0    0    0 -0.00000000000E+00 -0.00000000000E+00 -0.35740347158E-01  0.35744000000E-01  0.51099999109E-03 0.  1.
       22    1    1    2    0    0 -0.96555433545E-02 -0.11380838204E-01 -0.10517678287E-01  0.18258547375E-01  0.00000000000E+00 0.  1.
  9000001    1    1    2    0    0  0.96555433545E-02  0.11380838204E-01  0.10517678287E-01  0.53229452625E-01  0.50000000745E-01 0. -1.
</event>
<event>
 4   0  0.6886900E-01  0.9118800E+02  0.7818609E-02  0.1379984E+01
      -11   -1    0    0    0    0  0.00000000000E+00  0.00000000000E+00  0.35740347158E-01  0.35744000000E-01  0.51099999109E-03 0. -1.
       11   -1    0    0    0    0 -0.00000000000E+00 -0.00000000000E+00 -0.35740347158E-01  0.35744000000E-01  0.51099999109E-03 0.  1.
       22    1    1    2    0    0  0.43697673956E-02  0.86467246561E-02 -0.15476234616E-01  0.18258547375E-01  0.00000000000E+00 0.  1.
  9000001    1    1    2    0    0 -0.43697673956E-02 -0.86467246561E-02  0.15476234616E-01  0.53229452625E-01  0.50000000745E-01 0. -1.
</event>
<event>
 4   0  0.6886900E-01  0.9118800E+02  0.7818609E-02  0.1379984E+01
      -11   -1    0    0    0    0  0.00000000000E+00  0.00000000000E+00  0.35740347158E-01  0.35744000000E-01  0.51099999109E-03 0.  1.
       11   -1    0    0    0    0 -0.00000000000E+00 -0.00000000000E+00 -0.35740347158E-01  0.35744000000E-01  0.51099999109E-03 0. -1.
       22    1    1    2    0    0  0.17778664550E-01 -0.63573127778E-03  0.41096818390E-02  0.18258547375E-01  0.00000000000E+00 0.  1.
  9000001    1    1    2    0    0 -0.17778664550E-01  0.63573127778E-03 -0.41096818390E-02  0.53229452625E-01  0.50000000745E-01 0. -1.
</event>
<event>
 4   0  0.6886900E-01  0.9118800E+02  0.7818609E-02  0.1379984E+01
      -11   -1    0    0    0    0  0.00000000000E+00  0.00000000000E+00  0.35740347158E-01  0.35744000000E-01  0.51099999109E-03 0. -1.
       11   -1    0    0    0    0 -0.00000000000E+00 -0.00000000000E+00 -0.35740347158E-01  0.35744000000E-01  0.51099999109E-03 0.  1.
       22    1    1    2    0    0 -0.43870666047E-02  0.59685593902E-02 -0.16688454022E-01  0.18258547375E-01  0.00000000000E+00 0. -1.
  9000001    1    1    2    0    0  0.43870666047E-02 -0.59685593902E-02  0.16688454022E-01  0.53229452625E-01  0.50000000745E-01 0. -1.
</event>
<event>
 4   0  0.6886900E-01  0.9118800E+02  0.7818609E-02  0.1379984E+01
      -11   -1    0    0    0    0  0.00000000000E+00  0.00000000000E+00  0.35740347158E-01  0.35744000000E-01  0.51099999109E-03 0. -1.
       11   -1    0    0    0    0 -0.00000000000E+00 -0.00000000000E+00 -0.35740347158E-01  0.35744000000E-01  0.51099999109E-03 0.  1.
       22    1    1    2    0    0 -0.10854798957E-01  0.84592729324E-02  0.11999524711E-01  0.18258547375E-01  0.00000000000E+00 0. -1.
  9000001    1    1    2    0    0  0.10854798957E-01 -0.84592729324E-02 -0.11999524711E-01  0.53229452625E-01  0.50000000745E-01 0.  1.
</event>
<event>
 4   0  0.6886900E-01  0.9118800E+02  0.7818609E-02  0.1379984E+01
      -11   -1    0    0    0    0  0.00000000000E+00  0.00000000000E+00  0.35740347158E-01  0.35744000000E-01  0.51099999109E-03 0.  1.
       11   -1    0    0    0    0 -0.00000000000E+00 -0.00000000000E+00 -0.35740347158E-01  0.35744000000E-01  0.51099999109E-03 0. -1.
       22    1    1    2    0    0 -0.16512814457E-01  0.48820345660E-02  0.60718406962E-02  0.18258547375E-01  0.00000000000E+00 0.  1.
  9000001    1    1    2    0    0  0.16512814457E-01 -0.48820345660E-02 -0.60718406962E-02  0.53229452625E-01  0.50000000745E-01 0. -1.
</event>
<event>
 4   0  0.6886900E-01  0.9118800E+02  0.7818609E-02  0.1379984E+01
      -11   -1    0    0    0    0  0.00000000000E+00  0.00000000000E+00  0.35740347158E-01  0.35744000000E-01  0.51099999109E-03 0.  1.
       11   -1    0    0    0    0 -0.00000000000E+00 -0.00000000000E+00 -0.35740347158E-01  0.35744000000E-01  0.51099999109E-03 0. -1.
       22    1    1    2    0    0 -0.55340335119E-02  0.17397474728E-01 -0.27730566034E-03  0.18258547375E-01  0.00000000000E+00 0. -1.
  9000001    1    1    2    0    0  0.55340335119E-02 -0.17397474728E-01  0.27730566034E-03  0.53229452625E-01  0.50000000745E-01 0.  0.
</event>
<event>
 4   0  0.6886900E-01  0.9118800E+02  0.7818609E-02  0.1379984E+01
      -11   -1    0    0    0    0  0.00000000000E+00  0.00000000000E+00  0.35740347158E-01  0.35744000000E-01  0.51099999109E-03 0. -1.
       11   -1    0    0    0    0 -0.00000000000E+00 -0.00000000000E+00 -0.35740347158E-01  0.35744000000E-01  0.51099999109E-03 0.  1.
       22    1    1    2    0    0  0.53689287239E-02 -0.18694335265E-03 -0.17450335492E-01  0.18258547375E-01  0.00000000000E+00 0.  1.
  9000001    1    1    2    0    0 -0.53689287239E-02  0.18694335265E-03  0.17450335492E-01  0.53229452625E-01  0.50000000745E-01 0. -1.
</event>
<event>
 4   0  0.6886900E-01  0.9118800E+02  0.7818609E-02  0.1379984E+01
      -11   -1    0    0    0    0  0.00000000000E+00  0.00000000000E+00  0.35740347158E-01  0.35744000000E-01  0.51099999109E-03 0.  1.
       11   -1    0    0    0    0 -0.00000000000E+00 -0.00000000000E+00 -0.35740347158E-01  0.35744000000E-01  0.51099999109E-03 0. -1.
       22    1    1    2    0    0 -0.64881280814E-02 -0.34571768531E-02 -0.16713068972E-01  0.18258547375E-01  0.00000000000E+00 0. -1.
  9000001    1    1    2    0    0  0.64881280814E-02  0.34571768531E-02  0.16713068972E-01  0.53229452625E-01  0.50000000745E-01 0.  1.
</event>
<event>
 4   0  0.6886900E-01  0.9118800E+02  0.7818609E-02  0.1379984E+01
      -11   -1    0    0    0    0  0.00000000000E+00  0.00000000000E+00  0.35740347158E-01  0.35744000000E-01  0.51099999109E-03 0.  1.
       11   -1    0    0    0    0 -0.00000000000E+00 -0.00000000000E+00 -0.35740347158E-01  0.35744000000E-01  0.51099999109E-03 0. -1.
       22    1    1    2    0    0 -0.63456327997E-03 -0.46383582912E-02  0.17648158942E-01  0.18258547375E-01  0.00000000000E+00 0.  1.
  9000001    1    1    2    0    0  0.63456327997E-03  0.46383582912E-02 -0.17648158942E-01  0.53229452625E-01  0.50000000745E-01 0. -1.
</event>
<event>
 4   0  0.6886900E-01  0.9118800E+02  0.7818609E-02  0.1379984E+01
      -11   -1    0    0    0    0  0.00000000000E+00  0.00000000000E+00  0.35740347158E-01  0.35744000000E-01  0.51099999109E-03 0. -1.
       11   -1    0    0    0    0 -0.00000000000E+00 -0.00000000000E+00 -0.35740347158E-01  0.35744000000E-01  0.51099999109E-03 0.  1.
       22    1    1    2    0    0  0.60021783623E-02 -0.10299470422E-02 -0.17213007182E-01  0.18258547375E-01  0.00000000000E+00 0.  1.
  9000001    1    1    2    0    0 -0.60021783623E-02  0.10299470422E-02  0.17213007182E-01  0.53229452625E-01  0.50000000745E-01 0. -1.
</event>
<event>
 4   0  0.6886900E-01  0.9118800E+02  0.7818609E-02  0.1379984E+01
      -11   -1    0    0    0    0  0.00000000000E+00  0.00000000000E+00  0.35740347158E-01  0.35744000000E-01  0.51099999109E-03 0. -1.
       11   -1    0    0    0    0 -0.00000000000E+00 -0.00000000000E+00 -0.35740347158E-01  0.35744000000E-01  0.51099999109E-03 0.  1.
       22    1    1    2    0    0  0.52916106370E-02 -0.11180281491E-02 -0.17439134788E-01  0.18258547375E-01  0.00000000000E+00 0.  1.
  9000001    1    1    2    0    0 -0.52916106370E-02  0.11180281491E-02  0.17439134788E-01  0.53229452625E-01  0.50000000745E-01 0. -1.
</event>
<event>
 4   0  0.6886900E-01  0.9118800E+02  0.7818609E-02  0.1379984E+01
      -11   -1    0    0    0    0  0.00000000000E+00  0.00000000000E+00  0.35740347158E-01  0.35744000000E-01  0.51099999109E-03 0.  1.
       11   -1    0    0    0    0 -0.00000000000E+00 -0.00000000000E+00 -0.35740347158E-01  0.35744000000E-01  0.51099999109E-03 0. -1.
       22    1    1    2    0    0  0.93060977065E-03 -0.13479920777E-01 -0.12280075470E-01  0.18258547375E-01  0.00000000000E+00 0. -1.
  9000001    1    1    2    0    0 -0.93060977065E-03  0.13479920777E-01  0.12280075470E-01  0.53229452625E-01  0.50000000745E-01 0.  0.
</event>
<event>
 4   0  0.6886900E-01  0.9118800E+02  0.7818609E-02  0.1379984E+01
      -11   -1    0    0    0    0  0.00000000000E+00  0.00000000000E+00  0.35740347158E-01  0.35744000000E-01  0.51099999109E-03 0. -1.
       11   -1    0    0    0    0 -0.00000000000E+00 -0.00000000000E+00 -0.35740347158E-01  0.35744000000E-01  0.51099999109E-03 0.  1.
       22    1    1    2    0    0 -0.18208524690E-02  0.38647527789E-02  0.17751696665E-01  0.18258547375E-01  0.00000000000E+00 0. -1.
  9000001    1    1    2    0    0  0.18208524690E-02 -0.38647527789E-02 -0.17751696665E-01  0.53229452625E-01  0.50000000745E-01 0.  1.
</event>
<event>
 4   0  0.6886900E-01  0.9118800E+02  0.7818609E-02  0.1379984E+01
      -11   -1    0    0    0    0  0.00000000000E+00  0.00000000000E+00  0.35740347158E-01  0.35744000000E-01  0.51099999109E-03 0.  1.
       11   -1    0    0    0    0 -0.00000000000E+00 -0.00000000000E+00 -0.35740347158E-01  0.35744000000E-01  0.51099999109E-03 0. -1.
       22    1    1    2    0    0  0.11677824305E-01 -0.13800801296E-01 -0.25575096000E-02  0.18258547375E-01  0.00000000000E+00 0.  1.
  9000001    1    1    2    0    0 -0.11677824305E-01  0.13800801296E-01  0.25575096000E-02  0.53229452625E-01  0.50000000745E-01 0.  1.
</event>
<event>
 4   0  0.6886900E-01  0.9118800E+02  0.7818609E-02  0.1379984E+01
      -11   -1    0    0    0    0  0.00000000000E+00  0.00000000000E+00  0.35740347158E-01  0.35744000000E-01  0.51099999109E-03 0. -1.
       11   -1    0    0    0    0 -0.00000000000E+00 -0.00000000000E+00 -0.35740347158E-01  0.35744000000E-01  0.51099999109E-03 0.  1.
       22    1    1    2    0    0 -0.13743723007E-01  0.75629949028E-02 -0.93426836748E-02  0.18258547375E-01  0.00000000000E+00 0.  1.
  9000001    1    1    2    0    0  0.13743723007E-01 -0.75629949028E-02  0.93426836748E-02  0.53229452625E-01  0.50000000745E-01 0. -1.
</event>
<event>
 4   0  0.6886900E-01  0.9118800E+02  0.7818609E-02  0.1379984E+01
      -11   -1    0    0    0    0  0.00000000000E+00  0.00000000000E+00  0.35740347158E-01  0.35744000000E-01  0.51099999109E-03 0. -1.
       11   -1    0    0    0    0 -0.00000000000E+00 -0.00000000000E+00 -0.35740347158E-01  0.35744000000E-01  0.51099999109E-03 0.  1.
       22    1    1    2    0    0  0.99234100534E-02  0.33500247395E-02  0.14955862376E-01  0.18258547375E-01  0.00000000000E+00 0. -1.
  9000001    1    1    2    0    0 -0.99234100534E-02 -0.33500247395E-02 -0.14955862376E-01  0.53229452625E-01  0.50000000745E-01 0.  1.
</event>
<event>
 4   0  0.6886900E-01  0.9118800E+02  0.7818609E-02  0.1379984E+01
      -11   -1    0    0    0    0  0.00000000000E+00  0.00000000000E+00  0.35740347158E-01  0.35744000000E-01  0.51099999109E-03 0. -1.
       11   -1    0    0    0    0 -0.00000000000E+00 -0.00000000000E+00 -0.35740347158E-01  0.35744000000E-01  0.51099999109E-03 0.  1.
       22    1    1    2    0    0 -0.71200256984E-02  0.48746559968E-02 -0.16090914058E-01  0.18258547375E-01  0.00000000000E+00 0. -1.
  9000001    1    1    2    0    0  0.71200256984E-02 -0.48746559968E-02  0.16090914058E-01  0.53229452625E-01  0.50000000745E-01 0. -1.
</event>
<event>
 4   0  0.6886900E-01  0.9118800E+02  0.7818609E-02  0.1379984E+01
      -11   -1    0    0    0    0  0.00000000000E+00  0.00000000000E+00  0.35740347158E-01  0.35744000000E-01  0.51099999109E-03 0.  1.
       11   -1    0    0    0    0 -0.00000000000E+00 -0.00000000000E+00 -0.35740347158E-01  0.35744000000E-01  0.51099999109E-03 0. -1.
       22    1    1    2    0    0  0.61259757878E-02  0.42324943352E-02 -0.16671321621E-01  0.18258547375E-01  0.00000000000E+00 0. -1.
  9000001    1    1    2    0    0 -0.61259757878E-02 -0.42324943352E-02  0.16671321621E-01  0.53229452625E-01  0.50000000745E-01 0.  0.
</event>
<event>
 4   0  0.6886900E-01  0.9118800E+02  0.7818609E-02  0.1379984E+01
      -11   -1    0    0    0    0  0.00000000000E+00  0.00000000000E+00  0.35740347158E-01  0.35744000000E-01  0.51099999109E-03 0.  1.
       11   -1    0    0    0    0 -0.00000000000E+00 -0.00000000000E+00 -0.35740347158E-01  0.35744000000E-01  0.51099999109E-03 0. -1.
       22    1    1    2    0    0  0.22122573745E-04  0.67919787807E-02  0.16948247316E-01  0.18258547375E-01  0.00000000000E+00 0.  1.
  9000001    1    1    2    0    0 -0.22122573745E-04 -0.67919787807E-02 -0.16948247316E-01  0.53229452625E-01  0.50000000745E-01 0. -1.
</event>
<event>
 4   0  0.6886900E-01  0.9118800E+02  0.7818609E-02  0.1379984E+01
      -11   -1    0    0    0    0  0.00000000000E+00  0.00000000000E+00  0.35740347158E-01  0.35744000000E-01  0.51099999109E-03 0. -1.
       11   -1    0    0    0    0 -0.00000000000E+00 -0.00000000000E+00 -0.35740347158E-01  0.35744000000E-01  0.51099999109E-03 0.  1.
       22    1    1    2    0    0  0.12922221099E-01  0.36124546365E-02 -0.12383090310E-01  0.18258547375E-01  0.00000000000E+00 0. -1.
  9000001    1    1    2    0    0 -0.12922221099E-01 -0.36124546365E-02  0.12383090310E-01  0.53229452625E-01  0.50000000745E-01 0. -1.
</event>
<event>
 4   0  0.6886900E-01  0.9118800E+02  0.7818609E-02  0.1379984E+01
      -11   -1    0    0    0    0  0.00000000000E+00  0.00000000000E+00  0.35740347158E-01  0.35744000000E-01  0.51099999109E-03 0. -1.
       11   -1    0    0    0    0 -0.00000000000E+00 -0.00000000000E+00 -0.35740347158E-01  0.35744000000E-01  0.51099999109E-03 0.  1.
       22    1    1    2    0    0  0.17364086953E-01 -0.35870801082E-04  0.56446213191E-02  0.18258547375E-01  0.00000000000E+00 0.  1.
  9000001    1    1    2    0    0 -0.17364086953E-01  0.35870801082E-04 -0.56446213191E-02  0.53229452625E-01  0.50000000745E-01 0.  1.
</event>
<event>
 4   0  0.6886900E-01  0.9118800E+02  0.7818609E-02  0.1379984E+01
      -11   -1    0    0    0    0  0.00000000000E+00  0.00000000000E+00  0.35740347158E-01  0.35744000000E-01  0.51099999109E-03 0.  1.
       11   -1    0    0    0    0 -0.00000000000E+00 -0.00000000000E+00 -0.35740347158E-01  0.35744000000E-01  0.51099999109E-03 0. -1.
       22    1    1    2    0    0 -0.17095521425E-01 -0.63535299804E-02  0.86623105902E-03  0.18258547375E-01  0.00000000000E+00 0.  1.
  9000001    1    1    2    0    0  0.17095521425E-01  0.63535299804E-02 -0.86623105902E-03  0.53229452625E-01  0.50000000745E-01 0.  1.
</event>
<event>
 4   0  0.6886900E-01  0.9118800E+02  0.7818609E-02  0.1379984E+01
      -11   -1    0    0    0    0  0.00000000000E+00  0.00000000000E+00  0.35740347158E-01  0.35744000000E-01  0.51099999109E-03 0. -1.
       11   -1    0    0    0    0 -0.00000000000E+00 -0.00000000000E+00 -0.35740347158E-01  0.35744000000E-01  0.51099999109E-03 0.  1.
       22    1    1    2    0    0  0.93508408507E-02 -0.45846991612E-02  0.14997228452E-01  0.18258547375E-01  0.00000000000E+00 0. -1.
  9000001    1    1    2    0    0 -0.93508408507E-02  0.45846991612E-02 -0.14997228452E-01  0.53229452625E-01  0.50000000745E-01 0.  1.
</event>
<event>
 4   0  0.6886900E-01  0.9118800E+02  0.7818609E-02  0.1379984E+01
      -11   -1    0    0    0    0  0.00000000000E+00  0.00000000000E+00  0.35740347158E-01  0.35744000000E-01  0.51099999109E-03 0.  1.
       11   -1    0    0    0    0 -0.00000000000E+00 -0.00000000000E+00 -0.35740347158E-01  0.35744000000E-01  0.51099999109E-03 0. -1.
       22    1    1    2    0    0 -0.12700046150E-01 -0.32783351638E-02  0.12701806902E-01  0.18258547375E-01  0.00000000000E+00 0.  1.
  9000001    1    1    2    0    0  0.12700046150E-01  0.32783351638E-02 -0.12701806902E-01  0.53229452625E-01  0.50000000745E-01 0. -1.
</event>
<event>
 4   0  0.6886900E-01  0.9118800E+02  0.7818609E-02  0.1379984E+01
      -11   -1    0    0    0    0  0.00000000000E+00  0.00000000000E+00  0.35740347158E-01  0.35744000000E-01  0.51099999109E-03 0.  1.
       11   -1    0    0    0    0 -0.00000000000E+00 -0.00000000000E+00 -0.35740347158E-01  0.35744000000E-01  0.51099999109E-03 0. -1.
       22    1    1    2    0    0 -0.14201182919E-01  0.10824568696E-01  0.38117802236E-02  0.18258547375E-01  0.00000000000E+00 0. -1.
  9000001    1    1    2    0    0  0.14201182919E-01 -0.10824568696E-01 -0.38117802236E-02  0.53229452625E-01  0.50000000745E-01 0.  0.
</event>
<event>
 4   0  0.6886900E-01  0.9118800E+02  0.7818609E-02  0.1379984E+01
      -11   -1    0    0    0    0  0.00000000000E+00  0.00000000000E+00  0.35740347158E-01  0.35744000000E-01  0.51099999109E-03 0.  1.
       11   -1    0    0    0    0 -0.00000000000E+00 -0.00000000000E+00 -0.35740347158E-01  0.35744000000E-01  0.51099999109E-03 0. -1.
       22    1    1    2    0    0 -0.26955851199E-02 -0.45018200925E-02  0.17488338656E-01  0.18258547375E-01  0.00000000000E+00 0. -1.
  9000001    1    1    2    0    0  0.26955851199E-02  0.45018200925E-02 -0.17488338656E-01  0.53229452625E-01  0.50000000745E-01 0. -1.
</event>
<event>
 4   0  0.6886900E-01  0.9118800E+02  0.7818609E-02  0.1379984E+01
      -11   -1    0    0    0    0  0.00000000000E+00  0.00000000000E+00  0.35740347158E-01  0.35744000000E-01  0.51099999109E-03 0. -1.
       11   -1    0    0    0    0 -0.00000000000E+00 -0.00000000000E+00 -0.35740347158E-01  0.35744000000E-01  0.51099999109E-03 0.  1.
       22    1    1    2    0    0 -0.93789728701E-02 -0.40734248982E-02  0.15126686013E-01  0.18258547375E-01  0.00000000000E+00 0. -1.
  9000001    1    1    2    0    0  0.93789728701E-02  0.40734248982E-02 -0.15126686013E-01  0.53229452625E-01  0.50000000745E-01 0.  1.
</event>
<event>
 4   0  0.6886900E-01  0.9118800E+02  0.7818609E-02  0.1379984E+01
      -11   -1    0    0    0    0  0.00000000000E+00  0.00000000000E+00  0.35740347158E-01  0.35744000000E-01  0.51099999109E-03 0.  1.
       11   -1    0    0    0    0 -0.00000000000E+00 -0.00000000000E+00 -0.35740347158E-01  0.35744000000E-01  0.51099999109E-03 0. -1.
       22    1    1    2    0    0  0.24843824554E-02 -0.35067678359E-02 -0.17745562133E-01  0.18258547375E-01  0.00000000000E+00 0. -1.
  9000001    1    1    2    0    0 -0.24843824554E-02  0.35067678359E-02  0.17745562133E-01  0.53229452625E-01  0.50000000745E-01 0.  1.
</event>
<event>
 4   0  0.6886900E-01  0.9118800E+02  0.7818609E-02  0.1379984E+01
      -11   -1    0    0    0    0  0.00000000000E+00  0.00000000000E+00  0.35740347158E-01  0.35744000000E-01  0.51099999109E-03 0.  1.
       11   -1    0    0    0    0 -0.00000000000E+00 -0.00000000000E+00 -0.35740347158E-01  0.35744000000E-01  0.51099999109E-03 0. -1.
       22    1    1    2    0    0  0.21720564202E-02  0.48522181039E-02  0.17467475565E-01  0.18258547375E-01  0.00000000000E+00 0.  1.
  9000001    1    1    2    0    0 -0.21720564202E-02 -0.48522181039E-02 -0.17467475565E-01  0.53229452625E-01  0.50000000745E-01 0. -1.
</event>
<event>
 4   0  0.6886900E-01  0.9118800E+02  0.7818609E-02  0.1379984E+01
      -11   -1    0    0    0    0  0.00000000000E+00  0.00000000000E+00  0.35740347158E-01  0.35744000000E-01  0.51099999109E-03 0.  1.
       11   -1    0    0    0    0 -0.00000000000E+00 -0.00000000000E+00 -0.35740347158E-01  0.35744000000E-01  0.51099999109E-03 0. -1.
       22    1    1    2    0    0  0.78724277822E-02 -0.72711448552E-02  0.14782756359E-01  0.18258547375E-01  0.00000000000E+00 0.  1.
  9000001    1    1    2    0    0 -0.78724277822E-02  0.72711448552E-02 -0.14782756359E-01  0.53229452625E-01  0.50000000745E-01 0. -1.
</event>
<event>
 4   0  0.6886900E-01  0.9118800E+02  0.7818609E-02  0.1379984E+01
      -11   -1    0    0    0    0  0.00000000000E+00  0.00000000000E+00  0.35740347158E-01  0.35744000000E-01  0.51099999109E-03 0. -1.
       11   -1    0    0    0    0 -0.00000000000E+00 -0.00000000000E+00 -0.35740347158E-01  0.35744000000E-01  0.51099999109E-03 0.  1.
       22    1    1    2    0    0  0.48533378048E-02  0.18033589000E-02  0.17509070823E-01  0.18258547375E-01  0.00000000000E+00 0.  1.
  9000001    1    1    2    0    0 -0.48533378048E-02 -0.18033589000E-02 -0.17509070823E-01  0.53229452625E-01  0.50000000745E-01 0.  0.
</event>
<event>
 4   0  0.6886900E-01  0.9118800E+02  0.7818609E-02  0.1379984E+01
      -11   -1    0    0    0    0  0.00000000000E+00  0.00000000000E+00  0.35740347158E-01  0.35744000000E-01  0.51099999109E-03 0.  1.
       11   -1    0    0    0    0 -0.00000000000E+00 -0.00000000000E+00 -0.35740347158E-01  0.35744000000E-01  0.51099999109E-03 0. -1.
       22    1    1    2    0    0 -0.35399397839E-02  0.80848586446E-03  0.17893846126E-01  0.18258547375E-01  0.00000000000E+00 0.  1.
  9000001    1    1    2    0    0  0.35399397839E-02 -0.80848586446E-03 -0.17893846126E-01  0.53229452625E-01  0.50000000745E-01 0. -1.
</event>
<event>
 4   0  0.6886900E-01  0.9118800E+02  0.7818609E-02  0.1379984E+01
      -11   -1    0    0    0    0  0.00000000000E+00  0.00000000000E+00  0.35740347158E-01  0.35744000000E-01  0.51099999109E-03 0. -1.
       11   -1    0    0    0    0 -0.00000000000E+00 -0.00000000000E+00 -0.35740347158E-01  0.35744000000E-01  0.51099999109E-03 0.  1.
       22    1    1    2    0    0 -0.16638408464E-01  0.27657992347E-02 -0.69920147753E-02  0.18258547375E-01  0.00000000000E+00 0.  1.
  9000001    1    1    2    0    0  0.16638408464E-01 -0.27657992347E-02  0.69920147753E-02  0.53229452625E-01  0.50000000745E-01 0. -1.
</event>
<event>
 4   0  0.6886900E-01  0.9118800E+02  0.7818609E-02  0.1379984E+01
      -11   -1    0    0    0    0  0.00000000000E+00  0.00000000000E+00  0.35740347158E-01  0.35744000000E-01  0.51099999109E-03 0.  1.
       11   -1    0    0    0    0 -0.00000000000E+00 -0.00000000000E+00 -0.35740347158E-01  0.35744000000E-01  0.51099999109E-03 0. -1.
       22    1    1    2    0    0 -0.89690747914E-02 -0.88231159315E-02  0.13231888561E-01  0.18258547375E-01  0.00000000000E+00 0.  1.
  9000001    1    1    2    0    0  0.89690747914E-02  0.88231159315E-02 -0.13231888561E-01  0.53229452625E-01  0.50000000745E-01 0. -1.
</event>
<event>
 4   0  0.6886900E-01  0.9118800E+02  0.7818609E-02  0.1379984E+01
      -11   -1    0    0    0    0  0.00000000000E+00  0.00000000000E+00  0.35740347158E-01  0.35744000000E-01  0.51099999109E-03 0. -1.
       11   -1    0    0    0    0 -0.00000000000E+00 -0.00000000000E+00 -0.35740347158E-01  0.35744000000E-01  0.51099999109E-03 0.  1.
       22    1    1    2    0    0 -0.12999455681E-01  0.23018228823E-03  0.12819349451E-01  0.18258547375E-01  0.00000000000E+00 0. -1.
  9000001    1    1    2    0    0  0.12999455681E-01 -0.23018228823E-03 -0.12819349451E-01  0.53229452625E-01  0.50000000745E-01 0.  1.
</event>
<event>
 4   0  0.6886900E-01  0.9118800E+02  0.7818609E-02  0.1379984E+01
      -11   -1    0    0    0    0  0.00000000000E+00  0.00000000000E+00  0.35740347158E-01  0.35744000000E-01  0.51099999109E-03 0. -1.
       11   -1    0    0    0    0 -0.00000000000E+00 -0.00000000000E+00 -0.35740347158E-01  0.35744000000E-01  0.51099999109E-03 0.  1.
       22    1    1    2    0    0 -0.46962508268E-02  0.14458791730E-02  0.17584914382E-01  0.18258547375E-01  0.00000000000E+00 0. -1.
  9000001    1    1    2    0    0  0.46962508268E-02 -0.14458791730E-02 -0.17584914382E-01  0.53229452625E-01  0.50000000745E-01 0.  1.
</event>
<event>
 4   0  0.6886900E-01  0.9118800E+02  0.7818609E-02  0.1379984E+01
      -11   -1    0    0    0    0  0.00000000000E+00  0.00000000000E+00  0.35740347158E-01  0.35744000000E-01  0.51099999109E-03 0.  1.
       11   -1    0    0    0    0 -0.00000000000E+00 -0.00000000000E+00 -0.35740347158E-01  0.35744000000E-01  0.51099999109E-03 0. -1.
       22    1    1    2    0    0  0.15563520615E-01  0.57822674764E-02  0.75971548054E-02  0.18258547375E-01  0.00000000000E+00 0.  1.
  9000001    1    1    2    0    0 -0.15563520615E-01 -0.57822674764E-02 -0.75971548054E-02  0.53229452625E-01  0.50000000745E-01 0. -1.
</event>
<event>
 4   0  0.6886900E-01  0.9118800E+02  0.7818609E-02  0.1379984E+01
      -11   -1    0    0    0    0  0.00000000000E+00  0.00000000000E+00  0.35740347158E-01  0.35744000000E-01  0.51099999109E-03 0.  1.
       11   -1    0    0    0    0 -0.00000000000E+00 -0.00000000000E+00 -0.35740347158E-01  0.35744000000E-01  0.51099999109E-03 0. -1.
       22    1    1    2    0    0 -0.50259630406E-02 -0.77052871516E-02 -0.15771581965E-01  0.18258547375E-01  0.00000000000E+00 0. -1.
  9000001    1    1    2    0    0  0.50259630406E-02  0.77052871516E-02  0.15771581965E-01  0.53229452625E-01  0.50000000745E-01 0.  0.
</event>
<event>
 4   0  0.6886900E-01  0.9118800E+02  0.7818609E-02  0.1379984E+01
      -11   -1    0    0    0    0  0.00000000000E+00  0.00000000000E+00  0.35740347158E-01  0.35744000000E-01  0.51099999109E-03 0.  1.
       11   -1    0    0    0    0 -0.00000000000E+00 -0.00000000000E+00 -0.35740347158E-01  0.35744000000E-01  0.51099999109E-03 0. -1.
       22    1    1    2    0    0  0.11325576776E-02 -0.44579873323E-02  0.17669697629E-01  0.18258547375E-01  0.00000000000E+00 0.  1.
  9000001    1    1    2    0    0 -0.11325576776E-02  0.44579873323E-02 -0.17669697629E-01  0.53229452625E-01  0.50000000745E-01 0. -1.
</event>
<event>
 4   0  0.6886900E-01  0.9118800E+02  0.7818609E-02  0.1379984E+01
      -11   -1    0    0    0    0  0.00000000000E+00  0.00000000000E+00  0.35740347158E-01  0.35744000000E-01  0.51099999109E-03 0.  1.
       11   -1    0    0    0    0 -0.00000000000E+00 -0.00000000000E+00 -0.35740347158E-01  0.35744000000E-01  0.51099999109E-03 0. -1.
       22    1    1    2    0    0 -0.86178563965E-02 -0.27330525227E-02  0.15863086941E-01  0.18258547375E-01  0.00000000000E+00 0.  1.
  9000001    1    1    2    0    0  0.86178563965E-02  0.27330525227E-02 -0.15863086941E-01  0.53229452625E-01  0.50000000745E-01 0. -1.
</event>
<event>
 4   0  0.6886900E-01  0.9118800E+02  0.7818609E-02  0.1379984E+01
      -11   -1    0    0    0    0  0.00000000000E+00  0.00000000000E+00  0.35740347158E-01  0.35744000000E-01  0.51099999109E-03 0. -1.
       11   -1    0    0    0    0 -0.00000000000E+00 -0.00000000000E+00 -0.35740347158E-01  0.35744000000E-01  0.51099999109E-03 0.  1.
       22    1    1    2    0    0 -0.87706623835E-02  0.76538678044E-02  0.14066568211E-01  0.18258547375E-01  0.00000000000E+00 0.  1.
  9000001    1    1    2    0    0  0.87706623835E-02 -0.76538678044E-02 -0.14066568211E-01  0.53229452625E-01  0.50000000745E-01 0.  1.
</event>
<event>
 4   0  0.6886900E-01  0.9118800E+02  0.7818609E-02  0.1379984E+01
      -11   -1    0    0    0    0  0.00000000000E+00  0.00000000000E+00  0.35740347158E-01  0.35744000000E-01  0.51099999109E-03 0.  1.
       11   -1    0    0    0    0 -0.00000000000E+00 -0.00000000000E+00 -0.35740347158E-01  0.35744000000E-01  0.51099999109E-03 0. -1.
       22    1    1    2    0    0 -0.12049537340E-01 -0.38736608405E-02  0.13159709489E-01  0.18258547375E-01  0.00000000000E+00 0.  1.
  9000001    1    1    2    0    0  0.12049537340E-01  0.38736608405E-02 -0.13159709489E-01  0.53229452625E-01  0.50000000745E-01 0. -1.
</event>
<event>
 4   0  0.6886900E-01  0.9118800E+02  0.7818609E-02  0.1379984E+01
      -11   -1    0    0    0    0  0.00000000000E+00  0.00000000000E+00  0.35740347158E-01  0.35744000000E-01  0.51099999109E-03 0. -1.
       11   -1    0    0    0    0 -0.00000000000E+00 -0.00000000000E+00 -0.35740347158E-01  0.35744000000E-01  0.51099999109E-03 0.  1.
       22    1    1    2    0    0  0.15000597291E-01 -0.93682754829E-02  0.45378461451E-02  0.18258547375E-01  0.00000000000E+00 0. -1.
  9000001    1    1    2    0    0 -0.15000597291E-01  0.93682754829E-02 -0.45378461451E-02  0.53229452625E-01  0.50000000745E-01 0.  0.
</event>
<event>
 4   0  0.6886900E-01  0.9118800E+02  0.7818609E-02  0.1379984E+01
      -11   -1    0    0    0    0  0.00000000000E+00  0.00000000000E+00  0.35740347158E-01  0.35744000000E-01  0.51099999109E-03 0. -1.
       11   -1    0    0    0    0 -0.00000000000E+00 -0.00000000000E+00 -0.35740347158E-01  0.35744000000E-01  0.51099999109E-03 0.  1.
       22    1    1    2    0    0  0.12308789586E-01  0.65919846700E-03  0.13469733055E-01  0.18258547375E-01  0.00000000000E+00 0. -1.
  9000001    1    1    2    0    0 -0.12308789586E-01 -0.65919846700E-03 -0.13469733055E-01  0.53229452625E-01  0.50000000745E-01 0.  1.
</event>
<event>
 4   0  0.6886900E-01  0.9118800E+02  0.7818609E-02  0.1379984E+01
      -11   -1    0    0    0    0  0.00000000000E+00  0.00000000000E+00  0.35740347158E-01  0.35744000000E-01  0.51099999109E-03 0.  1.
       11   -1    0    0    0    0 -0.00000000000E+00 -0.00000000000E+00 -0.35740347158E-01  0.35744000000E-01  0.51099999109E-03 0. -1.
       22    1    1    2    0    0 -0.19125052855E-02  0.14415550828E-01 -0.11041230462E-01  0.18258547375E-01  0.00000000000E+00 0. -1.
  9000001    1    1    2    0    0  0.19125052855E-02 -0.14415550828E-01  0.11041230462E-01  0.53229452625E-01  0.50000000745E-01 0.  1.
</event>
<event>
 4   0  0.6886900E-01  0.9118800E+02  0.7818609E-02  0.1379984E+01
      -11   -1    0    0    0    0  0.00000000000E+00  0.00000000000E+00  0.35740347158E-01  0.35744000000E-01  0.51099999109E-03 0.  1.
       11   -1    0    0    0    0 -0.00000000000E+00 -0.00000000000E+00 -0.35740347158E-01  0.35744000000E-01  0.51099999109E-03 0. -1.
       22    1    1    2    0    0 -0.92812996196E-02  0.13371813162E-02 -0.15666651708E-01  0.18258547375E-01  0.00000000000E+00 0. -1.
  9000001    1    1    2    0    0  0.92812996196E-02 -0.13371813162E-02  0.15666651708E-01  0.53229452625E-01  0.50000000745E-01 0.  1.
</event>
<event>
 4   0  0.6886900E-01  0.9118800E+02  0.7818609E-02  0.1379984E+01
      -11   -1    0    0    0    0  0.00000000000E+00  0.00000000000E+00  0.35740347158E-01  0.35744000000E-01  0.51099999109E-03 0.  1.
       11   -1    0    0    0    0 -0.00000000000E+00 -0.00000000000E+00 -0.35740347158E-01  0.35744000000E-01  0.51099999109E-03 0. -1.
       22    1    1    2    0    0 -0.25937075598E-02  0.23600687500E-02 -0.17918630217E-01  0.18258547375E-01  0.00000000000E+00 0. -1.
  9000001    1    1    2    0    0  0.25937075598E-02 -0.23600687500E-02  0.17918630217E-01  0.53229452625E-01  0.50000000745E-01 0.  1.
</event>
<event>
 4   0  0.6886900E-01  0.9118800E+02  0.7818609E-02  0.1379984E+01
      -11   -1    0    0    0    0  0.00000000000E+00  0.00000000000E+00  0.35740347158E-01  0.35744000000E-01  0.51099999109E-03 0.  1.
       11   -1    0    0    0    0 -0.00000000000E+00 -0.00000000000E+00 -0.35740347158E-01  0.35744000000E-01  0.51099999109E-03 0. -1.
       22    1    1    2    0    0  0.52883640720E-02 -0.14750788940E-02 -0.17413555063E-01  0.18258547375E-01  0.00000000000E+00 0. -1.
  9000001    1    1    2    0    0 -0.52883640720E-02  0.14750788940E-02  0.17413555063E-01  0.53229452625E-01  0.50000000745E-01 0.  1.
</event>
<event>
 4   0  0.6886900E-01  0.9118800E+02  0.7818609E-02  0.1379984E+01
      -11   -1    0    0    0    0  0.00000000000E+00  0.00000000000E+00  0.35740347158E-01  0.35744000000E-01  0.51099999109E-03 0. -1.
       11   -1    0    0    0    0 -0.00000000000E+00 -0.00000000000E+00 -0.35740347158E-01  0.35744000000E-01  0.51099999109E-03 0.  1.
       22    1    1    2    0    0  0.60699620102E-02  0.60198553296E-02 -0.16133550609E-01  0.18258547375E-01  0.00000000000E+00 0. -1.
  9000001    1    1    2    0    0 -0.60699620102E-02 -0.60198553296E-02  0.16133550609E-01  0.53229452625E-01  0.50000000745E-01 0. -1.
</event>
<event>
 4   0  0.6886900E-01  0.9118800E+02  0.7818609E-02  0.1379984E+01
      -11   -1    0    0    0    0  0.00000000000E+00  0.00000000000E+00  0.35740347158E-01  0.35744000000E-01  0.51099999109E-03 0.  1.
       11   -1    0    0    0    0 -0.00000000000E+00 -0.00000000000E+00 -0.35740347158E-01  0.35744000000E-01  0.51099999109E-03 0. -1.
       22    1    1    2    0    0  0.53534343727E-02 -0.62895094136E-02 -0.16283653276E-01  0.18258547375E-01  0.00000000000E+00 0.  1.
  9000001    1    1    2    0    0 -0.53534343727E-02  0.62895094136E-02  0.16283653276E-01  0.53229452625E-01  0.50000000745E-01 0.  0.
</event>
<event>
 4   0  0.6886900E-01  0.9118800E+02  0.7818609E-02  0.1379984E+01
      -11   -1    0    0    0    0  0.00000000000E+00  0.00000000000E+00  0.35740347158E-01  0.35744000000E-01  0.51099999109E-03 0.  1.
       11   -1    0    0    0    0 -0.00000000000E+00 -0.00000000000E+00 -0.35740347158E-01  0.35744000000E-01  0.51099999109E-03 0. -1.
       22    1    1    2    0    0 -0.22959708034E-02  0.50780069559E-02 -0.17387263030E-01  0.18258547375E-01  0.00000000000E+00 0. -1.
  9000001    1    1    2    0    0  0.22959708034E-02 -0.50780069559E-02  0.17387263030E-01  0.53229452625E-01  0.50000000745E-01 0.  1.
</event>
<event>
 4   0  0.6886900E-01  0.9118800E+02  0.7818609E-02  0.1379984E+01
      -11   -1    0    0    0    0  0.00000000000E+00  0.00000000000E+00  0.35740347158E-01  0.35744000000E-01  0.51099999109E-03 0.  1.
       11   -1    0    0    0    0 -0.00000000000E+00 -0.00000000000E+00 -0.35740347158E-01  0.35744000000E-01  0.51099999109E-03 0. -1.
       22    1    1    2    0    0 -0.77021574021E-03  0.41874709256E-02  0.17755179729E-01  0.18258547375E-01  0.00000000000E+00 0.  1.
  9000001    1    1    2    0    0  0.77021574021E-03 -0.41874709256E-02 -0.17755179729E-01  0.53229452625E-01  0.50000000745E-01 0. -1.
</event>
<event>
 4   0  0.6886900E-01  0.9118800E+02  0.7818609E-02  0.1379984E+01
      -11   -1    0    0    0    0  0.00000000000E+00  0.00000000000E+00  0.35740347158E-01  0.35744000000E-01  0.51099999109E-03 0.  1.
       11   -1    0    0    0    0 -0.00000000000E+00 -0.00000000000E+00 -0.35740347158E-01  0.35744000000E-01  0.51099999109E-03 0. -1.
       22    1    1    2    0    0 -0.10368221991E-02 -0.55619468582E-02  0.17359847324E-01  0.18258547375E-01  0.00000000000E+00 0.  1.
  9000001    1    1    2    0    0  0.10368221991E-02  0.55619468582E-02 -0.17359847324E-01  0.53229452625E-01  0.50000000745E-01 0. -1.
</event>
<event>
 4   0  0.6886900E-01  0.9118800E+02  0.7818609E-02  0.1379984E+01
      -11   -1    0    0    0    0  0.00000000000E+00  0.00000000000E+00  0.35740347158E-01  0.35744000000E-01  0.51099999109E-03 0. -1.
       11   -1    0    0    0    0 -0.00000000000E+00 -0.00000000000E+00 -0.35740347158E-01  0.35744000000E-01  0.51099999109E-03 0.  1.
       22    1    1    2    0    0  0.25375175637E-02 -0.44721122922E-02  0.17519582430E-01  0.18258547375E-01  0.00000000000E+00 0. -1.
  9000001    1    1    2    0    0 -0.25375175637E-02  0.44721122922E-02 -0.17519582430E-01  0.53229452625E-01  0.50000000745E-01 0.  1.
</event>
<event>
 4   0  0.6886900E-01  0.9118800E+02  0.7818609E-02  0.1379984E+01
      -11   -1    0    0    0    0  0.00000000000E+00  0.00000000000E+00  0.35740347158E-01  0.35744000000E-01  0.51099999109E-03 0. -1.
       11   -1    0    0    0    0 -0.00000000000E+00 -0.00000000000E+00 -0.35740347158E-01  0.35744000000E-01  0.51099999109E-03 0.  1.
       22    1    1    2    0    0  0.43806924971E-02  0.89191989353E-02 -0.15317701389E-01  0.18258547375E-01  0.00000000000E+00 0. -1.
  9000001    1    1    2    0    0 -0.43806924971E-02 -0.89191989353E-02  0.15317701389E-01  0.53229452625E-01  0.50000000745E-01 0. -1.
</event>
<event>
 4   0  0.6886900E-01  0.9118800E+02  0.7818609E-02  0.1379984E+01
      -11   -1    0    0    0    0  0.00000000000E+00  0.00000000000E+00  0.35740347158E-01  0.35744000000E-01  0.51099999109E-03 0. -1.
       11   -1    0    0    0    0 -0.00000000000E+00 -0.00000000000E+00 -0.35740347158E-01  0.35744000000E-01  0.51099999109E-03 0.  1.
       22    1    1    2    0    0  0.43746114603E-02  0.55328655998E-02 -0.16841161631E-01  0.18258547375E-01  0.00000000000E+00 0.  1.
  9000001    1    1    2    0    0 -0.43746114603E-02 -0.55328655998E-02  0.16841161631E-01  0.53229452625E-01  0.50000000745E-01 0. -1.
</event>
<event>
 4   0  0.6886900E-01  0.9118800E+02  0.7818609E-02  0.1379984E+01
      -11   -1    0    0    0    0  0.00000000000E+00  0.00000000000E+00  0.35740347158E-01  0.35744000000E-01  0.51099999109E-03 0.  1.
       11   -1    0    0    0    0 -0.00000000000E+00 -0.00000000000E+00 -0.35740347158E-01  0.35744000000E-01  0.51099999109E-03 0. -1.
       22    1    1    2    0    0 -0.14847258121E-03  0.38387194978E-02 -0.17849838676E-01  0.18258547375E-01  0.00000000000E+00 0. -1.
  9000001    1    1    2    0    0  0.14847258121E-03 -0.38387194978E-02  0.17849838676E-01  0.53229452625E-01  0.50000000745E-01 0.  1.
</event>
<event>
 4   0  0.6886900E-01  0.9118800E+02  0.7818609E-02  0.1379984E+01
      -11   -1    0    0    0    0  0.00000000000E+00  0.00000000000E+00  0.35740347158E-01  0.35744000000E-01  0.51099999109E-03 0. -1.
       11   -1    0    0    0    0 -0.00000000000E+00 -0.00000000000E+00 -0.35740347158E-01  0.35744000000E-01  0.51099999109E-03 0.  1.
       22    1    1    2    0    0  0.75578608316E-02  0.47582827044E-02  0.15925201336E-01  0.18258547375E-01  0.00000000000E+00 0. -1.
  9000001    1    1    2    0    0 -0.75578608316E-02 -0.47582827044E-02 -0.15925201336E-01  0.53229452625E-01  0.50000000745E-01 0.  1.
</event>
<event>
 4   0  0.6886900E-01  0.9118800E+02  0.7818609E-02  0.1379984E+01
      -11   -1    0    0    0    0  0.00000000000E+00  0.00000000000E+00  0.35740347158E-01  0.35744000000E-01  0.51099999109E-03 0.  1.
       11   -1    0    0    0    0 -0.00000000000E+00 -0.00000000000E+00 -0.35740347158E-01  0.35744000000E-01  0.51099999109E-03 0. -1.
       22    1    1    2    0    0 -0.76386807506E-02 -0.19311344176E-02 -0.16471060333E-01  0.18258547375E-01  0.00000000000E+00 0. -1.
  9000001    1    1    2    0    0  0.76386807506E-02  0.19311344176E-02  0.16471060333E-01  0.53229452625E-01  0.50000000745E-01 0.  1.
</event>
<event>
 4   0  0.6886900E-01  0.9118800E+02  0.7818609E-02  0.1379984E+01
      -11   -1    0    0    0    0  0.00000000000E+00  0.00000000000E+00  0.35740347158E-01  0.35744000000E-01  0.51099999109E-03 0. -1.
       11   -1    0    0    0    0 -0.00000000000E+00 -0.00000000000E+00 -0.35740347158E-01  0.35744000000E-01  0.51099999109E-03 0.  1.
       22    1    1    2    0    0 -0.52918504888E-02  0.94267425608E-02 -0.14714190271E-01  0.18258547375E-01  0.00000000000E+00 0. -1.
  9000001    1    1    2    0    0  0.52918504888E-02 -0.94267425608E-02  0.14714190271E-01  0.53229452625E-01  0.50000000745E-01 0. -1.
</event>
<event>
 4   0  0.6886900E-01  0.9118800E+02  0.7818609E-02  0.1379984E+01
      -11   -1    0    0    0    0  0.00000000000E+00  0.00000000000E+00  0.35740347158E-01  0.35744000000E-01  0.51099999109E-03 0. -1.
       11   -1    0    0    0    0 -0.00000000000E+00 -0.00000000000E+00 -0.35740347158E-01  0.35744000000E-01  0.51099999109E-03 0.  1.
       22    1    1    2    0    0  0.12935326865E-01  0.82528608899E-02 -0.98965730565E-02  0.18258547375E-01  0.00000000000E+00 0.  1.
  9000001    1    1    2    0    0 -0.12935326865E-01 -0.82528608899E-02  0.98965730565E-02  0.53229452625E-01  0.50000000745E-01 0. -1.
</event>
<event>
 4   0  0.6886900E-01  0.9118800E+02  0.7818609E-02  0.1379984E+01
      -11   -1    0    0    0    0  0.00000000000E+00  0.00000000000E+00  0.35740347158E-01  0.35744000000E-01  0.51099999109E-03 0.  1.
       11   -1    0    0    0    0 -0.00000000000E+00 -0.00000000000E+00 -0.35740347158E-01  0.35744000000E-01  0.51099999109E-03 0. -1.
       22    1    1    2    0    0 -0.17328332058E-01  0.50325274653E-02  0.27887501968E-02  0.18258547375E-01  0.00000000000E+00 0. -1.
  9000001    1    1    2    0    0  0.17328332058E-01 -0.50325274653E-02 -0.27887501968E-02  0.53229452625E-01  0.50000000745E-01 0.  0.
</event>
<event>
 4   0  0.6886900E-01  0.9118800E+02  0.7818609E-02  0.1379984E+01
      -11   -1    0    0    0    0  0.00000000000E+00  0.00000000000E+00  0.35740347158E-01  0.35744000000E-01  0.51099999109E-03 0. -1.
       11   -1    0    0    0    0 -0.00000000000E+00 -0.00000000000E+00 -0.35740347158E-01  0.35744000000E-01  0.51099999109E-03 0.  1.
       22    1    1    2    0    0 -0.22344247296E-02  0.25539083873E-02 -0.17940441754E-01  0.18258547375E-01  0.00000000000E+00 0. -1.
  9000001    1    1    2    0    0  0.22344247296E-02 -0.25539083873E-02  0.17940441754E-01  0.53229452625E-01  0.50000000745E-01 0. -1.
</event>
<event>
 4   0  0.6886900E-01  0.9118800E+02  0.7818609E-02  0.1379984E+01
      -11   -1    0    0    0    0  0.00000000000E+00  0.00000000000E+00  0.35740347158E-01  0.35744000000E-01  0.51099999109E-03 0.  1.
       11   -1    0    0    0    0 -0.00000000000E+00 -0.00000000000E+00 -0.35740347158E-01  0.35744000000E-01  0.51099999109E-03 0. -1.
       22    1    1    2    0    0  0.56310225467E-02 -0.65245780912E-03  0.17356279444E-01  0.18258547375E-01  0.00000000000E+00 0.  1.
  9000001    1    1    2    0    0 -0.56310225467E-02  0.65245780912E-03 -0.17356279444E-01  0.53229452625E-01  0.50000000745E-01 0. -1.
</event>
<event>
 4   0  0.6886900E-01  0.9118800E+02  0.7818609E-02  0.1379984E+01
      -11   -1    0    0    0    0  0.00000000000E+00  0.00000000000E+00  0.35740347158E-01  0.35744000000E-01  0.51099999109E-03 0. -1.
       11   -1    0    0    0    0 -0.00000000000E+00 -0.00000000000E+00 -0.35740347158E-01  0.35744000000E-01  0.51099999109E-03 0.  1.
       22    1    1    2    0    0  0.15071466030E-01 -0.82423496508E-02  0.61878216026E-02  0.18258547375E-01  0.00000000000E+00 0. -1.
  9000001    1    1    2    0    0 -0.15071466030E-01  0.82423496508E-02 -0.61878216026E-02  0.53229452625E-01  0.50000000745E-01 0.  0.
</event>
<event>
 4   0  0.6886900E-01  0.9118800E+02  0.7818609E-02  0.1379984E+01
      -11   -1    0    0    0    0  0.00000000000E+00  0.00000000000E+00  0.35740347158E-01  0.35744000000E-01  0.51099999109E-03 0.  1.
       11   -1    0    0    0    0 -0.00000000000E+00 -0.00000000000E+00 -0.35740347158E-01  0.35744000000E-01  0.51099999109E-03 0. -1.
       22    1    1    2    0    0 -0.16927591806E-02 -0.40655370463E-02  0.17719495679E-01  0.18258547375E-01  0.00000000000E+00 0.  1.
  9000001    1    1    2    0    0  0.16927591806E-02  0.40655370463E-02 -0.17719495679E-01  0.53229452625E-01  0.50000000745E-01 0. -1.
</event>
<event>
 4   0  0.6886900E-01  0.9118800E+02  0.7818609E-02  0.1379984E+01
      -11   -1    0    0    0    0  0.00000000000E+00  0.00000000000E+00  0.35740347158E-01  0.35744000000E-01  0.51099999109E-03 0. -1.
       11   -1    0    0    0    0 -0.00000000000E+00 -0.00000000000E+00 -0.35740347158E-01  0.35744000000E-01  0.51099999109E-03 0.  1.
       22    1    1    2    0    0 -0.46966906093E-02 -0.20203324160E-02  0.17528089071E-01  0.18258547375E-01  0.00000000000E+00 0. -1.
  9000001    1    1    2    0    0  0.46966906093E-02  0.20203324160E-02 -0.17528089071E-01  0.53229452625E-01  0.50000000745E-01 0.  1.
</event>
<event>
 4   0  0.6886900E-01  0.9118800E+02  0.7818609E-02  0.1379984E+01
      -11   -1    0    0    0    0  0.00000000000E+00  0.00000000000E+00  0.35740347158E-01  0.35744000000E-01  0.51099999109E-03 0. -1.
       11   -1    0    0    0    0 -0.00000000000E+00 -0.00000000000E+00 -0.35740347158E-01  0.35744000000E-01  0.51099999109E-03 0.  1.
       22    1    1    2    0    0 -0.69498479469E-02  0.12913474903E-01 -0.10877331093E-01  0.18258547375E-01  0.00000000000E+00 0.  1.
  9000001    1    1    2    0    0  0.69498479469E-02 -0.12913474903E-01  0.10877331093E-01  0.53229452625E-01  0.50000000745E-01 0. -1.
</event>
<event>
 4   0  0.6886900E-01  0.9118800E+02  0.7818609E-02  0.1379984E+01
      -11   -1    0    0    0    0  0.00000000000E+00  0.00000000000E+00  0.35740347158E-01  0.35744000000E-01  0.51099999109E-03 0. -1.
       11   -1    0    0    0    0 -0.00000000000E+00 -0.00000000000E+00 -0.35740347158E-01  0.35744000000E-01  0.51099999109E-03 0.  1.
       22    1    1    2    0    0  0.25533582111E-02  0.43625702836E-02 -0.17544882291E-01  0.18258547375E-01  0.00000000000E+00 0.  1.
  9000001    1    1    2    0    0 -0.25533582111E-02 -0.43625702836E-02  0.17544882291E-01  0.53229452625E-01  0.50000000745E-01 0. -1.
</event>
<event>
 4   0  0.6886900E-01  0.9118800E+02  0.7818609E-02  0.1379984E+01
      -11   -1    0    0    0    0  0.00000000000E+00  0.00000000000E+00  0.35740347158E-01  0.35744000000E-01  0.51099999109E-03 0. -1.
       11   -1    0    0    0    0 -0.00000000000E+00 -0.00000000000E+00 -0.35740347158E-01  0.35744000000E-01  0.51099999109E-03 0.  1.
       22    1    1    2    0    0 -0.23872814321E-03 -0.43995574148E-02  0.17718957522E-01  0.18258547375E-01  0.00000000000E+00 0. -1.
  9000001    1    1    2    0    0  0.23872814321E-03  0.43995574148E-02 -0.17718957522E-01  0.53229452625E-01  0.50000000745E-01 0.  1.
</event>
<event>
 4   0  0.6886900E-01  0.9118800E+02  0.7818609E-02  0.1379984E+01
      -11   -1    0    0    0    0  0.00000000000E+00  0.00000000000E+00  0.35740347158E-01  0.35744000000E-01  0.51099999109E-03 0.  1.
       11   -1    0    0    0    0 -0.00000000000E+00 -0.00000000000E+00 -0.35740347158E-01  0.35744000000E-01  0.51099999109E-03 0. -1.
       22    1    1    2    0    0 -0.30351062521E-02  0.71827339548E-02 -0.16509724868E-01  0.18258547375E-01  0.00000000000E+00 0.  1.
  9000001    1    1    2    0    0  0.30351062521E-02 -0.71827339548E-02  0.16509724868E-01  0.53229452625E-01  0.50000000745E-01 0.  1.
</event>
<event>
 4   0  0.6886900E-01  0.9118800E+02  0.7818609E-02  0.1379984E+01
      -11   -1    0    0    0    0  0.00000000000E+00  0.00000000000E+00  0.35740347158E-01  0.35744000000E-01  0.51099999109E-03 0. -1.
       11   -1    0    0    0    0 -0.00000000000E+00 -0.00000000000E+00 -0.35740347158E-01  0.35744000000E-01  0.51099999109E-03 0.  1.
       22    1    1    2    0    0 -0.42735593608E-02 -0.93258519848E-02 -0.15104294998E-01  0.18258547375E-01  0.00000000000E+00 0.  1.
  9000001    1    1    2    0    0  0.42735593608E-02  0.93258519848E-02  0.15104294998E-01  0.53229452625E-01  0.50000000745E-01 0. -1.
</event>
<event>
 4   0  0.6886900E-01  0.9118800E+02  0.7818609E-02  0.1379984E+01
      -11   -1    0    0    0    0  0.00000000000E+00  0.00000000000E+00  0.35740347158E-01  0.35744000000E-01  0.51099999109E-03 0. -1.
       11   -1    0    0    0    0 -0.00000000000E+00 -0.00000000000E+00 -0.35740347158E-01  0.35744000000E-01  0.51099999109E-03 0.  1.
       22    1    1    2    0    0  0.11337333244E-01  0.22530007243E-02  0.14133768602E-01  0.18258547375E-01  0.00000000000E+00 0. -1.
  9000001    1    1    2    0    0 -0.11337333244E-01 -0.22530007243E-02 -0.14133768602E-01  0.53229452625E-01  0.50000000745E-01 0.  1.
</event>
<event>
 4   0  0.6886900E-01  0.9118800E+02  0.7818609E-02  0.1379984E+01
      -11   -1    0    0    0    0  0.00000000000E+00  0.00000000000E+00  0.35740347158E-01  0.35744000000E-01  0.51099999109E-03 0. -1.
       11   -1    0    0    0    0 -0.00000000000E+00 -0.00000000000E+00 -0.35740347158E-01  0.35744000000E-01  0.51099999109E-03 0.  1.
       22    1    1    2    0    0 -0.34746325309E-02 -0.96909376920E-02  0.15079363636E-01  0.18258547375E-01  0.00000000000E+00 0. -1.
  9000001    1    1    2    0    0  0.34746325309E-02  0.96909376920E-02 -0.15079363636E-01  0.53229452625E-01  0.50000000745E-01 0.  1.
</event>
<event>
 4   0  0.6886900E-01  0.9118800E+02  0.7818609E-02  0.1379984E+01
      -11   -1    0    0    0    0  0.00000000000E+00  0.00000000000E+00  0.35740347158E-01  0.35744000000E-01  0.51099999109E-03 0. -1.
       11   -1    0    0    0    0 -0.00000000000E+00 -0.00000000000E+00 -0.35740347158E-01  0.35744000000E-01  0.51099999109E-03 0.  1.
       22    1    1    2    0    0  0.33613976899E-02  0.33767477938E-02 -0.17625922165E-01  0.18258547375E-01  0.00000000000E+00 0.  1.
  9000001    1    1    2    0    0 -0.33613976899E-02 -0.33767477938E-02  0.17625922165E-01  0.53229452625E-01  0.50000000745E-01 0. -1.
</event>
<event>
 4   0  0.6886900E-01  0.9118800E+02  0.7818609E-02  0.1379984E+01
      -11   -1    0    0    0    0  0.00000000000E+00  0.00000000000E+00  0.35740347158E-01  0.35744000000E-01  0.51099999109E-03 0.  1.
       11   -1    0    0    0    0 -0.00000000000E+00 -0.00000000000E+00 -0.35740347158E-01  0.35744000000E-01  0.51099999109E-03 0. -1.
       22    1    1    2    0    0  0.16720800671E-01  0.39840849938E-02 -0.61576329814E-02  0.18258547375E-01  0.00000000000E+00 0. -1.
  9000001    1    1    2    0    0 -0.16720800671E-01 -0.39840849938E-02  0.61576329814E-02  0.53229452625E-01  0.50000000745E-01 0.  1.
</event>
<event>
 4   0  0.6886900E-01  0.9118800E+02  0.7818609E-02  0.1379984E+01
      -11   -1    0    0    0    0  0.00000000000E+00  0.00000000000E+00  0.35740347158E-01  0.35744000000E-01  0.51099999109E-03 0.  1.
       11   -1    0    0    0    0 -0.00000000000E+00 -0.00000000000E+00 -0.35740347158E-01  0.35744000000E-01  0.51099999109E-03 0. -1.
       22    1    1    2    0    0 -0.91496117863E-02 -0.23247165854E-02  0.15628654747E-01  0.18258547375E-01  0.00000000000E+00 0.  1.
  9000001    1    1    2    0    0  0.91496117863E-02  0.23247165854E-02 -0.15628654747E-01  0.53229452625E-01  0.50000000745E-01 0. -1.
</event>
<event>
 4   0  0.6886900E-01  0.9118800E+02  0.7818609E-02  0.1379984E+01
      -11   -1    0    0    0    0  0.00000000000E+00  0.00000000000E+00  0.35740347158E-01  0.35744000000E-01  0.51099999109E-03 0.  1.
       11   -1    0    0    0    0 -0.00000000000E+00 -0.00000000000E+00 -0.35740347158E-01  0.35744000000E-01  0.51099999109E-03 0. -1.
       22    1    1    2    0    0 -0.48665535348E-02  0.18483821348E-02  0.17500705484E-01  0.18258547375E-01  0.00000000000E+00 0.  1.
  9000001    1    1    2    0    0  0.48665535348E-02 -0.18483821348E-02 -0.17500705484E-01  0.53229452625E-01  0.50000000745E-01 0. -1.
</event>
<event>
 4   0  0.6886900E-01  0.9118800E+02  0.7818609E-02  0.1379984E+01
      -11   -1    0    0    0    0  0.00000000000E+00  0.00000000000E+00  0.35740347158E-01  0.35744000000E-01  0.51099999109E-03 0. -1.
       11   -1    0    0    0    0 -0.00000000000E+00 -0.00000000000E+00 -0.35740347158E-01  0.35744000000E-01  0.51099999109E-03 0.  1.
       22    1    1    2    0    0 -0.95134357792E-02 -0.20021498358E-02 -0.15455112033E-01  0.18258547375E-01  0.00000000000E+00 0.  1.
  9000001    1    1    2    0    0  0.95134357792E-02  0.20021498358E-02  0.15455112033E-01  0.53229452625E-01  0.50000000745E-01 0. -1.
</event>
<event>
 4   0  0.6886900E-01  0.9118800E+02  0.7818609E-02  0.1379984E+01
      -11   -1    0    0    0    0  0.00000000000E+00  0.00000000000E+00  0.35740347158E-01  0.35744000000E-01  0.51099999109E-03 0.  1.
       11   -1    0    0    0    0 -0.00000000000E+00 -0.00000000000E+00 -0.35740347158E-01  0.35744000000E-01  0.51099999109E-03 0. -1.
       22    1    1    2    0    0 -0.33553132614E-02  0.50178459486E-02 -0.17231878806E-01  0.18258547375E-01  0.00000000000E+00 0.  1.
  9000001    1    1    2    0    0  0.33553132614E-02 -0.50178459486E-02  0.17231878806E-01  0.53229452625E-01  0.50000000745E-01 0.  1.
</event>
<event>
 4   0  0.6886900E-01  0.9118800E+02  0.7818609E-02  0.1379984E+01
      -11   -1    0    0    0    0  0.00000000000E+00  0.00000000000E+00  0.35740347158E-01  0.35744000000E-01  0.51099999109E-03 0. -1.
       11   -1    0    0    0    0 -0.00000000000E+00 -0.00000000000E+00 -0.35740347158E-01  0.35744000000E-01  0.51099999109E-03 0.  1.
       22    1    1    2    0    0 -0.15565902828E-02 -0.29538707473E-02 -0.17950660894E-01  0.18258547375E-01  0.00000000000E+00 0. -1.
  9000001    1    1    2    0    0  0.15565902828E-02  0.29538707473E-02  0.17950660894E-01  0.53229452625E-01  0.50000000745E-01 0. -1.
</event>
<event>
 4   0  0.6886900E-01  0.9118800E+02  0.7818609E-02  0.1379984E+01
      -11   -1    0    0    0    0  0.00000000000E+00  0.00000000000E+00  0.35740347158E-01  0.35744000000E-01  0.51099999109E-03 0. -1.
       11   -1    0    0    0    0 -0.00000000000E+00 -0.00000000000E+00 -0.35740347158E-01  0.35744000000E-01  0.51099999109E-03 0.  1.
       22    1    1    2    0    0  0.44333758939E-02  0.59831868927E-02  0.16670968929E-01  0.18258547375E-01  0.00000000000E+00 0. -1.
  9000001    1    1    2    0    0 -0.44333758939E-02 -0.59831868927E-02 -0.16670968929E-01  0.53229452625E-01  0.50000000745E-01 0.  1.
</event>
<event>
 4   0  0.6886900E-01  0.9118800E+02  0.7818609E-02  0.1379984E+01
      -11   -1    0    0    0    0  0.00000000000E+00  0.00000000000E+00  0.35740347158E-01  0.35744000000E-01  0.51099999109E-03 0.  1.
       11   -1    0    0    0    0 -0.00000000000E+00 -0.00000000000E+00 -0.35740347158E-01  0.35744000000E-01  0.51099999109E-03 0. -1.
       22    1    1    2    0    0  0.15231845871E-01 -0.98476684478E-02  0.20949581737E-02  0.18258547375E-01  0.00000000000E+00 0. -1.
  9000001    1    1    2    0    0 -0.15231845871E-01  0.98476684478E-02 -0.20949581737E-02  0.53229452625E-01  0.50000000745E-01 0.  1.
</event>
<event>
 4   0  0.6886900E-01  0.9118800E+02  0.7818609E-02  0.1379984E+01
      -11   -1    0    0    0    0  0.00000000000E+00  0.00000000000E+00  0.35740347158E-01  0.35744000000E-01  0.51099999109E-03 0. -1.
       11   -1    0    0    0    0 -0.00000000000E+00 -0.00000000000E+00 -0.35740347158E-01  0.35744000000E-01  0.51099999109E-03 0.  1.
       22    1    1    2    0    0  0.85337308974E-02 -0.13032746211E-01 -0.95235243165E-02  0.18258547375E-01  0.00000000000E+00 0.  1.
  9000001    1    1    2    0    0 -0.85337308974E-02  0.13032746211E-01  0.95235243165E-02  0.53229452625E-01  0.50000000745E-01 0. -1.
</event>
<event>
 4   0  0.6886900E-01  0.9118800E+02  0.7818609E-02  0.1379984E+01
      -11   -1    0    0    0    0  0.00000000000E+00  0.00000000000E+00  0.35740347158E-01  0.35744000000E-01  0.51099999109E-03 0. -1.
       11   -1    0    0    0    0 -0.00000000000E+00 -0.00000000000E+00 -0.35740347158E-01  0.35744000000E-01  0.51099999109E-03 0.  1.
       22    1    1    2    0    0  0.83981408876E-03 -0.59320280198E-02 -0.17247617462E-01  0.18258547375E-01  0.00000000000E+00 0.  1.
  9000001    1    1    2    0    0 -0.83981408876E-03  0.59320280198E-02  0.17247617462E-01  0.53229452625E-01  0.50000000745E-01 0. -1.
</event>
<event>
 4   0  0.6886900E-01  0.9118800E+02  0.7818609E-02  0.1379984E+01
      -11   -1    0    0    0    0  0.00000000000E+00  0.00000000000E+00  0.35740347158E-01  0.35744000000E-01  0.51099999109E-03 0.  1.
       11   -1    0    0    0    0 -0.00000000000E+00 -0.00000000000E+00 -0.35740347158E-01  0.35744000000E-01  0.51099999109E-03 0. -1.
       22    1    1    2    0    0  0.12788148345E-02 -0.35413465721E-02  0.17866114556E-01  0.18258547375E-01  0.00000000000E+00 0.  1.
  9000001    1    1    2    0    0 -0.12788148345E-02  0.35413465721E-02 -0.17866114556E-01  0.53229452625E-01  0.50000000745E-01 0. -1.
</event>
<event>
 4   0  0.6886900E-01  0.9118800E+02  0.7818609E-02  0.1379984E+01
      -11   -1    0    0    0    0  0.00000000000E+00  0.00000000000E+00  0.35740347158E-01  0.35744000000E-01  0.51099999109E-03 0. -1.
       11   -1    0    0    0    0 -0.00000000000E+00 -0.00000000000E+00 -0.35740347158E-01  0.35744000000E-01  0.51099999109E-03 0.  1.
       22    1    1    2    0    0  0.41452128103E-02 -0.21122210952E-02  0.17655885281E-01  0.18258547375E-01  0.00000000000E+00 0. -1.
  9000001    1    1    2    0    0 -0.41452128103E-02  0.21122210952E-02 -0.17655885281E-01  0.53229452625E-01  0.50000000745E-01 0.  1.
</event>
<event>
 4   0  0.6886900E-01  0.9118800E+02  0.7818609E-02  0.1379984E+01
      -11   -1    0    0    0    0  0.00000000000E+00  0.00000000000E+00  0.35740347158E-01  0.35744000000E-01  0.51099999109E-03 0.  1.
       11   -1    0    0    0    0 -0.00000000000E+00 -0.00000000000E+00 -0.35740347158E-01  0.35744000000E-01  0.51099999109E-03 0. -1.
       22    1    1    2    0    0 -0.12726162639E-03 -0.42761515620E-02 -0.17750292520E-01  0.18258547375E-01  0.00000000000E+00 0.  1.
  9000001    1    1    2    0    0  0.12726162639E-03  0.42761515620E-02  0.17750292520E-01  0.53229452625E-01  0.50000000745E-01 0.  1.
</event>
<event>
 4   0  0.6886900E-01  0.9118800E+02  0.7818609E-02  0.1379984E+01
      -11   -1    0    0    0    0  0.00000000000E+00  0.00000000000E+00  0.35740347158E-01  0.35744000000E-01  0.51099999109E-03 0.  1.
       11   -1    0    0    0    0 -0.00000000000E+00 -0.00000000000E+00 -0.35740347158E-01  0.35744000000E-01  0.51099999109E-03 0. -1.
       22    1    1    2    0    0  0.81112211754E-03  0.49795843524E-02  0.17547660039E-01  0.18258547375E-01  0.00000000000E+00 0.  1.
  9000001    1    1    2    0    0 -0.81112211754E-03 -0.49795843524E-02 -0.17547660039E-01  0.53229452625E-01  0.50000000745E-01 0. -1.
</event>
<event>
 4   0  0.6886900E-01  0.9118800E+02  0.7818609E-02  0.1379984E+01
      -11   -1    0    0    0    0  0.00000000000E+00  0.00000000000E+00  0.35740347158E-01  0.35744000000E-01  0.51099999109E-03 0. -1.
       11   -1    0    0    0    0 -0.00000000000E+00 -0.00000000000E+00 -0.35740347158E-01  0.35744000000E-01  0.51099999109E-03 0.  1.
       22    1    1    2    0    0 -0.23592203205E-02  0.24837889466E-02  0.17934308579E-01  0.18258547375E-01  0.00000000000E+00 0.  1.
  9000001    1    1    2    0    0  0.23592203205E-02 -0.24837889466E-02 -0.17934308579E-01  0.53229452625E-01  0.50000000745E-01 0.  1.
</event>
<event>
 4   0  0.6886900E-01  0.9118800E+02  0.7818609E-02  0.1379984E+01
      -11   -1    0    0    0    0  0.00000000000E+00  0.00000000000E+00  0.35740347158E-01  0.35744000000E-01  0.51099999109E-03 0. -1.
       11   -1    0    0    0    0 -0.00000000000E+00 -0.00000000000E+00 -0.35740347158E-01  0.35744000000E-01  0.51099999109E-03 0.  1.
       22    1    1    2    0    0  0.38383966353E-02  0.82336914378E-04  0.17850335687E-01  0.18258547375E-01  0.00000000000E+00 0.  1.
  9000001    1    1    2    0    0 -0.38383966353E-02 -0.82336914378E-04 -0.17850335687E-01  0.53229452625E-01  0.50000000745E-01 0.  1.
</event>
<event>
 4   0  0.6886900E-01  0.9118800E+02  0.7818609E-02  0.1379984E+01
      -11   -1    0    0    0    0  0.00000000000E+00  0.00000000000E+00  0.35740347158E-01  0.35744000000E-01  0.51099999109E-03 0. -1.
       11   -1    0    0    0    0 -0.00000000000E+00 -0.00000000000E+00 -0.35740347158E-01  0.35744000000E-01  0.51099999109E-03 0.  1.
       22    1    1    2    0    0 -0.14212489793E-02 -0.29219238354E-02  0.17967107855E-01  0.18258547375E-01  0.00000000000E+00 0. -1.
  9000001    1    1    2    0    0  0.14212489793E-02  0.29219238354E-02 -0.17967107855E-01  0.53229452625E-01  0.50000000745E-01 0.  1.
</event>
<event>
 4   0  0.6886900E-01  0.9118800E+02  0.7818609E-02  0.1379984E+01
      -11   -1    0    0    0    0  0.00000000000E+00  0.00000000000E+00  0.35740347158E-01  0.35744000000E-01  0.51099999109E-03 0.  1.
       11   -1    0    0    0    0 -0.00000000000E+00 -0.00000000000E+00 -0.35740347158E-01  0.35744000000E-01  0.51099999109E-03 0. -1.
       22    1    1    2    0    0  0.78726553095E-02  0.71324989898E-02 -0.14850027232E-01  0.18258547375E-01  0.00000000000E+00 0. -1.
  9000001    1    1    2    0    0 -0.78726553095E-02 -0.71324989898E-02  0.14850027232E-01  0.53229452625E-01  0.50000000745E-01 0.  1.
</event>
<event>
 4   0  0.6886900E-01  0.9118800E+02  0.7818609E-02  0.1379984E+01
      -11   -1    0    0    0    0  0.00000000000E+00  0.00000000000E+00  0.35740347158E-01  0.35744000000E-01  0.51099999109E-03 0.  1.
       11   -1    0    0    0    0 -0.00000000000E+00 -0.00000000000E+00 -0.35740347158E-01  0.35744000000E-01  0.51099999109E-03 0. -1.
       22    1    1    2    0    0 -0.13924098078E-02  0.80065300595E-02  0.16350266774E-01  0.18258547375E-01  0.00000000000E+00 0.  1.
  9000001    1    1    2    0    0  0.13924098078E-02 -0.80065300595E-02 -0.16350266774E-01  0.53229452625E-01  0.50000000745E-01 0. -1.
</event>
<event>
 4   0  0.6886900E-01  0.9118800E+02  0.7818609E-02  0.1379984E+01
      -11   -1    0    0    0    0  0.00000000000E+00  0.00000000000E+00  0.35740347158E-01  0.35744000000E-01  0.51099999109E-03 0.  1.
       11   -1    0    0    0    0 -0.00000000000E+00 -0.00000000000E+00 -0.35740347158E-01  0.35744000000E-01  0.51099999109E-03 0. -1.
       22    1    1    2    0    0 -0.38057637171E-02 -0.44825610851E-02 -0.17285756012E-01  0.18258547375E-01  0.00000000000E+00 0. -1.
  9000001    1    1    2    0    0  0.38057637171E-02  0.44825610851E-02  0.17285756012E-01  0.53229452625E-01  0.50000000745E-01 0.  1.
</event>
<event>
 4   0  0.6886900E-01  0.9118800E+02  0.7818609E-02  0.1379984E+01
      -11   -1    0    0    0    0  0.00000000000E+00  0.00000000000E+00  0.35740347158E-01  0.35744000000E-01  0.51099999109E-03 0. -1.
       11   -1    0    0    0    0 -0.00000000000E+00 -0.00000000000E+00 -0.35740347158E-01  0.35744000000E-01  0.51099999109E-03 0.  1.
       22    1    1    2    0    0  0.45654084558E-02 -0.31842080254E-02  0.17389434066E-01  0.18258547375E-01  0.00000000000E+00 0. -1.
  9000001    1    1    2    0    0 -0.45654084558E-02  0.31842080254E-02 -0.17389434066E-01  0.53229452625E-01  0.50000000745E-01 0.  1.
</event>
<event>
 4   0  0.6886900E-01  0.9118800E+02  0.7818609E-02  0.1379984E+01
      -11   -1    0    0    0    0  0.00000000000E+00  0.00000000000E+00  0.35740347158E-01  0.35744000000E-01  0.51099999109E-03 0.  1.
       11   -1    0    0    0    0 -0.00000000000E+00 -0.00000000000E+00 -0.35740347158E-01  0.35744000000E-01  0.51099999109E-03 0. -1.
       22    1    1    2    0    0  0.38934298820E-02  0.83833737243E-02 -0.15745945542E-01  0.18258547375E-01  0.00000000000E+00 0. -1.
  9000001    1    1    2    0    0 -0.38934298820E-02 -0.83833737243E-02  0.15745945542E-01  0.53229452625E-01  0.50000000745E-01 0.  1.
</event>
<event>
 4   0  0.6886900E-01  0.9118800E+02  0.7818609E-02  0.1379984E+01
      -11   -1    0    0    0    0  0.00000000000E+00  0.00000000000E+00  0.35740347158E-01  0.35744000000E-01  0.51099999109E-03 0. -1.
       11   -1    0    0    0    0 -0.00000000000E+00 -0.00000000000E+00 -0.35740347158E-01  0.35744000000E-01  0.51099999109E-03 0.  1.
       22    1    1    2    0    0  0.36651021284E-02 -0.52610797728E-03 -0.17879171934E-01  0.18258547375E-01  0.00000000000E+00 0.  1.
  9000001    1    1    2    0    0 -0.36651021284E-02  0.52610797728E-03  0.17879171934E-01  0.53229452625E-01  0.50000000745E-01 0. -1.
</event>
<event>
 4   0  0.6886900E-01  0.9118800E+02  0.7818609E-02  0.1379984E+01
      -11   -1    0    0    0    0  0.00000000000E+00  0.00000000000E+00  0.35740347158E-01  0.35744000000E-01  0.51099999109E-03 0. -1.
       11   -1    0    0    0    0 -0.00000000000E+00 -0.00000000000E+00 -0.35740347158E-01  0.35744000000E-01  0.51099999109E-03 0.  1.
       22    1    1    2    0    0 -0.34748699985E-02  0.31098682872E-03 -0.17922140439E-01  0.18258547375E-01  0.00000000000E+00 0.  1.
  9000001    1    1    2    0    0  0.34748699985E-02 -0.31098682872E-03  0.17922140439E-01  0.53229452625E-01  0.50000000745E-01 0. -1.
</event>
<event>
 4   0  0.6886900E-01  0.9118800E+02  0.7818609E-02  0.1379984E+01
      -11   -1    0    0    0    0  0.00000000000E+00  0.00000000000E+00  0.35740347158E-01  0.35744000000E-01  0.51099999109E-03 0.  1.
       11   -1    0    0    0    0 -0.00000000000E+00 -0.00000000000E+00 -0.35740347158E-01  0.35744000000E-01  0.51099999109E-03 0. -1.
       22    1    1    2    0    0 -0.13135573979E-01  0.25850113060E-02  0.12415674167E-01  0.18258547375E-01  0.00000000000E+00 0.  1.
  9000001    1    1    2    0    0  0.13135573979E-01 -0.25850113060E-02 -0.12415674167E-01  0.53229452625E-01  0.50000000745E-01 0. -1.
</event>
<event>
 4   0  0.6886900E-01  0.9118800E+02  0.7818609E-02  0.1379984E+01
      -11   -1    0    0    0    0  0.00000000000E+00  0.00000000000E+00  0.35740347158E-01  0.35744000000E-01  0.51099999109E-03 0.  1.
       11   -1    0    0    0    0 -0.00000000000E+00 -0.00000000000E+00 -0.35740347158E-01  0.35744000000E-01  0.51099999109E-03 0. -1.
       22    1    1    2    0    0  0.10824728218E-01  0.10390823179E-01  0.10403393913E-01  0.18258547375E-01  0.00000000000E+00 0. -1.
  9000001    1    1    2    0    0 -0.10824728218E-01 -0.10390823179E-01 -0.10403393913E-01  0.53229452625E-01  0.50000000745E-01 0. -1.
</event>
<event>
 4   0  0.6886900E-01  0.9118800E+02  0.7818609E-02  0.1379984E+01
      -11   -1    0    0    0    0  0.00000000000E+00  0.00000000000E+00  0.35740347158E-01  0.35744000000E-01  0.51099999109E-03 0. -1.
       11   -1    0    0    0    0 -0.00000000000E+00 -0.00000000000E+00 -0.35740347158E-01  0.35744000000E-01  0.51099999109E-03 0.  1.
       22    1    1    2    0    0 -0.42881494156E-02 -0.87377099883E-02 -0.15447936788E-01  0.18258547375E-01  0.00000000000E+00 0.  1.
  9000001    1    1    2    0    0  0.42881494156E-02  0.87377099883E-02  0.15447936788E-01  0.53229452625E-01  0.50000000745E-01 0. -1.
</event>
<event>
 4   0  0.6886900E-01  0.9118800E+02  0.7818609E-02  0.1379984E+01
      -11   -1    0    0    0    0  0.00000000000E+00  0.00000000000E+00  0.35740347158E-01  0.35744000000E-01  0.51099999109E-03 0. -1.
       11   -1    0    0    0    0 -0.00000000000E+00 -0.00000000000E+00 -0.35740347158E-01  0.35744000000E-01  0.51099999109E-03 0.  1.
       22    1    1    2    0    0  0.55071639962E-02  0.61389774944E-03 -0.17397379875E-01  0.18258547375E-01  0.00000000000E+00 0.  1.
  9000001    1    1    2    0    0 -0.55071639962E-02 -0.61389774944E-03  0.17397379875E-01  0.53229452625E-01  0.50000000745E-01 0. -1.
</event>
<event>
 4   0  0.6886900E-01  0.9118800E+02  0.7818609E-02  0.1379984E+01
      -11   -1    0    0    0    0  0.00000000000E+00  0.00000000000E+00  0.35740347158E-01  0.35744000000E-01  0.51099999109E-03 0.  1.
       11   -1    0    0    0    0 -0.00000000000E+00 -0.00000000000E+00 -0.35740347158E-01  0.35744000000E-01  0.51099999109E-03 0. -1.
       22    1    1    2    0    0 -0.18306421825E-02  0.24329097405E-02 -0.18002895646E-01  0.18258547375E-01  0.00000000000E+00 0. -1.
  9000001    1    1    2    0    0  0.18306421825E-02 -0.24329097405E-02  0.18002895646E-01  0.53229452625E-01  0.50000000745E-01 0.  1.
</event>
<event>
 4   0  0.6886900E-01  0.9118800E+02  0.7818609E-02  0.1379984E+01
      -11   -1    0    0    0    0  0.00000000000E+00  0.00000000000E+00  0.35740347158E-01  0.35744000000E-01  0.51099999109E-03 0. -1.
       11   -1    0    0    0    0 -0.00000000000E+00 -0.00000000000E+00 -0.35740347158E-01  0.35744000000E-01  0.51099999109E-03 0.  1.
       22    1    1    2    0    0 -0.23204360643E-02 -0.10138473542E-01  0.15006714596E-01  0.18258547375E-01  0.00000000000E+00 0. -1.
  9000001    1    1    2    0    0  0.23204360643E-02  0.10138473542E-01 -0.15006714596E-01  0.53229452625E-01  0.50000000745E-01 0.  1.
</event>
<event>
 4   0  0.6886900E-01  0.9118800E+02  0.7818609E-02  0.1379984E+01
      -11   -1    0    0    0    0  0.00000000000E+00  0.00000000000E+00  0.35740347158E-01  0.35744000000E-01  0.51099999109E-03 0. -1.
       11   -1    0    0    0    0 -0.00000000000E+00 -0.00000000000E+00 -0.35740347158E-01  0.35744000000E-01  0.51099999109E-03 0.  1.
       22    1    1    2    0    0  0.13276610319E-01  0.14005054719E-02 -0.12455711747E-01  0.18258547375E-01  0.00000000000E+00 0.  1.
  9000001    1    1    2    0    0 -0.13276610319E-01 -0.14005054719E-02  0.12455711747E-01  0.53229452625E-01  0.50000000745E-01 0.  0.
</event>
<event>
 4   0  0.6886900E-01  0.9118800E+02  0.7818609E-02  0.1379984E+01
      -11   -1    0    0    0    0  0.00000000000E+00  0.00000000000E+00  0.35740347158E-01  0.35744000000E-01  0.51099999109E-03 0. -1.
       11   -1    0    0    0    0 -0.00000000000E+00 -0.00000000000E+00 -0.35740347158E-01  0.35744000000E-01  0.51099999109E-03 0.  1.
       22    1    1    2    0    0 -0.14669743164E-02 -0.27350352903E-02  0.17992835256E-01  0.18258547375E-01  0.00000000000E+00 0. -1.
  9000001    1    1    2    0    0  0.14669743164E-02  0.27350352903E-02 -0.17992835256E-01  0.53229452625E-01  0.50000000745E-01 0.  1.
</event>
<event>
 4   0  0.6886900E-01  0.9118800E+02  0.7818609E-02  0.1379984E+01
      -11   -1    0    0    0    0  0.00000000000E+00  0.00000000000E+00  0.35740347158E-01  0.35744000000E-01  0.51099999109E-03 0. -1.
       11   -1    0    0    0    0 -0.00000000000E+00 -0.00000000000E+00 -0.35740347158E-01  0.35744000000E-01  0.51099999109E-03 0.  1.
       22    1    1    2    0    0 -0.44597026637E-02  0.84344104978E-02 -0.15567476480E-01  0.18258547375E-01  0.00000000000E+00 0. -1.
  9000001    1    1    2    0    0  0.44597026637E-02 -0.84344104978E-02  0.15567476480E-01  0.53229452625E-01  0.50000000745E-01 0.  0.
</event>
<event>
 4   0  0.6886900E-01  0.9118800E+02  0.7818609E-02  0.1379984E+01
      -11   -1    0    0    0    0  0.00000000000E+00  0.00000000000E+00  0.35740347158E-01  0.35744000000E-01  0.51099999109E-03 0.  1.
       11   -1    0    0    0    0 -0.00000000000E+00 -0.00000000000E+00 -0.35740347158E-01  0.35744000000E-01  0.51099999109E-03 0. -1.
       22    1    1    2    0    0 -0.46809059596E-02  0.10409742311E-02 -0.17617606089E-01  0.18258547375E-01  0.00000000000E+00 0. -1.
  9000001    1    1    2    0    0  0.46809059596E-02 -0.10409742311E-02  0.17617606089E-01  0.53229452625E-01  0.50000000745E-01 0.  1.
</event>
<event>
 4   0  0.6886900E-01  0.9118800E+02  0.7818609E-02  0.1379984E+01
      -11   -1    0    0    0    0  0.00000000000E+00  0.00000000000E+00  0.35740347158E-01  0.35744000000E-01  0.51099999109E-03 0.  1.
       11   -1    0    0    0    0 -0.00000000000E+00 -0.00000000000E+00 -0.35740347158E-01  0.35744000000E-01  0.51099999109E-03 0. -1.
       22    1    1    2    0    0 -0.16432412099E-02  0.32612793826E-02  0.17889616188E-01  0.18258547375E-01  0.00000000000E+00 0. -1.
  9000001    1    1    2    0    0  0.16432412099E-02 -0.32612793826E-02 -0.17889616188E-01  0.53229452625E-01  0.50000000745E-01 0. -1.
</event>
<event>
 4   0  0.6886900E-01  0.9118800E+02  0.7818609E-02  0.1379984E+01
      -11   -1    0    0    0    0  0.00000000000E+00  0.00000000000E+00  0.35740347158E-01  0.35744000000E-01  0.51099999109E-03 0.  1.
       11   -1    0    0    0    0 -0.00000000000E+00 -0.00000000000E+00 -0.35740347158E-01  0.35744000000E-01  0.51099999109E-03 0. -1.
       22    1    1    2    0    0  0.38508735166E-02  0.16653645667E-01  0.64188325568E-02  0.18258547375E-01  0.00000000000E+00 0. -1.
  9000001    1    1    2    0    0 -0.38508735166E-02 -0.16653645667E-01 -0.64188325568E-02  0.53229452625E-01  0.50000000745E-01 0.  0.
</event>
<event>
 4   0  0.6886900E-01  0.9118800E+02  0.7818609E-02  0.1379984E+01
      -11   -1    0    0    0    0  0.00000000000E+00  0.00000000000E+00  0.35740347158E-01  0.35744000000E-01  0.51099999109E-03 0.  1.
       11   -1    0    0    0    0 -0.00000000000E+00 -0.00000000000E+00 -0.35740347158E-01  0.35744000000E-01  0.51099999109E-03 0. -1.
       22    1    1    2    0    0 -0.30720740021E-02  0.48957408233E-02  0.17319602633E-01  0.18258547375E-01  0.00000000000E+00 0. -1.
  9000001    1    1    2    0    0  0.30720740021E-02 -0.48957408233E-02 -0.17319602633E-01  0.53229452625E-01  0.50000000745E-01 0.  0.
</event>
<event>
 4   0  0.6886900E-01  0.9118800E+02  0.7818609E-02  0.1379984E+01
      -11   -1    0    0    0    0  0.00000000000E+00  0.00000000000E+00  0.35740347158E-01  0.35744000000E-01  0.51099999109E-03 0. -1.
       11   -1    0    0    0    0 -0.00000000000E+00 -0.00000000000E+00 -0.35740347158E-01  0.35744000000E-01  0.51099999109E-03 0.  1.
       22    1    1    2    0    0 -0.11906546620E-01  0.71531323953E-02  0.11850797305E-01  0.18258547375E-01  0.00000000000E+00 0. -1.
  9000001    1    1    2    0    0  0.11906546620E-01 -0.71531323953E-02 -0.11850797305E-01  0.53229452625E-01  0.50000000745E-01 0.  0.
</event>
<event>
 4   0  0.6886900E-01  0.9118800E+02  0.7818609E-02  0.1379984E+01
      -11   -1    0    0    0    0  0.00000000000E+00  0.00000000000E+00  0.35740347158E-01  0.35744000000E-01  0.51099999109E-03 0.  1.
       11   -1    0    0    0    0 -0.00000000000E+00 -0.00000000000E+00 -0.35740347158E-01  0.35744000000E-01  0.51099999109E-03 0. -1.
       22    1    1    2    0    0  0.14020255238E-01 -0.10920329131E-01 -0.41896786237E-02  0.18258547375E-01  0.00000000000E+00 0.  1.
  9000001    1    1    2    0    0 -0.14020255238E-01  0.10920329131E-01  0.41896786237E-02  0.53229452625E-01  0.50000000745E-01 0.  0.
</event>
<event>
 4   0  0.6886900E-01  0.9118800E+02  0.7818609E-02  0.1379984E+01
      -11   -1    0    0    0    0  0.00000000000E+00  0.00000000000E+00  0.35740347158E-01  0.35744000000E-01  0.51099999109E-03 0. -1.
       11   -1    0    0    0    0 -0.00000000000E+00 -0.00000000000E+00 -0.35740347158E-01  0.35744000000E-01  0.51099999109E-03 0.  1.
       22    1    1    2    0    0  0.18188838826E-02  0.70695410139E-02  0.16735823957E-01  0.18258547375E-01  0.00000000000E+00 0.  1.
  9000001    1    1    2    0    0 -0.18188838826E-02 -0.70695410139E-02 -0.16735823957E-01  0.53229452625E-01  0.50000000745E-01 0.  0.
</event>
<event>
 4   0  0.6886900E-01  0.9118800E+02  0.7818609E-02  0.1379984E+01
      -11   -1    0    0    0    0  0.00000000000E+00  0.00000000000E+00  0.35740347158E-01  0.35744000000E-01  0.51099999109E-03 0.  1.
       11   -1    0    0    0    0 -0.00000000000E+00 -0.00000000000E+00 -0.35740347158E-01  0.35744000000E-01  0.51099999109E-03 0. -1.
       22    1    1    2    0    0  0.64378501321E-02 -0.56937842445E-02 -0.16109297281E-01  0.18258547375E-01  0.00000000000E+00 0.  1.
  9000001    1    1    2    0    0 -0.64378501321E-02  0.56937842445E-02  0.16109297281E-01  0.53229452625E-01  0.50000000745E-01 0.  0.
</event>
<event>
 4   0  0.6886900E-01  0.9118800E+02  0.7818609E-02  0.1379984E+01
      -11   -1    0    0    0    0  0.00000000000E+00  0.00000000000E+00  0.35740347158E-01  0.35744000000E-01  0.51099999109E-03 0.  1.
       11   -1    0    0    0    0 -0.00000000000E+00 -0.00000000000E+00 -0.35740347158E-01  0.35744000000E-01  0.51099999109E-03 0. -1.
       22    1    1    2    0    0  0.63741466535E-02  0.20952024760E-02  0.16981016850E-01  0.18258547375E-01  0.00000000000E+00 0.  1.
  9000001    1    1    2    0    0 -0.63741466535E-02 -0.20952024760E-02 -0.16981016850E-01  0.53229452625E-01  0.50000000745E-01 0. -1.
</event>
<event>
 4   0  0.6886900E-01  0.9118800E+02  0.7818609E-02  0.1379984E+01
      -11   -1    0    0    0    0  0.00000000000E+00  0.00000000000E+00  0.35740347158E-01  0.35744000000E-01  0.51099999109E-03 0. -1.
       11   -1    0    0    0    0 -0.00000000000E+00 -0.00000000000E+00 -0.35740347158E-01  0.35744000000E-01  0.51099999109E-03 0.  1.
       22    1    1    2    0    0  0.13569680703E-01 -0.64478813826E-02 -0.10376085175E-01  0.18258547375E-01  0.00000000000E+00 0.  1.
  9000001    1    1    2    0    0 -0.13569680703E-01  0.64478813826E-02  0.10376085175E-01  0.53229452625E-01  0.50000000745E-01 0. -1.
</event>
<event>
 4   0  0.6886900E-01  0.9118800E+02  0.7818609E-02  0.1379984E+01
      -11   -1    0    0    0    0  0.00000000000E+00  0.00000000000E+00  0.35740347158E-01  0.35744000000E-01  0.51099999109E-03 0.  1.
       11   -1    0    0    0    0 -0.00000000000E+00 -0.00000000000E+00 -0.35740347158E-01  0.35744000000E-01  0.51099999109E-03 0. -1.
       22    1    1    2    0    0  0.62681122941E-02 -0.72864735092E-02 -0.15523937140E-01  0.18258547375E-01  0.00000000000E+00 0. -1.
  9000001    1    1    2    0    0 -0.62681122941E-02  0.72864735092E-02  0.15523937140E-01  0.53229452625E-01  0.50000000745E-01 0.  1.
</event>
<event>
 4   0  0.6886900E-01  0.9118800E+02  0.7818609E-02  0.1379984E+01
      -11   -1    0    0    0    0  0.00000000000E+00  0.00000000000E+00  0.35740347158E-01  0.35744000000E-01  0.51099999109E-03 0. -1.
       11   -1    0    0    0    0 -0.00000000000E+00 -0.00000000000E+00 -0.35740347158E-01  0.35744000000E-01  0.51099999109E-03 0.  1.
       22    1    1    2    0    0 -0.90636983738E-03 -0.31665547634E-02 -0.17959008238E-01  0.18258547375E-01  0.00000000000E+00 0.  1.
  9000001    1    1    2    0    0  0.90636983738E-03  0.31665547634E-02  0.17959008238E-01  0.53229452625E-01  0.50000000745E-01 0. -1.
</event>
<event>
 4   0  0.6886900E-01  0.9118800E+02  0.7818609E-02  0.1379984E+01
      -11   -1    0    0    0    0  0.00000000000E+00  0.00000000000E+00  0.35740347158E-01  0.35744000000E-01  0.51099999109E-03 0. -1.
       11   -1    0    0    0    0 -0.00000000000E+00 -0.00000000000E+00 -0.35740347158E-01  0.35744000000E-01  0.51099999109E-03 0.  1.
       22    1    1    2    0    0 -0.92112584889E-02 -0.13983340603E-01 -0.72796603548E-02  0.18258547375E-01  0.00000000000E+00 0.  1.
  9000001    1    1    2    0    0  0.92112584889E-02  0.13983340603E-01  0.72796603548E-02  0.53229452625E-01  0.50000000745E-01 0.  0.
</event>
<event>
 4   0  0.6886900E-01  0.9118800E+02  0.7818609E-02  0.1379984E+01
      -11   -1    0    0    0    0  0.00000000000E+00  0.00000000000E+00  0.35740347158E-01  0.35744000000E-01  0.51099999109E-03 0. -1.
       11   -1    0    0    0    0 -0.00000000000E+00 -0.00000000000E+00 -0.35740347158E-01  0.35744000000E-01  0.51099999109E-03 0.  1.
       22    1    1    2    0    0  0.33342693069E-02 -0.42526915079E-02 -0.17440522222E-01  0.18258547375E-01  0.00000000000E+00 0.  1.
  9000001    1    1    2    0    0 -0.33342693069E-02  0.42526915079E-02  0.17440522222E-01  0.53229452625E-01  0.50000000745E-01 0. -1.
</event>
<event>
 4   0  0.6886900E-01  0.9118800E+02  0.7818609E-02  0.1379984E+01
      -11   -1    0    0    0    0  0.00000000000E+00  0.00000000000E+00  0.35740347158E-01  0.35744000000E-01  0.51099999109E-03 0. -1.
       11   -1    0    0    0    0 -0.00000000000E+00 -0.00000000000E+00 -0.35740347158E-01  0.35744000000E-01  0.51099999109E-03 0.  1.
       22    1    1    2    0    0 -0.12844446626E-02  0.28354957894E-02  0.17991240029E-01  0.18258547375E-01  0.00000000000E+00 0. -1.
  9000001    1    1    2    0    0  0.12844446626E-02 -0.28354957894E-02 -0.17991240029E-01  0.53229452625E-01  0.50000000745E-01 0.  1.
</event>
<event>
 4   0  0.6886900E-01  0.9118800E+02  0.7818609E-02  0.1379984E+01
      -11   -1    0    0    0    0  0.00000000000E+00  0.00000000000E+00  0.35740347158E-01  0.35744000000E-01  0.51099999109E-03 0. -1.
       11   -1    0    0    0    0 -0.00000000000E+00 -0.00000000000E+00 -0.35740347158E-01  0.35744000000E-01  0.51099999109E-03 0.  1.
       22    1    1    2    0    0 -0.31509378679E-02 -0.59691263109E-02  0.16965131119E-01  0.18258547375E-01  0.00000000000E+00 0. -1.
  9000001    1    1    2    0    0  0.31509378679E-02  0.59691263109E-02 -0.16965131119E-01  0.53229452625E-01  0.50000000745E-01 0.  1.
</event>
<event>
 4   0  0.6886900E-01  0.9118800E+02  0.7818609E-02  0.1379984E+01
      -11   -1    0    0    0    0  0.00000000000E+00  0.00000000000E+00  0.35740347158E-01  0.35744000000E-01  0.51099999109E-03 0. -1.
       11   -1    0    0    0    0 -0.00000000000E+00 -0.00000000000E+00 -0.35740347158E-01  0.35744000000E-01  0.51099999109E-03 0.  1.
       22    1    1    2    0    0  0.41905671407E-02 -0.47732931476E-03  0.17764736306E-01  0.18258547375E-01  0.00000000000E+00 0. -1.
  9000001    1    1    2    0    0 -0.41905671407E-02  0.47732931476E-03 -0.17764736306E-01  0.53229452625E-01  0.50000000745E-01 0.  1.
</event>
<event>
 4   0  0.6886900E-01  0.9118800E+02  0.7818609E-02  0.1379984E+01
      -11   -1    0    0    0    0  0.00000000000E+00  0.00000000000E+00  0.35740347158E-01  0.35744000000E-01  0.51099999109E-03 0. -1.
       11   -1    0    0    0    0 -0.00000000000E+00 -0.00000000000E+00 -0.35740347158E-01  0.35744000000E-01  0.51099999109E-03 0.  1.
       22    1    1    2    0    0 -0.11464846796E-01  0.87791525700E-02  0.11174001984E-01  0.18258547375E-01  0.00000000000E+00 0.  1.
  9000001    1    1    2    0    0  0.11464846796E-01 -0.87791525700E-02 -0.11174001984E-01  0.53229452625E-01  0.50000000745E-01 0.  1.
</event>
<event>
 4   0  0.6886900E-01  0.9118800E+02  0.7818609E-02  0.1379984E+01
      -11   -1    0    0    0    0  0.00000000000E+00  0.00000000000E+00  0.35740347158E-01  0.35744000000E-01  0.51099999109E-03 0.  1.
       11   -1    0    0    0    0 -0.00000000000E+00 -0.00000000000E+00 -0.35740347158E-01  0.35744000000E-01  0.51099999109E-03 0. -1.
       22    1    1    2    0    0 -0.11750164822E-01 -0.12830246077E-01 -0.55401231477E-02  0.18258547375E-01  0.00000000000E+00 0.  1.
  9000001    1    1    2    0    0  0.11750164822E-01  0.12830246077E-01  0.55401231477E-02  0.53229452625E-01  0.50000000745E-01 0.  1.
</event>
<event>
 4   0  0.6886900E-01  0.9118800E+02  0.7818609E-02  0.1379984E+01
      -11   -1    0    0    0    0  0.00000000000E+00  0.00000000000E+00  0.35740347158E-01  0.35744000000E-01  0.51099999109E-03 0. -1.
       11   -1    0    0    0    0 -0.00000000000E+00 -0.00000000000E+00 -0.35740347158E-01  0.35744000000E-01  0.51099999109E-03 0.  1.
       22    1    1    2    0    0  0.29806688887E-02  0.99714756206E-02 -0.15001994506E-01  0.18258547375E-01  0.00000000000E+00 0.  1.
  9000001    1    1    2    0    0 -0.29806688887E-02 -0.99714756206E-02  0.15001994506E-01  0.53229452625E-01  0.50000000745E-01 0. -1.
</event>
<event>
 4   0  0.6886900E-01  0.9118800E+02  0.7818609E-02  0.1379984E+01
      -11   -1    0    0    0    0  0.00000000000E+00  0.00000000000E+00  0.35740347158E-01  0.35744000000E-01  0.51099999109E-03 0. -1.
       11   -1    0    0    0    0 -0.00000000000E+00 -0.00000000000E+00 -0.35740347158E-01  0.35744000000E-01  0.51099999109E-03 0.  1.
       22    1    1    2    0    0 -0.32206918080E-02  0.17344615755E-02  0.17888357654E-01  0.18258547375E-01  0.00000000000E+00 0. -1.
  9000001    1    1    2    0    0  0.32206918080E-02 -0.17344615755E-02 -0.17888357654E-01  0.53229452625E-01  0.50000000745E-01 0.  1.
</event>
<event>
 4   0  0.6886900E-01  0.9118800E+02  0.7818609E-02  0.1379984E+01
      -11   -1    0    0    0    0  0.00000000000E+00  0.00000000000E+00  0.35740347158E-01  0.35744000000E-01  0.51099999109E-03 0.  1.
       11   -1    0    0    0    0 -0.00000000000E+00 -0.00000000000E+00 -0.35740347158E-01  0.35744000000E-01  0.51099999109E-03 0. -1.
       22    1    1    2    0    0  0.28140103228E-02  0.17953191721E-01 -0.17716673394E-02  0.18258547375E-01  0.00000000000E+00 0. -1.
  9000001    1    1    2    0    0 -0.28140103228E-02 -0.17953191721E-01  0.17716673394E-02  0.53229452625E-01  0.50000000745E-01 0.  1.
</event>
<event>
 4   0  0.6886900E-01  0.9118800E+02  0.7818609E-02  0.1379984E+01
      -11   -1    0    0    0    0  0.00000000000E+00  0.00000000000E+00  0.35740347158E-01  0.35744000000E-01  0.51099999109E-03 0. -1.
       11   -1    0    0    0    0 -0.00000000000E+00 -0.00000000000E+00 -0.35740347158E-01  0.35744000000E-01  0.51099999109E-03 0.  1.
       22    1    1    2    0    0  0.24642117341E-02  0.35290656774E-02 -0.17743954132E-01  0.18258547375E-01  0.00000000000E+00 0.  1.
  9000001    1    1    2    0    0 -0.24642117341E-02 -0.35290656774E-02  0.17743954132E-01  0.53229452625E-01  0.50000000745E-01 0. -1.
</event>
<event>
 4   0  0.6886900E-01  0.9118800E+02  0.7818609E-02  0.1379984E+01
      -11   -1    0    0    0    0  0.00000000000E+00  0.00000000000E+00  0.35740347158E-01  0.35744000000E-01  0.51099999109E-03 0.  1.
       11   -1    0    0    0    0 -0.00000000000E+00 -0.00000000000E+00 -0.35740347158E-01  0.35744000000E-01  0.51099999109E-03 0. -1.
       22    1    1    2    0    0 -0.13520407789E-01 -0.24526176850E-02 -0.12023218869E-01  0.18258547375E-01  0.00000000000E+00 0. -1.
  9000001    1    1    2    0    0  0.13520407789E-01  0.24526176850E-02  0.12023218869E-01  0.53229452625E-01  0.50000000745E-01 0.  1.
</event>
<event>
 4   0  0.6886900E-01  0.9118800E+02  0.7818609E-02  0.1379984E+01
      -11   -1    0    0    0    0  0.00000000000E+00  0.00000000000E+00  0.35740347158E-01  0.35744000000E-01  0.51099999109E-03 0. -1.
       11   -1    0    0    0    0 -0.00000000000E+00 -0.00000000000E+00 -0.35740347158E-01  0.35744000000E-01  0.51099999109E-03 0.  1.
       22    1    1    2    0    0  0.15842891198E-02  0.18032151535E-01 -0.23887426076E-02  0.18258547375E-01  0.00000000000E+00 0.  1.
  9000001    1    1    2    0    0 -0.15842891198E-02 -0.18032151535E-01  0.23887426076E-02  0.53229452625E-01  0.50000000745E-01 0.  1.
</event>
<event>
 4   0  0.6886900E-01  0.9118800E+02  0.7818609E-02  0.1379984E+01
      -11   -1    0    0    0    0  0.00000000000E+00  0.00000000000E+00  0.35740347158E-01  0.35744000000E-01  0.51099999109E-03 0. -1.
       11   -1    0    0    0    0 -0.00000000000E+00 -0.00000000000E+00 -0.35740347158E-01  0.35744000000E-01  0.51099999109E-03 0.  1.
       22    1    1    2    0    0 -0.37365558720E-02 -0.40469859165E-02 -0.17407889230E-01  0.18258547375E-01  0.00000000000E+00 0.  1.
  9000001    1    1    2    0    0  0.37365558720E-02  0.40469859165E-02  0.17407889230E-01  0.53229452625E-01  0.50000000745E-01 0. -1.
</event>
<event>
 4   0  0.6886900E-01  0.9118800E+02  0.7818609E-02  0.1379984E+01
      -11   -1    0    0    0    0  0.00000000000E+00  0.00000000000E+00  0.35740347158E-01  0.35744000000E-01  0.51099999109E-03 0.  1.
       11   -1    0    0    0    0 -0.00000000000E+00 -0.00000000000E+00 -0.35740347158E-01  0.35744000000E-01  0.51099999109E-03 0. -1.
       22    1    1    2    0    0  0.62525243702E-02  0.16649283890E-01 -0.41330179283E-02  0.18258547375E-01  0.00000000000E+00 0. -1.
  9000001    1    1    2    0    0 -0.62525243702E-02 -0.16649283890E-01  0.41330179283E-02  0.53229452625E-01  0.50000000745E-01 0.  1.
</event>
<event>
 4   0  0.6886900E-01  0.9118800E+02  0.7818609E-02  0.1379984E+01
      -11   -1    0    0    0    0  0.00000000000E+00  0.00000000000E+00  0.35740347158E-01  0.35744000000E-01  0.51099999109E-03 0. -1.
       11   -1    0    0    0    0 -0.00000000000E+00 -0.00000000000E+00 -0.35740347158E-01  0.35744000000E-01  0.51099999109E-03 0.  1.
       22    1    1    2    0    0  0.85442040310E-02 -0.35026228168E-02 -0.15751278143E-01  0.18258547375E-01  0.00000000000E+00 0. -1.
  9000001    1    1    2    0    0 -0.85442040310E-02  0.35026228168E-02  0.15751278143E-01  0.53229452625E-01  0.50000000745E-01 0. -1.
</event>
<event>
 4   0  0.6886900E-01  0.9118800E+02  0.7818609E-02  0.1379984E+01
      -11   -1    0    0    0    0  0.00000000000E+00  0.00000000000E+00  0.35740347158E-01  0.35744000000E-01  0.51099999109E-03 0. -1.
       11   -1    0    0    0    0 -0.00000000000E+00 -0.00000000000E+00 -0.35740347158E-01  0.35744000000E-01  0.51099999109E-03 0.  1.
       22    1    1    2    0    0  0.70002527541E-02  0.70136589859E-04  0.16863157904E-01  0.18258547375E-01  0.00000000000E+00 0.  1.
  9000001    1    1    2    0    0 -0.70002527541E-02 -0.70136589859E-04 -0.16863157904E-01  0.53229452625E-01  0.50000000745E-01 0.  1.
</event>
<event>
 4   0  0.6886900E-01  0.9118800E+02  0.7818609E-02  0.1379984E+01
      -11   -1    0    0    0    0  0.00000000000E+00  0.00000000000E+00  0.35740347158E-01  0.35744000000E-01  0.51099999109E-03 0. -1.
       11   -1    0    0    0    0 -0.00000000000E+00 -0.00000000000E+00 -0.35740347158E-01  0.35744000000E-01  0.51099999109E-03 0.  1.
       22    1    1    2    0    0 -0.24522535700E-02 -0.25702339111E-02 -0.17909631552E-01  0.18258547375E-01  0.00000000000E+00 0.  1.
  9000001    1    1    2    0    0  0.24522535700E-02  0.25702339111E-02  0.17909631552E-01  0.53229452625E-01  0.50000000745E-01 0. -1.
</event>
<event>
 4   0  0.6886900E-01  0.9118800E+02  0.7818609E-02  0.1379984E+01
      -11   -1    0    0    0    0  0.00000000000E+00  0.00000000000E+00  0.35740347158E-01  0.35744000000E-01  0.51099999109E-03 0. -1.
       11   -1    0    0    0    0 -0.00000000000E+00 -0.00000000000E+00 -0.35740347158E-01  0.35744000000E-01  0.51099999109E-03 0.  1.
       22    1    1    2    0    0 -0.17059786178E-01 -0.41399502152E-02 -0.50198665331E-02  0.18258547375E-01  0.00000000000E+00 0.  1.
  9000001    1    1    2    0    0  0.17059786178E-01  0.41399502152E-02  0.50198665331E-02  0.53229452625E-01  0.50000000745E-01 0.  0.
</event>
<event>
 4   0  0.6886900E-01  0.9118800E+02  0.7818609E-02  0.1379984E+01
      -11   -1    0    0    0    0  0.00000000000E+00  0.00000000000E+00  0.35740347158E-01  0.35744000000E-01  0.51099999109E-03 0.  1.
       11   -1    0    0    0    0 -0.00000000000E+00 -0.00000000000E+00 -0.35740347158E-01  0.35744000000E-01  0.51099999109E-03 0. -1.
       22    1    1    2    0    0  0.44958778208E-02 -0.49032759813E-02  0.17003514917E-01  0.18258547375E-01  0.00000000000E+00 0.  1.
  9000001    1    1    2    0    0 -0.44958778208E-02  0.49032759813E-02 -0.17003514917E-01  0.53229452625E-01  0.50000000745E-01 0. -1.
</event>
<event>
 4   0  0.6886900E-01  0.9118800E+02  0.7818609E-02  0.1379984E+01
      -11   -1    0    0    0    0  0.00000000000E+00  0.00000000000E+00  0.35740347158E-01  0.35744000000E-01  0.51099999109E-03 0. -1.
       11   -1    0    0    0    0 -0.00000000000E+00 -0.00000000000E+00 -0.35740347158E-01  0.35744000000E-01  0.51099999109E-03 0.  1.
       22    1    1    2    0    0  0.48064676982E-02  0.24849695701E-03  0.17612798465E-01  0.18258547375E-01  0.00000000000E+00 0. -1.
  9000001    1    1    2    0    0 -0.48064676982E-02 -0.24849695701E-03 -0.17612798465E-01  0.53229452625E-01  0.50000000745E-01 0.  1.
</event>
<event>
 4   0  0.6886900E-01  0.9118800E+02  0.7818609E-02  0.1379984E+01
      -11   -1    0    0    0    0  0.00000000000E+00  0.00000000000E+00  0.35740347158E-01  0.35744000000E-01  0.51099999109E-03 0. -1.
       11   -1    0    0    0    0 -0.00000000000E+00 -0.00000000000E+00 -0.35740347158E-01  0.35744000000E-01  0.51099999109E-03 0.  1.
       22    1    1    2    0    0 -0.68825195812E-03  0.31964115069E-02 -0.17963402099E-01  0.18258547375E-01  0.00000000000E+00 0. -1.
  9000001    1    1    2    0    0  0.68825195812E-03 -0.31964115069E-02  0.17963402099E-01  0.53229452625E-01  0.50000000745E-01 0. -1.
</event>
<event>
 4   0  0.6886900E-01  0.9118800E+02  0.7818609E-02  0.1379984E+01
      -11   -1    0    0    0    0  0.00000000000E+00  0.00000000000E+00  0.35740347158E-01  0.35744000000E-01  0.51099999109E-03 0.  1.
       11   -1    0    0    0    0 -0.00000000000E+00 -0.00000000000E+00 -0.35740347158E-01  0.35744000000E-01  0.51099999109E-03 0. -1.
       22    1    1    2    0    0  0.14684602882E-01 -0.10143131325E-01 -0.38540728284E-02  0.18258547375E-01  0.00000000000E+00 0. -1.
  9000001    1    1    2    0    0 -0.14684602882E-01  0.10143131325E-01  0.38540728284E-02  0.53229452625E-01  0.50000000745E-01 0.  0.
</event>
<event>
 4   0  0.6886900E-01  0.9118800E+02  0.7818609E-02  0.1379984E+01
      -11   -1    0    0    0    0  0.00000000000E+00  0.00000000000E+00  0.35740347158E-01  0.35744000000E-01  0.51099999109E-03 0.  1.
       11   -1    0    0    0    0 -0.00000000000E+00 -0.00000000000E+00 -0.35740347158E-01  0.35744000000E-01  0.51099999109E-03 0. -1.
       22    1    1    2    0    0 -0.13085392164E-01  0.77339950584E-02 -0.10115947044E-01  0.18258547375E-01  0.00000000000E+00 0.  1.
  9000001    1    1    2    0    0  0.13085392164E-01 -0.77339950584E-02  0.10115947044E-01  0.53229452625E-01  0.50000000745E-01 0.  1.
</event>
<event>
 4   0  0.6886900E-01  0.9118800E+02  0.7818609E-02  0.1379984E+01
      -11   -1    0    0    0    0  0.00000000000E+00  0.00000000000E+00  0.35740347158E-01  0.35744000000E-01  0.51099999109E-03 0.  1.
       11   -1    0    0    0    0 -0.00000000000E+00 -0.00000000000E+00 -0.35740347158E-01  0.35744000000E-01  0.51099999109E-03 0. -1.
       22    1    1    2    0    0 -0.62499036758E-02  0.29462171846E-03  0.17153030471E-01  0.18258547375E-01  0.00000000000E+00 0.  1.
  9000001    1    1    2    0    0  0.62499036758E-02 -0.29462171846E-03 -0.17153030471E-01  0.53229452625E-01  0.50000000745E-01 0. -1.
</event>
<event>
 4   0  0.6886900E-01  0.9118800E+02  0.7818609E-02  0.1379984E+01
      -11   -1    0    0    0    0  0.00000000000E+00  0.00000000000E+00  0.35740347158E-01  0.35744000000E-01  0.51099999109E-03 0. -1.
       11   -1    0    0    0    0 -0.00000000000E+00 -0.00000000000E+00 -0.35740347158E-01  0.35744000000E-01  0.51099999109E-03 0.  1.
       22    1    1    2    0    0 -0.33384260818E-02  0.16101018736E-02 -0.17878395775E-01  0.18258547375E-01  0.00000000000E+00 0.  1.
  9000001    1    1    2    0    0  0.33384260818E-02 -0.16101018736E-02  0.17878395775E-01  0.53229452625E-01  0.50000000745E-01 0. -1.
</event>
<event>
 4   0  0.6886900E-01  0.9118800E+02  0.7818609E-02  0.1379984E+01
      -11   -1    0    0    0    0  0.00000000000E+00  0.00000000000E+00  0.35740347158E-01  0.35744000000E-01  0.51099999109E-03 0.  1.
       11   -1    0    0    0    0 -0.00000000000E+00 -0.00000000000E+00 -0.35740347158E-01  0.35744000000E-01  0.51099999109E-03 0. -1.
       22    1    1    2    0    0  0.95967225762E-02  0.23807426358E-02 -0.15349577601E-01  0.18258547375E-01  0.00000000000E+00 0. -1.
  9000001    1    1    2    0    0 -0.95967225762E-02 -0.23807426358E-02  0.15349577601E-01  0.53229452625E-01  0.50000000745E-01 0.  1.
</event>
<event>
 4   0  0.6886900E-01  0.9118800E+02  0.7818609E-02  0.1379984E+01
      -11   -1    0    0    0    0  0.00000000000E+00  0.00000000000E+00  0.35740347158E-01  0.35744000000E-01  0.51099999109E-03 0. -1.
       11   -1    0    0    0    0 -0.00000000000E+00 -0.00000000000E+00 -0.35740347158E-01  0.35744000000E-01  0.51099999109E-03 0.  1.
       22    1    1    2    0    0  0.35375599660E-02  0.41426432470E-02  0.17426954084E-01  0.18258547375E-01  0.00000000000E+00 0. -1.
  9000001    1    1    2    0    0 -0.35375599660E-02 -0.41426432470E-02 -0.17426954084E-01  0.53229452625E-01  0.50000000745E-01 0.  1.
</event>
<event>
 4   0  0.6886900E-01  0.9118800E+02  0.7818609E-02  0.1379984E+01
      -11   -1    0    0    0    0  0.00000000000E+00  0.00000000000E+00  0.35740347158E-01  0.35744000000E-01  0.51099999109E-03 0. -1.
       11   -1    0    0    0    0 -0.00000000000E+00 -0.00000000000E+00 -0.35740347158E-01  0.35744000000E-01  0.51099999109E-03 0.  1.
       22    1    1    2    0    0 -0.79558928079E-02  0.11999308452E-01  0.11229199373E-01  0.18258547375E-01  0.00000000000E+00 0. -1.
  9000001    1    1    2    0    0  0.79558928079E-02 -0.11999308452E-01 -0.11229199373E-01  0.53229452625E-01  0.50000000745E-01 0.  1.
</event>
<event>
 4   0  0.6886900E-01  0.9118800E+02  0.7818609E-02  0.1379984E+01
      -11   -1    0    0    0    0  0.00000000000E+00  0.00000000000E+00  0.35740347158E-01  0.35744000000E-01  0.51099999109E-03 0.  1.
       11   -1    0    0    0    0 -0.00000000000E+00 -0.00000000000E+00 -0.35740347158E-01  0.35744000000E-01  0.51099999109E-03 0. -1.
       22    1    1    2    0    0 -0.67575997478E-02 -0.41171002816E-02  0.16454752601E-01  0.18258547375E-01  0.00000000000E+00 0.  1.
  9000001    1    1    2    0    0  0.67575997478E-02  0.41171002816E-02 -0.16454752601E-01  0.53229452625E-01  0.50000000745E-01 0. -1.
</event>
<event>
 4   0  0.6886900E-01  0.9118800E+02  0.7818609E-02  0.1379984E+01
      -11   -1    0    0    0    0  0.00000000000E+00  0.00000000000E+00  0.35740347158E-01  0.35744000000E-01  0.51099999109E-03 0.  1.
       11   -1    0    0    0    0 -0.00000000000E+00 -0.00000000000E+00 -0.35740347158E-01  0.35744000000E-01  0.51099999109E-03 0. -1.
       22    1    1    2    0    0 -0.11242950616E-01  0.58415080180E-02  0.13147144091E-01  0.18258547375E-01  0.00000000000E+00 0.  1.
  9000001    1    1    2    0    0  0.11242950616E-01 -0.58415080180E-02 -0.13147144091E-01  0.53229452625E-01  0.50000000745E-01 0. -1.
</event>
<event>
 4   0  0.6886900E-01  0.9118800E+02  0.7818609E-02  0.1379984E+01
      -11   -1    0    0    0    0  0.00000000000E+00  0.00000000000E+00  0.35740347158E-01  0.35744000000E-01  0.51099999109E-03 0. -1.
       11   -1    0    0    0    0 -0.00000000000E+00 -0.00000000000E+00 -0.35740347158E-01  0.35744000000E-01  0.51099999109E-03 0.  1.
       22    1    1    2    0    0 -0.24017767147E-02  0.38262535775E-02 -0.17690839562E-01  0.18258547375E-01  0.00000000000E+00 0.  1.
  9000001    1    1    2    0    0  0.24017767147E-02 -0.38262535775E-02  0.17690839562E-01  0.53229452625E-01  0.50000000745E-01 0. -1.
</event>
<event>
 4   0  0.6886900E-01  0.9118800E+02  0.7818609E-02  0.1379984E+01
      -11   -1    0    0    0    0  0.00000000000E+00  0.00000000000E+00  0.35740347158E-01  0.35744000000E-01  0.51099999109E-03 0. -1.
       11   -1    0    0    0    0 -0.00000000000E+00 -0.00000000000E+00 -0.35740347158E-01  0.35744000000E-01  0.51099999109E-03 0.  1.
       22    1    1    2    0    0  0.17104315240E-02  0.84768663833E-02  0.16080787063E-01  0.18258547375E-01  0.00000000000E+00 0.  1.
  9000001    1    1    2    0    0 -0.17104315240E-02 -0.84768663833E-02 -0.16080787063E-01  0.53229452625E-01  0.50000000745E-01 0.  0.
</event>
<event>
 4   0  0.6886900E-01  0.9118800E+02  0.7818609E-02  0.1379984E+01
      -11   -1    0    0    0    0  0.00000000000E+00  0.00000000000E+00  0.35740347158E-01  0.35744000000E-01  0.51099999109E-03 0. -1.
       11   -1    0    0    0    0 -0.00000000000E+00 -0.00000000000E+00 -0.35740347158E-01  0.35744000000E-01  0.51099999109E-03 0.  1.
       22    1    1    2    0    0  0.29212718624E-02 -0.24659545559E-02  0.17853845274E-01  0.18258547375E-01  0.00000000000E+00 0.  1.
  9000001    1    1    2    0    0 -0.29212718624E-02  0.24659545559E-02 -0.17853845274E-01  0.53229452625E-01  0.50000000745E-01 0.  1.
</event>
<event>
 4   0  0.6886900E-01  0.9118800E+02  0.7818609E-02  0.1379984E+01
      -11   -1    0    0    0    0  0.00000000000E+00  0.00000000000E+00  0.35740347158E-01  0.35744000000E-01  0.51099999109E-03 0.  1.
       11   -1    0    0    0    0 -0.00000000000E+00 -0.00000000000E+00 -0.35740347158E-01  0.35744000000E-01  0.51099999109E-03 0. -1.
       22    1    1    2    0    0  0.12827026046E-01 -0.29309128432E-02  0.12659056243E-01  0.18258547375E-01  0.00000000000E+00 0.  1.
  9000001    1    1    2    0    0 -0.12827026046E-01  0.29309128432E-02 -0.12659056243E-01  0.53229452625E-01  0.50000000745E-01 0. -1.
</event>
<event>
 4   0  0.6886900E-01  0.9118800E+02  0.7818609E-02  0.1379984E+01
      -11   -1    0    0    0    0  0.00000000000E+00  0.00000000000E+00  0.35740347158E-01  0.35744000000E-01  0.51099999109E-03 0.  1.
       11   -1    0    0    0    0 -0.00000000000E+00 -0.00000000000E+00 -0.35740347158E-01  0.35744000000E-01  0.51099999109E-03 0. -1.
       22    1    1    2    0    0 -0.32538465975E-02  0.26617995944E-03 -0.17964303014E-01  0.18258547375E-01  0.00000000000E+00 0.  1.
  9000001    1    1    2    0    0  0.32538465975E-02 -0.26617995944E-03  0.17964303014E-01  0.53229452625E-01  0.50000000745E-01 0.  1.
</event>
<event>
 4   0  0.6886900E-01  0.9118800E+02  0.7818609E-02  0.1379984E+01
      -11   -1    0    0    0    0  0.00000000000E+00  0.00000000000E+00  0.35740347158E-01  0.35744000000E-01  0.51099999109E-03 0. -1.
       11   -1    0    0    0    0 -0.00000000000E+00 -0.00000000000E+00 -0.35740347158E-01  0.35744000000E-01  0.51099999109E-03 0.  1.
       22    1    1    2    0    0  0.83747237275E-02  0.14919295955E-01 -0.63759832914E-02  0.18258547375E-01  0.00000000000E+00 0.  1.
  9000001    1    1    2    0    0 -0.83747237275E-02 -0.14919295955E-01  0.63759832914E-02  0.53229452625E-01  0.50000000745E-01 0. -1.
</event>
<event>
 4   0  0.6886900E-01  0.9118800E+02  0.7818609E-02  0.1379984E+01
      -11   -1    0    0    0    0  0.00000000000E+00  0.00000000000E+00  0.35740347158E-01  0.35744000000E-01  0.51099999109E-03 0.  1.
       11   -1    0    0    0    0 -0.00000000000E+00 -0.00000000000E+00 -0.35740347158E-01  0.35744000000E-01  0.51099999109E-03 0. -1.
       22    1    1    2    0    0 -0.22132552108E-02  0.17980131451E-01  0.22783605152E-02  0.18258547375E-01  0.00000000000E+00 0. -1.
  9000001    1    1    2    0    0  0.22132552108E-02 -0.17980131451E-01 -0.22783605152E-02  0.53229452625E-01  0.50000000745E-01 0.  0.
</event>
<event>
 4   0  0.6886900E-01  0.9118800E+02  0.7818609E-02  0.1379984E+01
      -11   -1    0    0    0    0  0.00000000000E+00  0.00000000000E+00  0.35740347158E-01  0.35744000000E-01  0.51099999109E-03 0.  1.
       11   -1    0    0    0    0 -0.00000000000E+00 -0.00000000000E+00 -0.35740347158E-01  0.35744000000E-01  0.51099999109E-03 0. -1.
       22    1    1    2    0    0 -0.53438639221E-02 -0.32928987828E-02  0.17145684245E-01  0.18258547375E-01  0.00000000000E+00 0.  1.
  9000001    1    1    2    0    0  0.53438639221E-02  0.32928987828E-02 -0.17145684245E-01  0.53229452625E-01  0.50000000745E-01 0. -1.
</event>
<event>
 4   0  0.6886900E-01  0.9118800E+02  0.7818609E-02  0.1379984E+01
      -11   -1    0    0    0    0  0.00000000000E+00  0.00000000000E+00  0.35740347158E-01  0.35744000000E-01  0.51099999109E-03 0.  1.
       11   -1    0    0    0    0 -0.00000000000E+00 -0.00000000000E+00 -0.35740347158E-01  0.35744000000E-01  0.51099999109E-03 0. -1.
       22    1    1    2    0    0 -0.24437191624E-02  0.48746608007E-02 -0.17425282522E-01  0.18258547375E-01  0.00000000000E+00 0. -1.
  9000001    1    1    2    0    0  0.24437191624E-02 -0.48746608007E-02  0.17425282522E-01  0.53229452625E-01  0.50000000745E-01 0.  1.
</event>
<event>
 4   0  0.6886900E-01  0.9118800E+02  0.7818609E-02  0.1379984E+01
      -11   -1    0    0    0    0  0.00000000000E+00  0.00000000000E+00  0.35740347158E-01  0.35744000000E-01  0.51099999109E-03 0. -1.
       11   -1    0    0    0    0 -0.00000000000E+00 -0.00000000000E+00 -0.35740347158E-01  0.35744000000E-01  0.51099999109E-03 0.  1.
       22    1    1    2    0    0 -0.52467541013E-02 -0.16993159137E-01 -0.41326342913E-02  0.18258547375E-01  0.00000000000E+00 0.  1.
  9000001    1    1    2    0    0  0.52467541013E-02  0.16993159137E-01  0.41326342913E-02  0.53229452625E-01  0.50000000745E-01 0.  1.
</event>
<event>
 4   0  0.6886900E-01  0.9118800E+02  0.7818609E-02  0.1379984E+01
      -11   -1    0    0    0    0  0.00000000000E+00  0.00000000000E+00  0.35740347158E-01  0.35744000000E-01  0.51099999109E-03 0.  1.
       11   -1    0    0    0    0 -0.00000000000E+00 -0.00000000000E+00 -0.35740347158E-01  0.35744000000E-01  0.51099999109E-03 0. -1.
       22    1    1    2    0    0  0.47667718851E-02 -0.17501833329E-02  0.17538223865E-01  0.18258547375E-01  0.00000000000E+00 0.  1.
  9000001    1    1    2    0    0 -0.47667718851E-02  0.17501833329E-02 -0.17538223865E-01  0.53229452625E-01  0.50000000745E-01 0. -1.
</event>
<event>
 4   0  0.6886900E-01  0.9118800E+02  0.7818609E-02  0.1379984E+01
      -11   -1    0    0    0    0  0.00000000000E+00  0.00000000000E+00  0.35740347158E-01  0.35744000000E-01  0.51099999109E-03 0. -1.
       11   -1    0    0    0    0 -0.00000000000E+00 -0.00000000000E+00 -0.35740347158E-01  0.35744000000E-01  0.51099999109E-03 0.  1.
       22    1    1    2    0    0 -0.30158462308E-02  0.15692510849E-02  0.17939249560E-01  0.18258547375E-01  0.00000000000E+00 0. -1.
  9000001    1    1    2    0    0  0.30158462308E-02 -0.15692510849E-02 -0.17939249560E-01  0.53229452625E-01  0.50000000745E-01 0.  1.
</event>
<event>
 4   0  0.6886900E-01  0.9118800E+02  0.7818609E-02  0.1379984E+01
      -11   -1    0    0    0    0  0.00000000000E+00  0.00000000000E+00  0.35740347158E-01  0.35744000000E-01  0.51099999109E-03 0.  1.
       11   -1    0    0    0    0 -0.00000000000E+00 -0.00000000000E+00 -0.35740347158E-01  0.35744000000E-01  0.51099999109E-03 0. -1.
       22    1    1    2    0    0 -0.18119538584E-01 -0.85787553300E-03  0.20786830730E-02  0.18258547375E-01  0.00000000000E+00 0. -1.
  9000001    1    1    2    0    0  0.18119538584E-01  0.85787553300E-03 -0.20786830730E-02  0.53229452625E-01  0.50000000745E-01 0.  0.
</event>
<event>
 4   0  0.6886900E-01  0.9118800E+02  0.7818609E-02  0.1379984E+01
      -11   -1    0    0    0    0  0.00000000000E+00  0.00000000000E+00  0.35740347158E-01  0.35744000000E-01  0.51099999109E-03 0.  1.
       11   -1    0    0    0    0 -0.00000000000E+00 -0.00000000000E+00 -0.35740347158E-01  0.35744000000E-01  0.51099999109E-03 0. -1.
       22    1    1    2    0    0  0.12824948742E-01  0.78372660594E-02 -0.10366894556E-01  0.18258547375E-01  0.00000000000E+00 0. -1.
  9000001    1    1    2    0    0 -0.12824948742E-01 -0.78372660594E-02  0.10366894556E-01  0.53229452625E-01  0.50000000745E-01 0.  1.
</event>
<event>
 4   0  0.6886900E-01  0.9118800E+02  0.7818609E-02  0.1379984E+01
      -11   -1    0    0    0    0  0.00000000000E+00  0.00000000000E+00  0.35740347158E-01  0.35744000000E-01  0.51099999109E-03 0. -1.
       11   -1    0    0    0    0 -0.00000000000E+00 -0.00000000000E+00 -0.35740347158E-01  0.35744000000E-01  0.51099999109E-03 0.  1.
       22    1    1    2    0    0 -0.11607563489E-01  0.13944968044E-01  0.20437437079E-02  0.18258547375E-01  0.00000000000E+00 0.  1.
  9000001    1    1    2    0    0  0.11607563489E-01 -0.13944968044E-01 -0.20437437079E-02  0.53229452625E-01  0.50000000745E-01 0.  0.
</event>
<event>
 4   0  0.6886900E-01  0.9118800E+02  0.7818609E-02  0.1379984E+01
      -11   -1    0    0    0    0  0.00000000000E+00  0.00000000000E+00  0.35740347158E-01  0.35744000000E-01  0.51099999109E-03 0.  1.
       11   -1    0    0    0    0 -0.00000000000E+00 -0.00000000000E+00 -0.35740347158E-01  0.35744000000E-01  0.51099999109E-03 0. -1.
       22    1    1    2    0    0  0.63100290878E-02 -0.63194217182E-02 -0.15925545338E-01  0.18258547375E-01  0.00000000000E+00 0. -1.
  9000001    1    1    2    0    0 -0.63100290878E-02  0.63194217182E-02  0.15925545338E-01  0.53229452625E-01  0.50000000745E-01 0.  1.
</event>
<event>
 4   0  0.6886900E-01  0.9118800E+02  0.7818609E-02  0.1379984E+01
      -11   -1    0    0    0    0  0.00000000000E+00  0.00000000000E+00  0.35740347158E-01  0.35744000000E-01  0.51099999109E-03 0.  1.
       11   -1    0    0    0    0 -0.00000000000E+00 -0.00000000000E+00 -0.35740347158E-01  0.35744000000E-01  0.51099999109E-03 0. -1.
       22    1    1    2    0    0  0.41400930405E-02 -0.60856671340E-02  0.16709244070E-01  0.18258547375E-01  0.00000000000E+00 0.  1.
  9000001    1    1    2    0    0 -0.41400930405E-02  0.60856671340E-02 -0.16709244070E-01  0.53229452625E-01  0.50000000745E-01 0. -1.
</event>
<event>
 4   0  0.6886900E-01  0.9118800E+02  0.7818609E-02  0.1379984E+01
      -11   -1    0    0    0    0  0.00000000000E+00  0.00000000000E+00  0.35740347158E-01  0.35744000000E-01  0.51099999109E-03 0. -1.
       11   -1    0    0    0    0 -0.00000000000E+00 -0.00000000000E+00 -0.35740347158E-01  0.35744000000E-01  0.51099999109E-03 0.  1.
       22    1    1    2    0    0 -0.50719210085E-02 -0.35882469497E-02  0.17169002690E-01  0.18258547375E-01  0.00000000000E+00 0. -1.
  9000001    1    1    2    0    0  0.50719210085E-02  0.35882469497E-02 -0.17169002690E-01  0.53229452625E-01  0.50000000745E-01 0.  1.
</event>
<event>
 4   0  0.6886900E-01  0.9118800E+02  0.7818609E-02  0.1379984E+01
      -11   -1    0    0    0    0  0.00000000000E+00  0.00000000000E+00  0.35740347158E-01  0.35744000000E-01  0.51099999109E-03 0. -1.
       11   -1    0    0    0    0 -0.00000000000E+00 -0.00000000000E+00 -0.35740347158E-01  0.35744000000E-01  0.51099999109E-03 0.  1.
       22    1    1    2    0    0  0.41332475864E-02  0.17617632714E-01  0.24310150563E-02  0.18258547375E-01  0.00000000000E+00 0.  1.
  9000001    1    1    2    0    0 -0.41332475864E-02 -0.17617632714E-01 -0.24310150563E-02  0.53229452625E-01  0.50000000745E-01 0. -1.
</event>
<event>
 4   0  0.6886900E-01  0.9118800E+02  0.7818609E-02  0.1379984E+01
      -11   -1    0    0    0    0  0.00000000000E+00  0.00000000000E+00  0.35740347158E-01  0.35744000000E-01  0.51099999109E-03 0. -1.
       11   -1    0    0    0    0 -0.00000000000E+00 -0.00000000000E+00 -0.35740347158E-01  0.35744000000E-01  0.51099999109E-03 0.  1.
       22    1    1    2    0    0  0.16965721221E-01 -0.25258537786E-02 -0.62577087176E-02  0.18258547375E-01  0.00000000000E+00 0.  1.
  9000001    1    1    2    0    0 -0.16965721221E-01  0.25258537786E-02  0.62577087176E-02  0.53229452625E-01  0.50000000745E-01 0.  0.
</event>
<event>
 4   0  0.6886900E-01  0.9118800E+02  0.7818609E-02  0.1379984E+01
      -11   -1    0    0    0    0  0.00000000000E+00  0.00000000000E+00  0.35740347158E-01  0.35744000000E-01  0.51099999109E-03 0.  1.
       11   -1    0    0    0    0 -0.00000000000E+00 -0.00000000000E+00 -0.35740347158E-01  0.35744000000E-01  0.51099999109E-03 0. -1.
       22    1    1    2    0    0 -0.14675861949E-01 -0.42488122161E-02 -0.99970607212E-02  0.18258547375E-01  0.00000000000E+00 0. -1.
  9000001    1    1    2    0    0  0.14675861949E-01  0.42488122161E-02  0.99970607212E-02  0.53229452625E-01  0.50000000745E-01 0.  1.
</event>
<event>
 4   0  0.6886900E-01  0.9118800E+02  0.7818609E-02  0.1379984E+01
      -11   -1    0    0    0    0  0.00000000000E+00  0.00000000000E+00  0.35740347158E-01  0.35744000000E-01  0.51099999109E-03 0. -1.
       11   -1    0    0    0    0 -0.00000000000E+00 -0.00000000000E+00 -0.35740347158E-01  0.35744000000E-01  0.51099999109E-03 0.  1.
       22    1    1    2    0    0 -0.70315591165E-02 -0.93616445266E-02  0.14010401150E-01  0.18258547375E-01  0.00000000000E+00 0. -1.
  9000001    1    1    2    0    0  0.70315591165E-02  0.93616445266E-02 -0.14010401150E-01  0.53229452625E-01  0.50000000745E-01 0.  1.
</event>
<event>
 4   0  0.6886900E-01  0.9118800E+02  0.7818609E-02  0.1379984E+01
      -11   -1    0    0    0    0  0.00000000000E+00  0.00000000000E+00  0.35740347158E-01  0.35744000000E-01  0.51099999109E-03 0.  1.
       11   -1    0    0    0    0 -0.00000000000E+00 -0.00000000000E+00 -0.35740347158E-01  0.35744000000E-01  0.51099999109E-03 0. -1.
       22    1    1    2    0    0  0.71385353344E-03  0.59091657442E-02  0.17261133381E-01  0.18258547375E-01  0.00000000000E+00 0. -1.
  9000001    1    1    2    0    0 -0.71385353344E-03 -0.59091657442E-02 -0.17261133381E-01  0.53229452625E-01  0.50000000745E-01 0. -1.
</event>
<event>
 4   0  0.6886900E-01  0.9118800E+02  0.7818609E-02  0.1379984E+01
      -11   -1    0    0    0    0  0.00000000000E+00  0.00000000000E+00  0.35740347158E-01  0.35744000000E-01  0.51099999109E-03 0. -1.
       11   -1    0    0    0    0 -0.00000000000E+00 -0.00000000000E+00 -0.35740347158E-01  0.35744000000E-01  0.51099999109E-03 0.  1.
       22    1    1    2    0    0 -0.18061374446E-01 -0.25927539861E-02  0.66251953838E-03  0.18258547375E-01  0.00000000000E+00 0.  1.
  9000001    1    1    2    0    0  0.18061374446E-01  0.25927539861E-02 -0.66251953838E-03  0.53229452625E-01  0.50000000745E-01 0.  0.
</event>
<event>
 4   0  0.6886900E-01  0.9118800E+02  0.7818609E-02  0.1379984E+01
      -11   -1    0    0    0    0  0.00000000000E+00  0.00000000000E+00  0.35740347158E-01  0.35744000000E-01  0.51099999109E-03 0.  1.
       11   -1    0    0    0    0 -0.00000000000E+00 -0.00000000000E+00 -0.35740347158E-01  0.35744000000E-01  0.51099999109E-03 0. -1.
       22    1    1    2    0    0 -0.98915251033E-02  0.22447174798E-03  0.15345419376E-01  0.18258547375E-01  0.00000000000E+00 0. -1.
  9000001    1    1    2    0    0  0.98915251033E-02 -0.22447174798E-03 -0.15345419376E-01  0.53229452625E-01  0.50000000745E-01 0. -1.
</event>
<event>
 4   0  0.6886900E-01  0.9118800E+02  0.7818609E-02  0.1379984E+01
      -11   -1    0    0    0    0  0.00000000000E+00  0.00000000000E+00  0.35740347158E-01  0.35744000000E-01  0.51099999109E-03 0. -1.
       11   -1    0    0    0    0 -0.00000000000E+00 -0.00000000000E+00 -0.35740347158E-01  0.35744000000E-01  0.51099999109E-03 0.  1.
       22    1    1    2    0    0 -0.24394330722E-02  0.12444146646E-01 -0.13136473377E-01  0.18258547375E-01  0.00000000000E+00 0.  1.
  9000001    1    1    2    0    0  0.24394330722E-02 -0.12444146646E-01  0.13136473377E-01  0.53229452625E-01  0.50000000745E-01 0. -1.
</event>
<event>
 4   0  0.6886900E-01  0.9118800E+02  0.7818609E-02  0.1379984E+01
      -11   -1    0    0    0    0  0.00000000000E+00  0.00000000000E+00  0.35740347158E-01  0.35744000000E-01  0.51099999109E-03 0.  1.
       11   -1    0    0    0    0 -0.00000000000E+00 -0.00000000000E+00 -0.35740347158E-01  0.35744000000E-01  0.51099999109E-03 0. -1.
       22    1    1    2    0    0  0.69280480509E-02 -0.57480365656E-02  0.15885111838E-01  0.18258547375E-01  0.00000000000E+00 0. -1.
  9000001    1    1    2    0    0 -0.69280480509E-02  0.57480365656E-02 -0.15885111838E-01  0.53229452625E-01  0.50000000745E-01 0. -1.
</event>
<event>
 4   0  0.6886900E-01  0.9118800E+02  0.7818609E-02  0.1379984E+01
      -11   -1    0    0    0    0  0.00000000000E+00  0.00000000000E+00  0.35740347158E-01  0.35744000000E-01  0.51099999109E-03 0.  1.
       11   -1    0    0    0    0 -0.00000000000E+00 -0.00000000000E+00 -0.35740347158E-01  0.35744000000E-01  0.51099999109E-03 0. -1.
       22    1    1    2    0    0  0.29763726719E-02  0.52544107120E-03 -0.18006656259E-01  0.18258547375E-01  0.00000000000E+00 0. -1.
  9000001    1    1    2    0    0 -0.29763726719E-02 -0.52544107120E-03  0.18006656259E-01  0.53229452625E-01  0.50000000745E-01 0.  1.
</event>
<event>
 4   0  0.6886900E-01  0.9118800E+02  0.7818609E-02  0.1379984E+01
      -11   -1    0    0    0    0  0.00000000000E+00  0.00000000000E+00  0.35740347158E-01  0.35744000000E-01  0.51099999109E-03 0.  1.
       11   -1    0    0    0    0 -0.00000000000E+00 -0.00000000000E+00 -0.35740347158E-01  0.35744000000E-01  0.51099999109E-03 0. -1.
       22    1    1    2    0    0 -0.11746407764E-02  0.31926155198E-02  0.17938839913E-01  0.18258547375E-01  0.00000000000E+00 0.  1.
  9000001    1    1    2    0    0  0.11746407764E-02 -0.31926155198E-02 -0.17938839913E-01  0.53229452625E-01  0.50000000745E-01 0. -1.
</event>
<event>
 4   0  0.6886900E-01  0.9118800E+02  0.7818609E-02  0.1379984E+01
      -11   -1    0    0    0    0  0.00000000000E+00  0.00000000000E+00  0.35740347158E-01  0.35744000000E-01  0.51099999109E-03 0.  1.
       11   -1    0    0    0    0 -0.00000000000E+00 -0.00000000000E+00 -0.35740347158E-01  0.35744000000E-01  0.51099999109E-03 0. -1.
       22    1    1    2    0    0 -0.15810985935E-01  0.44031887568E-02  0.79999502983E-02  0.18258547375E-01  0.00000000000E+00 0. -1.
  9000001    1    1    2    0    0  0.15810985935E-01 -0.44031887568E-02 -0.79999502983E-02  0.53229452625E-01  0.50000000745E-01 0. -1.
</event>
<event>
 4   0  0.6886900E-01  0.9118800E+02  0.7818609E-02  0.1379984E+01
      -11   -1    0    0    0    0  0.00000000000E+00  0.00000000000E+00  0.35740347158E-01  0.35744000000E-01  0.51099999109E-03 0.  1.
       11   -1    0    0    0    0 -0.00000000000E+00 -0.00000000000E+00 -0.35740347158E-01  0.35744000000E-01  0.51099999109E-03 0. -1.
       22    1    1    2    0    0 -0.76296795939E-02 -0.87246811459E-02  0.14108241579E-01  0.18258547375E-01  0.00000000000E+00 0. -1.
  9000001    1    1    2    0    0  0.76296795939E-02  0.87246811459E-02 -0.14108241579E-01  0.53229452625E-01  0.50000000745E-01 0.  0.
</event>
<event>
 4   0  0.6886900E-01  0.9118800E+02  0.7818609E-02  0.1379984E+01
      -11   -1    0    0    0    0  0.00000000000E+00  0.00000000000E+00  0.35740347158E-01  0.35744000000E-01  0.51099999109E-03 0. -1.
       11   -1    0    0    0    0 -0.00000000000E+00 -0.00000000000E+00 -0.35740347158E-01  0.35744000000E-01  0.51099999109E-03 0.  1.
       22    1    1    2    0    0  0.36799699511E-02 -0.56893859973E-02  0.16954741531E-01  0.18258547375E-01  0.00000000000E+00 0. -1.
  9000001    1    1    2    0    0 -0.36799699511E-02  0.56893859973E-02 -0.16954741531E-01  0.53229452625E-01  0.50000000745E-01 0.  1.
</event>
<event>
 4   0  0.6886900E-01  0.9118800E+02  0.7818609E-02  0.1379984E+01
      -11   -1    0    0    0    0  0.00000000000E+00  0.00000000000E+00  0.35740347158E-01  0.35744000000E-01  0.51099999109E-03 0.  1.
       11   -1    0    0    0    0 -0.00000000000E+00 -0.00000000000E+00 -0.35740347158E-01  0.35744000000E-01  0.51099999109E-03 0. -1.
       22    1    1    2    0    0 -0.61011446782E-02  0.37664716512E-02 -0.16791791958E-01  0.18258547375E-01  0.00000000000E+00 0. -1.
  9000001    1    1    2    0    0  0.61011446782E-02 -0.37664716512E-02  0.16791791958E-01  0.53229452625E-01  0.50000000745E-01 0.  1.
</event>
<event>
 4   0  0.6886900E-01  0.9118800E+02  0.7818609E-02  0.1379984E+01
      -11   -1    0    0    0    0  0.00000000000E+00  0.00000000000E+00  0.35740347158E-01  0.35744000000E-01  0.51099999109E-03 0.  1.
       11   -1    0    0    0    0 -0.00000000000E+00 -0.00000000000E+00 -0.35740347158E-01  0.35744000000E-01  0.51099999109E-03 0. -1.
       22    1    1    2    0    0  0.55512673654E-02  0.93351630812E-02  0.14676944952E-01  0.18258547375E-01  0.00000000000E+00 0. -1.
  9000001    1    1    2    0    0 -0.55512673654E-02 -0.93351630812E-02 -0.14676944952E-01  0.53229452625E-01  0.50000000745E-01 0. -1.
</event>
<event>
 4   0  0.6886900E-01  0.9118800E+02  0.7818609E-02  0.1379984E+01
      -11   -1    0    0    0    0  0.00000000000E+00  0.00000000000E+00  0.35740347158E-01  0.35744000000E-01  0.51099999109E-03 0. -1.
       11   -1    0    0    0    0 -0.00000000000E+00 -0.00000000000E+00 -0.35740347158E-01  0.35744000000E-01  0.51099999109E-03 0.  1.
       22    1    1    2    0    0 -0.11559936586E-01 -0.43488151463E-02  0.13447312936E-01  0.18258547375E-01  0.00000000000E+00 0. -1.
  9000001    1    1    2    0    0  0.11559936586E-01  0.43488151463E-02 -0.13447312936E-01  0.53229452625E-01  0.50000000745E-01 0.  1.
</event>
<event>
 4   0  0.6886900E-01  0.9118800E+02  0.7818609E-02  0.1379984E+01
      -11   -1    0    0    0    0  0.00000000000E+00  0.00000000000E+00  0.35740347158E-01  0.35744000000E-01  0.51099999109E-03 0. -1.
       11   -1    0    0    0    0 -0.00000000000E+00 -0.00000000000E+00 -0.35740347158E-01  0.35744000000E-01  0.51099999109E-03 0.  1.
       22    1    1    2    0    0  0.24552857001E-02 -0.47024739298E-02  0.17470914782E-01  0.18258547375E-01  0.00000000000E+00 0. -1.
  9000001    1    1    2    0    0 -0.24552857001E-02  0.47024739298E-02 -0.17470914782E-01  0.53229452625E-01  0.50000000745E-01 0.  1.
</event>
<event>
 4   0  0.6886900E-01  0.9118800E+02  0.7818609E-02  0.1379984E+01
      -11   -1    0    0    0    0  0.00000000000E+00  0.00000000000E+00  0.35740347158E-01  0.35744000000E-01  0.51099999109E-03 0. -1.
       11   -1    0    0    0    0 -0.00000000000E+00 -0.00000000000E+00 -0.35740347158E-01  0.35744000000E-01  0.51099999109E-03 0.  1.
       22    1    1    2    0    0 -0.36289464117E-02 -0.13024569722E-02 -0.17846817812E-01  0.18258547375E-01  0.00000000000E+00 0.  1.
  9000001    1    1    2    0    0  0.36289464117E-02  0.13024569722E-02  0.17846817812E-01  0.53229452625E-01  0.50000000745E-01 0. -1.
</event>
<event>
 4   0  0.6886900E-01  0.9118800E+02  0.7818609E-02  0.1379984E+01
      -11   -1    0    0    0    0  0.00000000000E+00  0.00000000000E+00  0.35740347158E-01  0.35744000000E-01  0.51099999109E-03 0.  1.
       11   -1    0    0    0    0 -0.00000000000E+00 -0.00000000000E+00 -0.35740347158E-01  0.35744000000E-01  0.51099999109E-03 0. -1.
       22    1    1    2    0    0  0.43577166767E-02 -0.21798635233E-03  0.17729561178E-01  0.18258547375E-01  0.00000000000E+00 0.  1.
  9000001    1    1    2    0    0 -0.43577166767E-02  0.21798635233E-03 -0.17729561178E-01  0.53229452625E-01  0.50000000745E-01 0.  0.
</event>
<event>
 4   0  0.6886900E-01  0.9118800E+02  0.7818609E-02  0.1379984E+01
      -11   -1    0    0    0    0  0.00000000000E+00  0.00000000000E+00  0.35740347158E-01  0.35744000000E-01  0.51099999109E-03 0.  1.
       11   -1    0    0    0    0 -0.00000000000E+00 -0.00000000000E+00 -0.35740347158E-01  0.35744000000E-01  0.51099999109E-03 0. -1.
       22    1    1    2    0    0  0.13752455215E-01  0.11411422337E-01  0.37448588808E-02  0.18258547375E-01  0.00000000000E+00 0.  1.
  9000001    1    1    2    0    0 -0.13752455215E-01 -0.11411422337E-01 -0.37448588808E-02  0.53229452625E-01  0.50000000745E-01 0.  0.
</event>
<event>
 4   0  0.6886900E-01  0.9118800E+02  0.7818609E-02  0.1379984E+01
      -11   -1    0    0    0    0  0.00000000000E+00  0.00000000000E+00  0.35740347158E-01  0.35744000000E-01  0.51099999109E-03 0.  1.
       11   -1    0    0    0    0 -0.00000000000E+00 -0.00000000000E+00 -0.35740347158E-01  0.35744000000E-01  0.51099999109E-03 0. -1.
       22    1    1    2    0    0 -0.37028653140E-02  0.24213790723E-02  0.17714408376E-01  0.18258547375E-01  0.00000000000E+00 0.  1.
  9000001    1    1    2    0    0  0.37028653140E-02 -0.24213790723E-02 -0.17714408376E-01  0.53229452625E-01  0.50000000745E-01 0. -1.
</event>
<event>
 4   0  0.6886900E-01  0.9118800E+02  0.7818609E-02  0.1379984E+01
      -11   -1    0    0    0    0  0.00000000000E+00  0.00000000000E+00  0.35740347158E-01  0.35744000000E-01  0.51099999109E-03 0. -1.
       11   -1    0    0    0    0 -0.00000000000E+00 -0.00000000000E+00 -0.35740347158E-01  0.35744000000E-01  0.51099999109E-03 0.  1.
       22    1    1    2    0    0  0.88907932871E-04  0.41260088217E-02 -0.17786025380E-01  0.18258547375E-01  0.00000000000E+00 0.  1.
  9000001    1    1    2    0    0 -0.88907932871E-04 -0.41260088217E-02  0.17786025380E-01  0.53229452625E-01  0.50000000745E-01 0. -1.
</event>
<event>
 4   0  0.6886900E-01  0.9118800E+02  0.7818609E-02  0.1379984E+01
      -11   -1    0    0    0    0  0.00000000000E+00  0.00000000000E+00  0.35740347158E-01  0.35744000000E-01  0.51099999109E-03 0. -1.
       11   -1    0    0    0    0 -0.00000000000E+00 -0.00000000000E+00 -0.35740347158E-01  0.35744000000E-01  0.51099999109E-03 0.  1.
       22    1    1    2    0    0  0.15090674883E-01 -0.14752574050E-02 -0.10172005673E-01  0.18258547375E-01  0.00000000000E+00 0.  1.
  9000001    1    1    2    0    0 -0.15090674883E-01  0.14752574050E-02  0.10172005673E-01  0.53229452625E-01  0.50000000745E-01 0.  0.
</event>
<event>
 4   0  0.6886900E-01  0.9118800E+02  0.7818609E-02  0.1379984E+01
      -11   -1    0    0    0    0  0.00000000000E+00  0.00000000000E+00  0.35740347158E-01  0.35744000000E-01  0.51099999109E-03 0.  1.
       11   -1    0    0    0    0 -0.00000000000E+00 -0.00000000000E+00 -0.35740347158E-01  0.35744000000E-01  0.51099999109E-03 0. -1.
       22    1    1    2    0    0  0.12353414921E-01  0.13394584059E-01 -0.11631035684E-02  0.18258547375E-01  0.00000000000E+00 0.  1.
  9000001    1    1    2    0    0 -0.12353414921E-01 -0.13394584059E-01  0.11631035684E-02  0.53229452625E-01  0.50000000745E-01 0. -1.
</event>
<event>
 4   0  0.6886900E-01  0.9118800E+02  0.7818609E-02  0.1379984E+01
      -11   -1    0    0    0    0  0.00000000000E+00  0.00000000000E+00  0.35740347158E-01  0.35744000000E-01  0.51099999109E-03 0. -1.
       11   -1    0    0    0    0 -0.00000000000E+00 -0.00000000000E+00 -0.35740347158E-01  0.35744000000E-01  0.51099999109E-03 0.  1.
       22    1    1    2    0    0 -0.27203438406E-02 -0.10701266849E-01  0.14541566954E-01  0.18258547375E-01  0.00000000000E+00 0.  1.
  9000001    1    1    2    0    0  0.27203438406E-02  0.10701266849E-01 -0.14541566954E-01  0.53229452625E-01  0.50000000745E-01 0.  1.
</event>
<event>
 4   0  0.6886900E-01  0.9118800E+02  0.7818609E-02  0.1379984E+01
      -11   -1    0    0    0    0  0.00000000000E+00  0.00000000000E+00  0.35740347158E-01  0.35744000000E-01  0.51099999109E-03 0.  1.
       11   -1    0    0    0    0 -0.00000000000E+00 -0.00000000000E+00 -0.35740347158E-01  0.35744000000E-01  0.51099999109E-03 0. -1.
       22    1    1    2    0    0 -0.96552977183E-02 -0.47655393266E-03 -0.15489437516E-01  0.18258547375E-01  0.00000000000E+00 0.  1.
  9000001    1    1    2    0    0  0.96552977183E-02  0.47655393266E-03  0.15489437516E-01  0.53229452625E-01  0.50000000745E-01 0.  1.
</event>
<event>
 4   0  0.6886900E-01  0.9118800E+02  0.7818609E-02  0.1379984E+01
      -11   -1    0    0    0    0  0.00000000000E+00  0.00000000000E+00  0.35740347158E-01  0.35744000000E-01  0.51099999109E-03 0.  1.
       11   -1    0    0    0    0 -0.00000000000E+00 -0.00000000000E+00 -0.35740347158E-01  0.35744000000E-01  0.51099999109E-03 0. -1.
       22    1    1    2    0    0  0.57609530431E-02  0.47000654553E-02  0.16676191322E-01  0.18258547375E-01  0.00000000000E+00 0.  1.
  9000001    1    1    2    0    0 -0.57609530431E-02 -0.47000654553E-02 -0.16676191322E-01  0.53229452625E-01  0.50000000745E-01 0. -1.
</event>
<event>
 4   0  0.6886900E-01  0.9118800E+02  0.7818609E-02  0.1379984E+01
      -11   -1    0    0    0    0  0.00000000000E+00  0.00000000000E+00  0.35740347158E-01  0.35744000000E-01  0.51099999109E-03 0. -1.
       11   -1    0    0    0    0 -0.00000000000E+00 -0.00000000000E+00 -0.35740347158E-01  0.35744000000E-01  0.51099999109E-03 0.  1.
       22    1    1    2    0    0  0.67223110241E-02  0.47983319251E-02  0.16283767914E-01  0.18258547375E-01  0.00000000000E+00 0. -1.
  9000001    1    1    2    0    0 -0.67223110241E-02 -0.47983319251E-02 -0.16283767914E-01  0.53229452625E-01  0.50000000745E-01 0.  1.
</event>
<event>
 4   0  0.6886900E-01  0.9118800E+02  0.7818609E-02  0.1379984E+01
      -11   -1    0    0    0    0  0.00000000000E+00  0.00000000000E+00  0.35740347158E-01  0.35744000000E-01  0.51099999109E-03 0.  1.
       11   -1    0    0    0    0 -0.00000000000E+00 -0.00000000000E+00 -0.35740347158E-01  0.35744000000E-01  0.51099999109E-03 0. -1.
       22    1    1    2    0    0 -0.13923162237E-01  0.14330562084E-02  0.11724608969E-01  0.18258547375E-01  0.00000000000E+00 0. -1.
  9000001    1    1    2    0    0  0.13923162237E-01 -0.14330562084E-02 -0.11724608969E-01  0.53229452625E-01  0.50000000745E-01 0.  0.
</event>
<event>
 4   0  0.6886900E-01  0.9118800E+02  0.7818609E-02  0.1379984E+01
      -11   -1    0    0    0    0  0.00000000000E+00  0.00000000000E+00  0.35740347158E-01  0.35744000000E-01  0.51099999109E-03 0. -1.
       11   -1    0    0    0    0 -0.00000000000E+00 -0.00000000000E+00 -0.35740347158E-01  0.35744000000E-01  0.51099999109E-03 0.  1.
       22    1    1    2    0    0  0.73280750408E-02  0.27774929295E-02  0.16491191633E-01  0.18258547375E-01  0.00000000000E+00 0.  1.
  9000001    1    1    2    0    0 -0.73280750408E-02 -0.27774929295E-02 -0.16491191633E-01  0.53229452625E-01  0.50000000745E-01 0.  1.
</event>
<event>
 4   0  0.6886900E-01  0.9118800E+02  0.7818609E-02  0.1379984E+01
      -11   -1    0    0    0    0  0.00000000000E+00  0.00000000000E+00  0.35740347158E-01  0.35744000000E-01  0.51099999109E-03 0. -1.
       11   -1    0    0    0    0 -0.00000000000E+00 -0.00000000000E+00 -0.35740347158E-01  0.35744000000E-01  0.51099999109E-03 0.  1.
       22    1    1    2    0    0  0.40594077615E-02 -0.85415408207E-02 -0.15618509573E-01  0.18258547375E-01  0.00000000000E+00 0. -1.
  9000001    1    1    2    0    0 -0.40594077615E-02  0.85415408207E-02  0.15618509573E-01  0.53229452625E-01  0.50000000745E-01 0. -1.
</event>
<event>
 4   0  0.6886900E-01  0.9118800E+02  0.7818609E-02  0.1379984E+01
      -11   -1    0    0    0    0  0.00000000000E+00  0.00000000000E+00  0.35740347158E-01  0.35744000000E-01  0.51099999109E-03 0.  1.
       11   -1    0    0    0    0 -0.00000000000E+00 -0.00000000000E+00 -0.35740347158E-01  0.35744000000E-01  0.51099999109E-03 0. -1.
       22    1    1    2    0    0  0.50312149095E-02 -0.76280482014E-03  0.17535095026E-01  0.18258547375E-01  0.00000000000E+00 0. -1.
  9000001    1    1    2    0    0 -0.50312149095E-02  0.76280482014E-03 -0.17535095026E-01  0.53229452625E-01  0.50000000745E-01 0. -1.
</event>
<event>
 4   0  0.6886900E-01  0.9118800E+02  0.7818609E-02  0.1379984E+01
      -11   -1    0    0    0    0  0.00000000000E+00  0.00000000000E+00  0.35740347158E-01  0.35744000000E-01  0.51099999109E-03 0.  1.
       11   -1    0    0    0    0 -0.00000000000E+00 -0.00000000000E+00 -0.35740347158E-01  0.35744000000E-01  0.51099999109E-03 0. -1.
       22    1    1    2    0    0 -0.66133272651E-02 -0.16398488467E-01  0.45528047106E-02  0.18258547375E-01  0.00000000000E+00 0. -1.
  9000001    1    1    2    0    0  0.66133272651E-02  0.16398488467E-01 -0.45528047106E-02  0.53229452625E-01  0.50000000745E-01 0. -1.
</event>
<event>
 4   0  0.6886900E-01  0.9118800E+02  0.7818609E-02  0.1379984E+01
      -11   -1    0    0    0    0  0.00000000000E+00  0.00000000000E+00  0.35740347158E-01  0.35744000000E-01  0.51099999109E-03 0. -1.
       11   -1    0    0    0    0 -0.00000000000E+00 -0.00000000000E+00 -0.35740347158E-01  0.35744000000E-01  0.51099999109E-03 0.  1.
       22    1    1    2    0    0 -0.11884494444E-01 -0.61659463381E-03 -0.13847496348E-01  0.18258547375E-01  0.00000000000E+00 0.  1.
  9000001    1    1    2    0    0  0.11884494444E-01  0.61659463381E-03  0.13847496348E-01  0.53229452625E-01  0.50000000745E-01 0.  0.
</event>
<event>
 4   0  0.6886900E-01  0.9118800E+02  0.7818609E-02  0.1379984E+01
      -11   -1    0    0    0    0  0.00000000000E+00  0.00000000000E+00  0.35740347158E-01  0.35744000000E-01  0.51099999109E-03 0. -1.
       11   -1    0    0    0    0 -0.00000000000E+00 -0.00000000000E+00 -0.35740347158E-01  0.35744000000E-01  0.51099999109E-03 0.  1.
       22    1    1    2    0    0  0.21442560732E-02 -0.27090969407E-02  0.17928678476E-01  0.18258547375E-01  0.00000000000E+00 0. -1.
  9000001    1    1    2    0    0 -0.21442560732E-02  0.27090969407E-02 -0.17928678476E-01  0.53229452625E-01  0.50000000745E-01 0.  1.
</event>
<event>
 4   0  0.6886900E-01  0.9118800E+02  0.7818609E-02  0.1379984E+01
      -11   -1    0    0    0    0  0.00000000000E+00  0.00000000000E+00  0.35740347158E-01  0.35744000000E-01  0.51099999109E-03 0. -1.
       11   -1    0    0    0    0 -0.00000000000E+00 -0.00000000000E+00 -0.35740347158E-01  0.35744000000E-01  0.51099999109E-03 0.  1.
       22    1    1    2    0    0  0.56098458123E-02 -0.33857053552E-02 -0.17042334977E-01  0.18258547375E-01  0.00000000000E+00 0.  1.
  9000001    1    1    2    0    0 -0.56098458123E-02  0.33857053552E-02  0.17042334977E-01  0.53229452625E-01  0.50000000745E-01 0. -1.
</event>
<event>
 4   0  0.6886900E-01  0.9118800E+02  0.7818609E-02  0.1379984E+01
      -11   -1    0    0    0    0  0.00000000000E+00  0.00000000000E+00  0.35740347158E-01  0.35744000000E-01  0.51099999109E-03 0. -1.
       11   -1    0    0    0    0 -0.00000000000E+00 -0.00000000000E+00 -0.35740347158E-01  0.35744000000E-01  0.51099999109E-03 0.  1.
       22    1    1    2    0    0  0.58064619357E-03 -0.36873038598E-02 -0.17872917850E-01  0.18258547375E-01  0.00000000000E+00 0.  1.
  9000001    1    1    2    0    0 -0.58064619357E-03  0.36873038598E-02  0.17872917850E-01  0.53229452625E-01  0.50000000745E-01 0. -1.
</event>
<event>
 4   0  0.6886900E-01  0.9118800E+02  0.7818609E-02  0.1379984E+01
      -11   -1    0    0    0    0  0.00000000000E+00  0.00000000000E+00  0.35740347158E-01  0.35744000000E-01  0.51099999109E-03 0.  1.
       11   -1    0    0    0    0 -0.00000000000E+00 -0.00000000000E+00 -0.35740347158E-01  0.35744000000E-01  0.51099999109E-03 0. -1.
       22    1    1    2    0    0  0.54931087698E-02 -0.11766456042E-02  0.17372847015E-01  0.18258547375E-01  0.00000000000E+00 0.  1.
  9000001    1    1    2    0    0 -0.54931087698E-02  0.11766456042E-02 -0.17372847015E-01  0.53229452625E-01  0.50000000745E-01 0. -1.
</event>
<event>
 4   0  0.6886900E-01  0.9118800E+02  0.7818609E-02  0.1379984E+01
      -11   -1    0    0    0    0  0.00000000000E+00  0.00000000000E+00  0.35740347158E-01  0.35744000000E-01  0.51099999109E-03 0. -1.
       11   -1    0    0    0    0 -0.00000000000E+00 -0.00000000000E+00 -0.35740347158E-01  0.35744000000E-01  0.51099999109E-03 0.  1.
       22    1    1    2    0    0  0.11578355403E-01 -0.58548103860E-02 -0.12846689603E-01  0.18258547375E-01  0.00000000000E+00 0. -1.
  9000001    1    1    2    0    0 -0.11578355403E-01  0.58548103860E-02  0.12846689603E-01  0.53229452625E-01  0.50000000745E-01 0. -1.
</event>
<event>
 4   0  0.6886900E-01  0.9118800E+02  0.7818609E-02  0.1379984E+01
      -11   -1    0    0    0    0  0.00000000000E+00  0.00000000000E+00  0.35740347158E-01  0.35744000000E-01  0.51099999109E-03 0.  1.
       11   -1    0    0    0    0 -0.00000000000E+00 -0.00000000000E+00 -0.35740347158E-01  0.35744000000E-01  0.51099999109E-03 0. -1.
       22    1    1    2    0    0  0.75095918354E-02  0.11444376179E-01  0.12083328871E-01  0.18258547375E-01  0.00000000000E+00 0.  1.
  9000001    1    1    2    0    0 -0.75095918354E-02 -0.11444376179E-01 -0.12083328871E-01  0.53229452625E-01  0.50000000745E-01 0. -1.
</event>
<event>
 4   0  0.6886900E-01  0.9118800E+02  0.7818609E-02  0.1379984E+01
      -11   -1    0    0    0    0  0.00000000000E+00  0.00000000000E+00  0.35740347158E-01  0.35744000000E-01  0.51099999109E-03 0. -1.
       11   -1    0    0    0    0 -0.00000000000E+00 -0.00000000000E+00 -0.35740347158E-01  0.35744000000E-01  0.51099999109E-03 0.  1.
       22    1    1    2    0    0 -0.67818008385E-03  0.75998542165E-02 -0.16587852179E-01  0.18258547375E-01  0.00000000000E+00 0. -1.
  9000001    1    1    2    0    0  0.67818008385E-03 -0.75998542165E-02  0.16587852179E-01  0.53229452625E-01  0.50000000745E-01 0. -1.
</event>
<event>
 4   0  0.6886900E-01  0.9118800E+02  0.7818609E-02  0.1379984E+01
      -11   -1    0    0    0    0  0.00000000000E+00  0.00000000000E+00  0.35740347158E-01  0.35744000000E-01  0.51099999109E-03 0. -1.
       11   -1    0    0    0    0 -0.00000000000E+00 -0.00000000000E+00 -0.35740347158E-01  0.35744000000E-01  0.51099999109E-03 0.  1.
       22    1    1    2    0    0 -0.93679651757E-02 -0.81896258339E-03  0.15650721421E-01  0.18258547375E-01  0.00000000000E+00 0. -1.
  9000001    1    1    2    0    0  0.93679651757E-02  0.81896258339E-03 -0.15650721421E-01  0.53229452625E-01  0.50000000745E-01 0.  1.
</event>
<event>
 4   0  0.6886900E-01  0.9118800E+02  0.7818609E-02  0.1379984E+01
      -11   -1    0    0    0    0  0.00000000000E+00  0.00000000000E+00  0.35740347158E-01  0.35744000000E-01  0.51099999109E-03 0. -1.
       11   -1    0    0    0    0 -0.00000000000E+00 -0.00000000000E+00 -0.35740347158E-01  0.35744000000E-01  0.51099999109E-03 0.  1.
       22    1    1    2    0    0 -0.11002822082E-02  0.45204549224E-02  0.17655860744E-01  0.18258547375E-01  0.00000000000E+00 0.  1.
  9000001    1    1    2    0    0  0.11002822082E-02 -0.45204549224E-02 -0.17655860744E-01  0.53229452625E-01  0.50000000745E-01 0.  1.
</event>
<event>
 4   0  0.6886900E-01  0.9118800E+02  0.7818609E-02  0.1379984E+01
      -11   -1    0    0    0    0  0.00000000000E+00  0.00000000000E+00  0.35740347158E-01  0.35744000000E-01  0.51099999109E-03 0.  1.
       11   -1    0    0    0    0 -0.00000000000E+00 -0.00000000000E+00 -0.35740347158E-01  0.35744000000E-01  0.51099999109E-03 0. -1.
       22    1    1    2    0    0  0.10313658619E-01 -0.23949507467E-02  0.14875053246E-01  0.18258547375E-01  0.00000000000E+00 0.  1.
  9000001    1    1    2    0    0 -0.10313658619E-01  0.23949507467E-02 -0.14875053246E-01  0.53229452625E-01  0.50000000745E-01 0. -1.
</event>
<event>
 4   0  0.6886900E-01  0.9118800E+02  0.7818609E-02  0.1379984E+01
      -11   -1    0    0    0    0  0.00000000000E+00  0.00000000000E+00  0.35740347158E-01  0.35744000000E-01  0.51099999109E-03 0. -1.
       11   -1    0    0    0    0 -0.00000000000E+00 -0.00000000000E+00 -0.35740347158E-01  0.35744000000E-01  0.51099999109E-03 0.  1.
       22    1    1    2    0    0  0.67140441533E-02  0.61452886985E-03  0.16968161881E-01  0.18258547375E-01  0.00000000000E+00 0.  1.
  9000001    1    1    2    0    0 -0.67140441533E-02 -0.61452886985E-03 -0.16968161881E-01  0.53229452625E-01  0.50000000745E-01 0.  1.
</event>
<event>
 4   0  0.6886900E-01  0.9118800E+02  0.7818609E-02  0.1379984E+01
      -11   -1    0    0    0    0  0.00000000000E+00  0.00000000000E+00  0.35740347158E-01  0.35744000000E-01  0.51099999109E-03 0. -1.
       11   -1    0    0    0    0 -0.00000000000E+00 -0.00000000000E+00 -0.35740347158E-01  0.35744000000E-01  0.51099999109E-03 0.  1.
       22    1    1    2    0    0 -0.76245039333E-02 -0.97416604215E-02 -0.13429130435E-01  0.18258547375E-01  0.00000000000E+00 0. -1.
  9000001    1    1    2    0    0  0.76245039333E-02  0.97416604215E-02  0.13429130435E-01  0.53229452625E-01  0.50000000745E-01 0.  0.
</event>
<event>
 4   0  0.6886900E-01  0.9118800E+02  0.7818609E-02  0.1379984E+01
      -11   -1    0    0    0    0  0.00000000000E+00  0.00000000000E+00  0.35740347158E-01  0.35744000000E-01  0.51099999109E-03 0. -1.
       11   -1    0    0    0    0 -0.00000000000E+00 -0.00000000000E+00 -0.35740347158E-01  0.35744000000E-01  0.51099999109E-03 0.  1.
       22    1    1    2    0    0  0.13781372889E-01  0.11164012832E-01  0.43374106372E-02  0.18258547375E-01  0.00000000000E+00 0. -1.
  9000001    1    1    2    0    0 -0.13781372889E-01 -0.11164012832E-01 -0.43374106372E-02  0.53229452625E-01  0.50000000745E-01 0.  1.
</event>
<event>
 4   0  0.6886900E-01  0.9118800E+02  0.7818609E-02  0.1379984E+01
      -11   -1    0    0    0    0  0.00000000000E+00  0.00000000000E+00  0.35740347158E-01  0.35744000000E-01  0.51099999109E-03 0. -1.
       11   -1    0    0    0    0 -0.00000000000E+00 -0.00000000000E+00 -0.35740347158E-01  0.35744000000E-01  0.51099999109E-03 0.  1.
       22    1    1    2    0    0 -0.44947070313E-02  0.85867335057E-02 -0.15473854357E-01  0.18258547375E-01  0.00000000000E+00 0. -1.
  9000001    1    1    2    0    0  0.44947070313E-02 -0.85867335057E-02  0.15473854357E-01  0.53229452625E-01  0.50000000745E-01 0.  1.
</event>
<event>
 4   0  0.6886900E-01  0.9118800E+02  0.7818609E-02  0.1379984E+01
      -11   -1    0    0    0    0  0.00000000000E+00  0.00000000000E+00  0.35740347158E-01  0.35744000000E-01  0.51099999109E-03 0. -1.
       11   -1    0    0    0    0 -0.00000000000E+00 -0.00000000000E+00 -0.35740347158E-01  0.35744000000E-01  0.51099999109E-03 0.  1.
       22    1    1    2    0    0 -0.31607974045E-03  0.34769352444E-02 -0.17921650793E-01  0.18258547375E-01  0.00000000000E+00 0.  1.
  9000001    1    1    2    0    0  0.31607974045E-03 -0.34769352444E-02  0.17921650793E-01  0.53229452625E-01  0.50000000745E-01 0. -1.
</event>
<event>
 4   0  0.6886900E-01  0.9118800E+02  0.7818609E-02  0.1379984E+01
      -11   -1    0    0    0    0  0.00000000000E+00  0.00000000000E+00  0.35740347158E-01  0.35744000000E-01  0.51099999109E-03 0.  1.
       11   -1    0    0    0    0 -0.00000000000E+00 -0.00000000000E+00 -0.35740347158E-01  0.35744000000E-01  0.51099999109E-03 0. -1.
       22    1    1    2    0    0  0.45384280197E-02 -0.73821244482E-02 -0.16071137545E-01  0.18258547375E-01  0.00000000000E+00 0. -1.
  9000001    1    1    2    0    0 -0.45384280197E-02  0.73821244482E-02  0.16071137545E-01  0.53229452625E-01  0.50000000745E-01 0.  1.
</event>
<event>
 4   0  0.6886900E-01  0.9118800E+02  0.7818609E-02  0.1379984E+01
      -11   -1    0    0    0    0  0.00000000000E+00  0.00000000000E+00  0.35740347158E-01  0.35744000000E-01  0.51099999109E-03 0. -1.
       11   -1    0    0    0    0 -0.00000000000E+00 -0.00000000000E+00 -0.35740347158E-01  0.35744000000E-01  0.51099999109E-03 0.  1.
       22    1    1    2    0    0  0.19588144715E-02 -0.22733871717E-02 -0.18010255658E-01  0.18258547375E-01  0.00000000000E+00 0.  1.
  9000001    1    1    2    0    0 -0.19588144715E-02  0.22733871717E-02  0.18010255658E-01  0.53229452625E-01  0.50000000745E-01 0. -1.
</event>
<event>
 4   0  0.6886900E-01  0.9118800E+02  0.7818609E-02  0.1379984E+01
      -11   -1    0    0    0    0  0.00000000000E+00  0.00000000000E+00  0.35740347158E-01  0.35744000000E-01  0.51099999109E-03 0. -1.
       11   -1    0    0    0    0 -0.00000000000E+00 -0.00000000000E+00 -0.35740347158E-01  0.35744000000E-01  0.51099999109E-03 0.  1.
       22    1    1    2    0    0 -0.32193263920E-03 -0.10683410119E-01  0.14803231399E-01  0.18258547375E-01  0.00000000000E+00 0. -1.
  9000001    1    1    2    0    0  0.32193263920E-03  0.10683410119E-01 -0.14803231399E-01  0.53229452625E-01  0.50000000745E-01 0.  1.
</event>
<event>
 4   0  0.6886900E-01  0.9118800E+02  0.7818609E-02  0.1379984E+01
      -11   -1    0    0    0    0  0.00000000000E+00  0.00000000000E+00  0.35740347158E-01  0.35744000000E-01  0.51099999109E-03 0.  1.
       11   -1    0    0    0    0 -0.00000000000E+00 -0.00000000000E+00 -0.35740347158E-01  0.35744000000E-01  0.51099999109E-03 0. -1.
       22    1    1    2    0    0 -0.44794981842E-02  0.17438619540E-01 -0.30336771080E-02  0.18258547375E-01  0.00000000000E+00 0.  1.
  9000001    1    1    2    0    0  0.44794981842E-02 -0.17438619540E-01  0.30336771080E-02  0.53229452625E-01  0.50000000745E-01 0.  0.
</event>
<event>
 4   0  0.6886900E-01  0.9118800E+02  0.7818609E-02  0.1379984E+01
      -11   -1    0    0    0    0  0.00000000000E+00  0.00000000000E+00  0.35740347158E-01  0.35744000000E-01  0.51099999109E-03 0. -1.
       11   -1    0    0    0    0 -0.00000000000E+00 -0.00000000000E+00 -0.35740347158E-01  0.35744000000E-01  0.51099999109E-03 0.  1.
       22    1    1    2    0    0 -0.18971762992E-02  0.57618039353E-02  0.17221407891E-01  0.18258547375E-01  0.00000000000E+00 0. -1.
  9000001    1    1    2    0    0  0.18971762992E-02 -0.57618039353E-02 -0.17221407891E-01  0.53229452625E-01  0.50000000745E-01 0.  1.
</event>
<event>
 4   0  0.6886900E-01  0.9118800E+02  0.7818609E-02  0.1379984E+01
      -11   -1    0    0    0    0  0.00000000000E+00  0.00000000000E+00  0.35740347158E-01  0.35744000000E-01  0.51099999109E-03 0.  1.
       11   -1    0    0    0    0 -0.00000000000E+00 -0.00000000000E+00 -0.35740347158E-01  0.35744000000E-01  0.51099999109E-03 0. -1.
       22    1    1    2    0    0  0.13954857983E-01  0.39349165964E-02 -0.11097428635E-01  0.18258547375E-01  0.00000000000E+00 0. -1.
  9000001    1    1    2    0    0 -0.13954857983E-01 -0.39349165964E-02  0.11097428635E-01  0.53229452625E-01  0.50000000745E-01 0.  1.
</event>
<event>
 4   0  0.6886900E-01  0.9118800E+02  0.7818609E-02  0.1379984E+01
      -11   -1    0    0    0    0  0.00000000000E+00  0.00000000000E+00  0.35740347158E-01  0.35744000000E-01  0.51099999109E-03 0.  1.
       11   -1    0    0    0    0 -0.00000000000E+00 -0.00000000000E+00 -0.35740347158E-01  0.35744000000E-01  0.51099999109E-03 0. -1.
       22    1    1    2    0    0  0.22604644978E-03 -0.50046335058E-02  0.17557821582E-01  0.18258547375E-01  0.00000000000E+00 0.  1.
  9000001    1    1    2    0    0 -0.22604644978E-03  0.50046335058E-02 -0.17557821582E-01  0.53229452625E-01  0.50000000745E-01 0. -1.
</event>
<event>
 4   0  0.6886900E-01  0.9118800E+02  0.7818609E-02  0.1379984E+01
      -11   -1    0    0    0    0  0.00000000000E+00  0.00000000000E+00  0.35740347158E-01  0.35744000000E-01  0.51099999109E-03 0. -1.
       11   -1    0    0    0    0 -0.00000000000E+00 -0.00000000000E+00 -0.35740347158E-01  0.35744000000E-01  0.51099999109E-03 0.  1.
       22    1    1    2    0    0 -0.22403304294E-02 -0.23875523041E-02 -0.17962601866E-01  0.18258547375E-01  0.00000000000E+00 0. -1.
  9000001    1    1    2    0    0  0.22403304294E-02  0.23875523041E-02  0.17962601866E-01  0.53229452625E-01  0.50000000745E-01 0. -1.
</event>
<event>
 4   0  0.6886900E-01  0.9118800E+02  0.7818609E-02  0.1379984E+01
      -11   -1    0    0    0    0  0.00000000000E+00  0.00000000000E+00  0.35740347158E-01  0.35744000000E-01  0.51099999109E-03 0. -1.
       11   -1    0    0    0    0 -0.00000000000E+00 -0.00000000000E+00 -0.35740347158E-01  0.35744000000E-01  0.51099999109E-03 0.  1.
       22    1    1    2    0    0 -0.23165335692E-02 -0.14577535846E-01 -0.10747263519E-01  0.18258547375E-01  0.00000000000E+00 0.  1.
  9000001    1    1    2    0    0  0.23165335692E-02  0.14577535846E-01  0.10747263519E-01  0.53229452625E-01  0.50000000745E-01 0.  0.
</event>
<event>
 4   0  0.6886900E-01  0.9118800E+02  0.7818609E-02  0.1379984E+01
      -11   -1    0    0    0    0  0.00000000000E+00  0.00000000000E+00  0.35740347158E-01  0.35744000000E-01  0.51099999109E-03 0.  1.
       11   -1    0    0    0    0 -0.00000000000E+00 -0.00000000000E+00 -0.35740347158E-01  0.35744000000E-01  0.51099999109E-03 0. -1.
       22    1    1    2    0    0  0.81900389969E-02  0.17994002139E-02  0.16219123661E-01  0.18258547375E-01  0.00000000000E+00 0.  1.
  9000001    1    1    2    0    0 -0.81900389969E-02 -0.17994002139E-02 -0.16219123661E-01  0.53229452625E-01  0.50000000745E-01 0. -1.
</event>
<event>
 4   0  0.6886900E-01  0.9118800E+02  0.7818609E-02  0.1379984E+01
      -11   -1    0    0    0    0  0.00000000000E+00  0.00000000000E+00  0.35740347158E-01  0.35744000000E-01  0.51099999109E-03 0.  1.
       11   -1    0    0    0    0 -0.00000000000E+00 -0.00000000000E+00 -0.35740347158E-01  0.35744000000E-01  0.51099999109E-03 0. -1.
       22    1    1    2    0    0 -0.31643159413E-03  0.96076082398E-02  0.15523153262E-01  0.18258547375E-01  0.00000000000E+00 0.  1.
  9000001    1    1    2    0    0  0.31643159413E-03 -0.96076082398E-02 -0.15523153262E-01  0.53229452625E-01  0.50000000745E-01 0. -1.
</event>
<event>
 4   0  0.6886900E-01  0.9118800E+02  0.7818609E-02  0.1379984E+01
      -11   -1    0    0    0    0  0.00000000000E+00  0.00000000000E+00  0.35740347158E-01  0.35744000000E-01  0.51099999109E-03 0. -1.
       11   -1    0    0    0    0 -0.00000000000E+00 -0.00000000000E+00 -0.35740347158E-01  0.35744000000E-01  0.51099999109E-03 0.  1.
       22    1    1    2    0    0 -0.34984171963E-03 -0.41821955160E-02  0.17769676522E-01  0.18258547375E-01  0.00000000000E+00 0. -1.
  9000001    1    1    2    0    0  0.34984171963E-03  0.41821955160E-02 -0.17769676522E-01  0.53229452625E-01  0.50000000745E-01 0.  1.
</event>
<event>
 4   0  0.6886900E-01  0.9118800E+02  0.7818609E-02  0.1379984E+01
      -11   -1    0    0    0    0  0.00000000000E+00  0.00000000000E+00  0.35740347158E-01  0.35744000000E-01  0.51099999109E-03 0. -1.
       11   -1    0    0    0    0 -0.00000000000E+00 -0.00000000000E+00 -0.35740347158E-01  0.35744000000E-01  0.51099999109E-03 0.  1.
       22    1    1    2    0    0 -0.10510369533E-02 -0.35411537938E-02  0.17880998389E-01  0.18258547375E-01  0.00000000000E+00 0. -1.
  9000001    1    1    2    0    0  0.10510369533E-02  0.35411537938E-02 -0.17880998389E-01  0.53229452625E-01  0.50000000745E-01 0.  1.
</event>
<event>
 4   0  0.6886900E-01  0.9118800E+02  0.7818609E-02  0.1379984E+01
      -11   -1    0    0    0    0  0.00000000000E+00  0.00000000000E+00  0.35740347158E-01  0.35744000000E-01  0.51099999109E-03 0. -1.
       11   -1    0    0    0    0 -0.00000000000E+00 -0.00000000000E+00 -0.35740347158E-01  0.35744000000E-01  0.51099999109E-03 0.  1.
       22    1    1    2    0    0  0.16594039619E-01  0.46324288583E-03  0.76024869222E-02  0.18258547375E-01  0.00000000000E+00 0. -1.
  9000001    1    1    2    0    0 -0.16594039619E-01 -0.46324288583E-03 -0.76024869222E-02  0.53229452625E-01  0.50000000745E-01 0.  1.
</event>
<event>
 4   0  0.6886900E-01  0.9118800E+02  0.7818609E-02  0.1379984E+01
      -11   -1    0    0    0    0  0.00000000000E+00  0.00000000000E+00  0.35740347158E-01  0.35744000000E-01  0.51099999109E-03 0.  1.
       11   -1    0    0    0    0 -0.00000000000E+00 -0.00000000000E+00 -0.35740347158E-01  0.35744000000E-01  0.51099999109E-03 0. -1.
       22    1    1    2    0    0 -0.65566490981E-02  0.12232062361E-01  0.11864297504E-01  0.18258547375E-01  0.00000000000E+00 0. -1.
  9000001    1    1    2    0    0  0.65566490981E-02 -0.12232062361E-01 -0.11864297504E-01  0.53229452625E-01  0.50000000745E-01 0. -1.
</event>
<event>
 4   0  0.6886900E-01  0.9118800E+02  0.7818609E-02  0.1379984E+01
      -11   -1    0    0    0    0  0.00000000000E+00  0.00000000000E+00  0.35740347158E-01  0.35744000000E-01  0.51099999109E-03 0. -1.
       11   -1    0    0    0    0 -0.00000000000E+00 -0.00000000000E+00 -0.35740347158E-01  0.35744000000E-01  0.51099999109E-03 0.  1.
       22    1    1    2    0    0  0.52044580064E-02  0.19180773850E-02 -0.17395664640E-01  0.18258547375E-01  0.00000000000E+00 0.  1.
  9000001    1    1    2    0    0 -0.52044580064E-02 -0.19180773850E-02  0.17395664640E-01  0.53229452625E-01  0.50000000745E-01 0. -1.
</event>
<event>
 4   0  0.6886900E-01  0.9118800E+02  0.7818609E-02  0.1379984E+01
      -11   -1    0    0    0    0  0.00000000000E+00  0.00000000000E+00  0.35740347158E-01  0.35744000000E-01  0.51099999109E-03 0. -1.
       11   -1    0    0    0    0 -0.00000000000E+00 -0.00000000000E+00 -0.35740347158E-01  0.35744000000E-01  0.51099999109E-03 0.  1.
       22    1    1    2    0    0  0.15436776116E-01 -0.93679708427E-02 -0.27058487933E-02  0.18258547375E-01  0.00000000000E+00 0. -1.
  9000001    1    1    2    0    0 -0.15436776116E-01  0.93679708427E-02  0.27058487933E-02  0.53229452625E-01  0.50000000745E-01 0.  1.
</event>
<event>
 4   0  0.6886900E-01  0.9118800E+02  0.7818609E-02  0.1379984E+01
      -11   -1    0    0    0    0  0.00000000000E+00  0.00000000000E+00  0.35740347158E-01  0.35744000000E-01  0.51099999109E-03 0. -1.
       11   -1    0    0    0    0 -0.00000000000E+00 -0.00000000000E+00 -0.35740347158E-01  0.35744000000E-01  0.51099999109E-03 0.  1.
       22    1    1    2    0    0 -0.47817499548E-02  0.14654070772E-02 -0.17560239227E-01  0.18258547375E-01  0.00000000000E+00 0. -1.
  9000001    1    1    2    0    0  0.47817499548E-02 -0.14654070772E-02  0.17560239227E-01  0.53229452625E-01  0.50000000745E-01 0. -1.
</event>
<event>
 4   0  0.6886900E-01  0.9118800E+02  0.7818609E-02  0.1379984E+01
      -11   -1    0    0    0    0  0.00000000000E+00  0.00000000000E+00  0.35740347158E-01  0.35744000000E-01  0.51099999109E-03 0.  1.
       11   -1    0    0    0    0 -0.00000000000E+00 -0.00000000000E+00 -0.35740347158E-01  0.35744000000E-01  0.51099999109E-03 0. -1.
       22    1    1    2    0    0  0.37757700668E-02 -0.41497644049E-02 -0.17375199798E-01  0.18258547375E-01  0.00000000000E+00 0. -1.
  9000001    1    1    2    0    0 -0.37757700668E-02  0.41497644049E-02  0.17375199798E-01  0.53229452625E-01  0.50000000745E-01 0.  1.
</event>
<event>
 4   0  0.6886900E-01  0.9118800E+02  0.7818609E-02  0.1379984E+01
      -11   -1    0    0    0    0  0.00000000000E+00  0.00000000000E+00  0.35740347158E-01  0.35744000000E-01  0.51099999109E-03 0. -1.
       11   -1    0    0    0    0 -0.00000000000E+00 -0.00000000000E+00 -0.35740347158E-01  0.35744000000E-01  0.51099999109E-03 0.  1.
       22    1    1    2    0    0  0.12542377949E-01 -0.60744571396E-02  0.11796791008E-01  0.18258547375E-01  0.00000000000E+00 0. -1.
  9000001    1    1    2    0    0 -0.12542377949E-01  0.60744571396E-02 -0.11796791008E-01  0.53229452625E-01  0.50000000745E-01 0.  1.
</event>
<event>
 4   0  0.6886900E-01  0.9118800E+02  0.7818609E-02  0.1379984E+01
      -11   -1    0    0    0    0  0.00000000000E+00  0.00000000000E+00  0.35740347158E-01  0.35744000000E-01  0.51099999109E-03 0.  1.
       11   -1    0    0    0    0 -0.00000000000E+00 -0.00000000000E+00 -0.35740347158E-01  0.35744000000E-01  0.51099999109E-03 0. -1.
       22    1    1    2    0    0  0.97859230446E-02  0.14609175903E-01 -0.49175442902E-02  0.18258547375E-01  0.00000000000E+00 0.  1.
  9000001    1    1    2    0    0 -0.97859230446E-02 -0.14609175903E-01  0.49175442902E-02  0.53229452625E-01  0.50000000745E-01 0. -1.
</event>
<event>
 4   0  0.6886900E-01  0.9118800E+02  0.7818609E-02  0.1379984E+01
      -11   -1    0    0    0    0  0.00000000000E+00  0.00000000000E+00  0.35740347158E-01  0.35744000000E-01  0.51099999109E-03 0.  1.
       11   -1    0    0    0    0 -0.00000000000E+00 -0.00000000000E+00 -0.35740347158E-01  0.35744000000E-01  0.51099999109E-03 0. -1.
       22    1    1    2    0    0  0.41543738947E-02  0.98229326714E-02 -0.14819774746E-01  0.18258547375E-01  0.00000000000E+00 0. -1.
  9000001    1    1    2    0    0 -0.41543738947E-02 -0.98229326714E-02  0.14819774746E-01  0.53229452625E-01  0.50000000745E-01 0.  1.
</event>
<event>
 4   0  0.6886900E-01  0.9118800E+02  0.7818609E-02  0.1379984E+01
      -11   -1    0    0    0    0  0.00000000000E+00  0.00000000000E+00  0.35740347158E-01  0.35744000000E-01  0.51099999109E-03 0.  1.
       11   -1    0    0    0    0 -0.00000000000E+00 -0.00000000000E+00 -0.35740347158E-01  0.35744000000E-01  0.51099999109E-03 0. -1.
       22    1    1    2    0    0 -0.20259523424E-02  0.29553064133E-02 -0.17903525724E-01  0.18258547375E-01  0.00000000000E+00 0. -1.
  9000001    1    1    2    0    0  0.20259523424E-02 -0.29553064133E-02  0.17903525724E-01  0.53229452625E-01  0.50000000745E-01 0.  1.
</event>
<event>
 4   0  0.6886900E-01  0.9118800E+02  0.7818609E-02  0.1379984E+01
      -11   -1    0    0    0    0  0.00000000000E+00  0.00000000000E+00  0.35740347158E-01  0.35744000000E-01  0.51099999109E-03 0.  1.
       11   -1    0    0    0    0 -0.00000000000E+00 -0.00000000000E+00 -0.35740347158E-01  0.35744000000E-01  0.51099999109E-03 0. -1.
       22    1    1    2    0    0 -0.27500923764E-02 -0.57897089311E-02  0.17096514693E-01  0.18258547375E-01  0.00000000000E+00 0. -1.
  9000001    1    1    2    0    0  0.27500923764E-02  0.57897089311E-02 -0.17096514693E-01  0.53229452625E-01  0.50000000745E-01 0. -1.
</event>
<event>
 4   0  0.6886900E-01  0.9118800E+02  0.7818609E-02  0.1379984E+01
      -11   -1    0    0    0    0  0.00000000000E+00  0.00000000000E+00  0.35740347158E-01  0.35744000000E-01  0.51099999109E-03 0. -1.
       11   -1    0    0    0    0 -0.00000000000E+00 -0.00000000000E+00 -0.35740347158E-01  0.35744000000E-01  0.51099999109E-03 0.  1.
       22    1    1    2    0    0  0.47311669102E-02 -0.35265782419E-02  0.17278711116E-01  0.18258547375E-01  0.00000000000E+00 0.  1.
  9000001    1    1    2    0    0 -0.47311669102E-02  0.35265782419E-02 -0.17278711116E-01  0.53229452625E-01  0.50000000745E-01 0.  1.
</event>
<event>
 4   0  0.6886900E-01  0.9118800E+02  0.7818609E-02  0.1379984E+01
      -11   -1    0    0    0    0  0.00000000000E+00  0.00000000000E+00  0.35740347158E-01  0.35744000000E-01  0.51099999109E-03 0.  1.
       11   -1    0    0    0    0 -0.00000000000E+00 -0.00000000000E+00 -0.35740347158E-01  0.35744000000E-01  0.51099999109E-03 0. -1.
       22    1    1    2    0    0 -0.32381101299E-02  0.25490357239E-02 -0.17787400370E-01  0.18258547375E-01  0.00000000000E+00 0. -1.
  9000001    1    1    2    0    0  0.32381101299E-02 -0.25490357239E-02  0.17787400370E-01  0.53229452625E-01  0.50000000745E-01 0.  1.
</event>
<event>
 4   0  0.6886900E-01  0.9118800E+02  0.7818609E-02  0.1379984E+01
      -11   -1    0    0    0    0  0.00000000000E+00  0.00000000000E+00  0.35740347158E-01  0.35744000000E-01  0.51099999109E-03 0. -1.
       11   -1    0    0    0    0 -0.00000000000E+00 -0.00000000000E+00 -0.35740347158E-01  0.35744000000E-01  0.51099999109E-03 0.  1.
       22    1    1    2    0    0 -0.62764167304E-02 -0.15136262617E-02 -0.17078936759E-01  0.18258547375E-01  0.00000000000E+00 0.  1.
  9000001    1    1    2    0    0  0.62764167304E-02  0.15136262617E-02  0.17078936759E-01  0.53229452625E-01  0.50000000745E-01 0. -1.
</event>
<event>
 4   0  0.6886900E-01  0.9118800E+02  0.7818609E-02  0.1379984E+01
      -11   -1    0    0    0    0  0.00000000000E+00  0.00000000000E+00  0.35740347158E-01  0.35744000000E-01  0.51099999109E-03 0. -1.
       11   -1    0    0    0    0 -0.00000000000E+00 -0.00000000000E+00 -0.35740347158E-01  0.35744000000E-01  0.51099999109E-03 0.  1.
       22    1    1    2    0    0  0.66711610717E-02  0.50248059650E-02 -0.16236424705E-01  0.18258547375E-01  0.00000000000E+00 0.  1.
  9000001    1    1    2    0    0 -0.66711610717E-02 -0.50248059650E-02  0.16236424705E-01  0.53229452625E-01  0.50000000745E-01 0. -1.
</event>
<event>
 4   0  0.6886900E-01  0.9118800E+02  0.7818609E-02  0.1379984E+01
      -11   -1    0    0    0    0  0.00000000000E+00  0.00000000000E+00  0.35740347158E-01  0.35744000000E-01  0.51099999109E-03 0. -1.
       11   -1    0    0    0    0 -0.00000000000E+00 -0.00000000000E+00 -0.35740347158E-01  0.35744000000E-01  0.51099999109E-03 0.  1.
       22    1    1    2    0    0  0.43519903325E-02  0.35552068142E-02  0.17372254802E-01  0.18258547375E-01  0.00000000000E+00 0. -1.
  9000001    1    1    2    0    0 -0.43519903325E-02 -0.35552068142E-02 -0.17372254802E-01  0.53229452625E-01  0.50000000745E-01 0.  1.
</event>
<event>
 4   0  0.6886900E-01  0.9118800E+02  0.7818609E-02  0.1379984E+01
      -11   -1    0    0    0    0  0.00000000000E+00  0.00000000000E+00  0.35740347158E-01  0.35744000000E-01  0.51099999109E-03 0.  1.
       11   -1    0    0    0    0 -0.00000000000E+00 -0.00000000000E+00 -0.35740347158E-01  0.35744000000E-01  0.51099999109E-03 0. -1.
       22    1    1    2    0    0  0.69971059490E-04 -0.14747500581E-01  0.10764798321E-01  0.18258547375E-01  0.00000000000E+00 0.  1.
  9000001    1    1    2    0    0 -0.69971059490E-04  0.14747500581E-01 -0.10764798321E-01  0.53229452625E-01  0.50000000745E-01 0. -1.
</event>
<event>
 4   0  0.6886900E-01  0.9118800E+02  0.7818609E-02  0.1379984E+01
      -11   -1    0    0    0    0  0.00000000000E+00  0.00000000000E+00  0.35740347158E-01  0.35744000000E-01  0.51099999109E-03 0. -1.
       11   -1    0    0    0    0 -0.00000000000E+00 -0.00000000000E+00 -0.35740347158E-01  0.35744000000E-01  0.51099999109E-03 0.  1.
       22    1    1    2    0    0  0.12129305907E-01  0.10968056976E-01  0.81213432782E-02  0.18258547375E-01  0.00000000000E+00 0. -1.
  9000001    1    1    2    0    0 -0.12129305907E-01 -0.10968056976E-01 -0.81213432782E-02  0.53229452625E-01  0.50000000745E-01 0.  1.
</event>
<event>
 4   0  0.6886900E-01  0.9118800E+02  0.7818609E-02  0.1379984E+01
      -11   -1    0    0    0    0  0.00000000000E+00  0.00000000000E+00  0.35740347158E-01  0.35744000000E-01  0.51099999109E-03 0. -1.
       11   -1    0    0    0    0 -0.00000000000E+00 -0.00000000000E+00 -0.35740347158E-01  0.35744000000E-01  0.51099999109E-03 0.  1.
       22    1    1    2    0    0 -0.45047995330E-02  0.33904859955E-02  0.17366229819E-01  0.18258547375E-01  0.00000000000E+00 0.  1.
  9000001    1    1    2    0    0  0.45047995330E-02 -0.33904859955E-02 -0.17366229819E-01  0.53229452625E-01  0.50000000745E-01 0.  1.
</event>
<event>
 4   0  0.6886900E-01  0.9118800E+02  0.7818609E-02  0.1379984E+01
      -11   -1    0    0    0    0  0.00000000000E+00  0.00000000000E+00  0.35740347158E-01  0.35744000000E-01  0.51099999109E-03 0.  1.
       11   -1    0    0    0    0 -0.00000000000E+00 -0.00000000000E+00 -0.35740347158E-01  0.35744000000E-01  0.51099999109E-03 0. -1.
       22    1    1    2    0    0 -0.68889214112E-02  0.12038931596E-01  0.11873560548E-01  0.18258547375E-01  0.00000000000E+00 0.  1.
  9000001    1    1    2    0    0  0.68889214112E-02 -0.12038931596E-01 -0.11873560548E-01  0.53229452625E-01  0.50000000745E-01 0. -1.
</event>
<event>
 4   0  0.6886900E-01  0.9118800E+02  0.7818609E-02  0.1379984E+01
      -11   -1    0    0    0    0  0.00000000000E+00  0.00000000000E+00  0.35740347158E-01  0.35744000000E-01  0.51099999109E-03 0. -1.
       11   -1    0    0    0    0 -0.00000000000E+00 -0.00000000000E+00 -0.35740347158E-01  0.35744000000E-01  0.51099999109E-03 0.  1.
       22    1    1    2    0    0  0.49541116015E-03  0.43726367316E-02 -0.17720303836E-01  0.18258547375E-01  0.00000000000E+00 0.  1.
  9000001    1    1    2    0    0 -0.49541116015E-03 -0.43726367316E-02  0.17720303836E-01  0.53229452625E-01  0.50000000745E-01 0.  0.
</event>
<event>
 4   0  0.6886900E-01  0.9118800E+02  0.7818609E-02  0.1379984E+01
      -11   -1    0    0    0    0  0.00000000000E+00  0.00000000000E+00  0.35740347158E-01  0.35744000000E-01  0.51099999109E-03 0.  1.
       11   -1    0    0    0    0 -0.00000000000E+00 -0.00000000000E+00 -0.35740347158E-01  0.35744000000E-01  0.51099999109E-03 0. -1.
       22    1    1    2    0    0 -0.10696800268E-01  0.10965536306E-01 -0.99352921349E-02  0.18258547375E-01  0.00000000000E+00 0. -1.
  9000001    1    1    2    0    0  0.10696800268E-01 -0.10965536306E-01  0.99352921349E-02  0.53229452625E-01  0.50000000745E-01 0.  1.
</event>
<event>
 4   0  0.6886900E-01  0.9118800E+02  0.7818609E-02  0.1379984E+01
      -11   -1    0    0    0    0  0.00000000000E+00  0.00000000000E+00  0.35740347158E-01  0.35744000000E-01  0.51099999109E-03 0. -1.
       11   -1    0    0    0    0 -0.00000000000E+00 -0.00000000000E+00 -0.35740347158E-01  0.35744000000E-01  0.51099999109E-03 0.  1.
       22    1    1    2    0    0  0.36723924877E-02  0.36828527223E-02  0.17502133627E-01  0.18258547375E-01  0.00000000000E+00 0. -1.
  9000001    1    1    2    0    0 -0.36723924877E-02 -0.36828527223E-02 -0.17502133627E-01  0.53229452625E-01  0.50000000745E-01 0.  0.
</event>
<event>
 4   0  0.6886900E-01  0.9118800E+02  0.7818609E-02  0.1379984E+01
      -11   -1    0    0    0    0  0.00000000000E+00  0.00000000000E+00  0.35740347158E-01  0.35744000000E-01  0.51099999109E-03 0.  1.
       11   -1    0    0    0    0 -0.00000000000E+00 -0.00000000000E+00 -0.35740347158E-01  0.35744000000E-01  0.51099999109E-03 0. -1.
       22    1    1    2    0    0  0.16131178388E-01  0.84250369234E-02 -0.14759366127E-02  0.18258547375E-01  0.00000000000E+00 0. -1.
  9000001    1    1    2    0    0 -0.16131178388E-01 -0.84250369234E-02  0.14759366127E-02  0.53229452625E-01  0.50000000745E-01 0.  1.
</event>
<event>
 4   0  0.6886900E-01  0.9118800E+02  0.7818609E-02  0.1379984E+01
      -11   -1    0    0    0    0  0.00000000000E+00  0.00000000000E+00  0.35740347158E-01  0.35744000000E-01  0.51099999109E-03 0.  1.
       11   -1    0    0    0    0 -0.00000000000E+00 -0.00000000000E+00 -0.35740347158E-01  0.35744000000E-01  0.51099999109E-03 0. -1.
       22    1    1    2    0    0 -0.85084668480E-03  0.56771835978E-02 -0.17332633919E-01  0.18258547375E-01  0.00000000000E+00 0. -1.
  9000001    1    1    2    0    0  0.85084668480E-03 -0.56771835978E-02  0.17332633919E-01  0.53229452625E-01  0.50000000745E-01 0.  1.
</event>
<event>
 4   0  0.6886900E-01  0.9118800E+02  0.7818609E-02  0.1379984E+01
      -11   -1    0    0    0    0  0.00000000000E+00  0.00000000000E+00  0.35740347158E-01  0.35744000000E-01  0.51099999109E-03 0.  1.
       11   -1    0    0    0    0 -0.00000000000E+00 -0.00000000000E+00 -0.35740347158E-01  0.35744000000E-01  0.51099999109E-03 0. -1.
       22    1    1    2    0    0 -0.79713497974E-02 -0.14179597607E-02 -0.16365253581E-01  0.18258547375E-01  0.00000000000E+00 0. -1.
  9000001    1    1    2    0    0  0.79713497974E-02  0.14179597607E-02  0.16365253581E-01  0.53229452625E-01  0.50000000745E-01 0.  1.
</event>
<event>
 4   0  0.6886900E-01  0.9118800E+02  0.7818609E-02  0.1379984E+01
      -11   -1    0    0    0    0  0.00000000000E+00  0.00000000000E+00  0.35740347158E-01  0.35744000000E-01  0.51099999109E-03 0.  1.
       11   -1    0    0    0    0 -0.00000000000E+00 -0.00000000000E+00 -0.35740347158E-01  0.35744000000E-01  0.51099999109E-03 0. -1.
       22    1    1    2    0    0  0.15955784385E-01 -0.69388979209E-03  0.88490685312E-02  0.18258547375E-01  0.00000000000E+00 0.  1.
  9000001    1    1    2    0    0 -0.15955784385E-01  0.69388979209E-03 -0.88490685312E-02  0.53229452625E-01  0.50000000745E-01 0. -1.
</event>
<event>
 4   0  0.6886900E-01  0.9118800E+02  0.7818609E-02  0.1379984E+01
      -11   -1    0    0    0    0  0.00000000000E+00  0.00000000000E+00  0.35740347158E-01  0.35744000000E-01  0.51099999109E-03 0. -1.
       11   -1    0    0    0    0 -0.00000000000E+00 -0.00000000000E+00 -0.35740347158E-01  0.35744000000E-01  0.51099999109E-03 0.  1.
       22    1    1    2    0    0  0.34982356728E-02  0.33616335018E-02  0.17602168038E-01  0.18258547375E-01  0.00000000000E+00 0. -1.
  9000001    1    1    2    0    0 -0.34982356728E-02 -0.33616335018E-02 -0.17602168038E-01  0.53229452625E-01  0.50000000745E-01 0.  1.
</event>
<event>
 4   0  0.6886900E-01  0.9118800E+02  0.7818609E-02  0.1379984E+01
      -11   -1    0    0    0    0  0.00000000000E+00  0.00000000000E+00  0.35740347158E-01  0.35744000000E-01  0.51099999109E-03 0.  1.
       11   -1    0    0    0    0 -0.00000000000E+00 -0.00000000000E+00 -0.35740347158E-01  0.35744000000E-01  0.51099999109E-03 0. -1.
       22    1    1    2    0    0 -0.17409149969E-01  0.20292656702E-02 -0.51164568235E-02  0.18258547375E-01  0.00000000000E+00 0. -1.
  9000001    1    1    2    0    0  0.17409149969E-01 -0.20292656702E-02  0.51164568235E-02  0.53229452625E-01  0.50000000745E-01 0.  0.
</event>
<event>
 4   0  0.6886900E-01  0.9118800E+02  0.7818609E-02  0.1379984E+01
      -11   -1    0    0    0    0  0.00000000000E+00  0.00000000000E+00  0.35740347158E-01  0.35744000000E-01  0.51099999109E-03 0. -1.
       11   -1    0    0    0    0 -0.00000000000E+00 -0.00000000000E+00 -0.35740347158E-01  0.35744000000E-01  0.51099999109E-03 0.  1.
       22    1    1    2    0    0 -0.12631184377E-01 -0.12957595909E-01  0.24348391588E-02  0.18258547375E-01  0.00000000000E+00 0. -1.
  9000001    1    1    2    0    0  0.12631184377E-01  0.12957595909E-01 -0.24348391588E-02  0.53229452625E-01  0.50000000745E-01 0.  1.
</event>
<event>
 4   0  0.6886900E-01  0.9118800E+02  0.7818609E-02  0.1379984E+01
      -11   -1    0    0    0    0  0.00000000000E+00  0.00000000000E+00  0.35740347158E-01  0.35744000000E-01  0.51099999109E-03 0. -1.
       11   -1    0    0    0    0 -0.00000000000E+00 -0.00000000000E+00 -0.35740347158E-01  0.35744000000E-01  0.51099999109E-03 0.  1.
       22    1    1    2    0    0  0.31816426962E-02 -0.70312758052E-03  0.17965447771E-01  0.18258547375E-01  0.00000000000E+00 0. -1.
  9000001    1    1    2    0    0 -0.31816426962E-02  0.70312758052E-03 -0.17965447771E-01  0.53229452625E-01  0.50000000745E-01 0.  1.
</event>
<event>
 4   0  0.6886900E-01  0.9118800E+02  0.7818609E-02  0.1379984E+01
      -11   -1    0    0    0    0  0.00000000000E+00  0.00000000000E+00  0.35740347158E-01  0.35744000000E-01  0.51099999109E-03 0. -1.
       11   -1    0    0    0    0 -0.00000000000E+00 -0.00000000000E+00 -0.35740347158E-01  0.35744000000E-01  0.51099999109E-03 0.  1.
       22    1    1    2    0    0 -0.53827771639E-02 -0.14492630365E-02  0.17386773677E-01  0.18258547375E-01  0.00000000000E+00 0.  1.
  9000001    1    1    2    0    0  0.53827771639E-02  0.14492630365E-02 -0.17386773677E-01  0.53229452625E-01  0.50000000745E-01 0.  0.
</event>
<event>
 4   0  0.6886900E-01  0.9118800E+02  0.7818609E-02  0.1379984E+01
      -11   -1    0    0    0    0  0.00000000000E+00  0.00000000000E+00  0.35740347158E-01  0.35744000000E-01  0.51099999109E-03 0.  1.
       11   -1    0    0    0    0 -0.00000000000E+00 -0.00000000000E+00 -0.35740347158E-01  0.35744000000E-01  0.51099999109E-03 0. -1.
       22    1    1    2    0    0 -0.16618443346E-02 -0.12914434076E-01  0.12799617891E-01  0.18258547375E-01  0.00000000000E+00 0.  1.
  9000001    1    1    2    0    0  0.16618443346E-02  0.12914434076E-01 -0.12799617891E-01  0.53229452625E-01  0.50000000745E-01 0. -1.
</event>
<event>
 4   0  0.6886900E-01  0.9118800E+02  0.7818609E-02  0.1379984E+01
      -11   -1    0    0    0    0  0.00000000000E+00  0.00000000000E+00  0.35740347158E-01  0.35744000000E-01  0.51099999109E-03 0. -1.
       11   -1    0    0    0    0 -0.00000000000E+00 -0.00000000000E+00 -0.35740347158E-01  0.35744000000E-01  0.51099999109E-03 0.  1.
       22    1    1    2    0    0 -0.81734352417E-02  0.13187233466E-01 -0.96263379394E-02  0.18258547375E-01  0.00000000000E+00 0. -1.
  9000001    1    1    2    0    0  0.81734352417E-02 -0.13187233466E-01  0.96263379394E-02  0.53229452625E-01  0.50000000745E-01 0. -1.
</event>
<event>
 4   0  0.6886900E-01  0.9118800E+02  0.7818609E-02  0.1379984E+01
      -11   -1    0    0    0    0  0.00000000000E+00  0.00000000000E+00  0.35740347158E-01  0.35744000000E-01  0.51099999109E-03 0.  1.
       11   -1    0    0    0    0 -0.00000000000E+00 -0.00000000000E+00 -0.35740347158E-01  0.35744000000E-01  0.51099999109E-03 0. -1.
       22    1    1    2    0    0  0.10882535268E-01  0.14161084910E-01 -0.37958730975E-02  0.18258547375E-01  0.00000000000E+00 0.  1.
  9000001    1    1    2    0    0 -0.10882535268E-01 -0.14161084910E-01  0.37958730975E-02  0.53229452625E-01  0.50000000745E-01 0.  0.
</event>
<event>
 4   0  0.6886900E-01  0.9118800E+02  0.7818609E-02  0.1379984E+01
      -11   -1    0    0    0    0  0.00000000000E+00  0.00000000000E+00  0.35740347158E-01  0.35744000000E-01  0.51099999109E-03 0.  1.
       11   -1    0    0    0    0 -0.00000000000E+00 -0.00000000000E+00 -0.35740347158E-01  0.35744000000E-01  0.51099999109E-03 0. -1.
       22    1    1    2    0    0  0.70297964277E-03  0.72080124556E-02 -0.16760815264E-01  0.18258547375E-01  0.00000000000E+00 0. -1.
  9000001    1    1    2    0    0 -0.70297964277E-03 -0.72080124556E-02  0.16760815264E-01  0.53229452625E-01  0.50000000745E-01 0.  1.
</event>
<event>
 4   0  0.6886900E-01  0.9118800E+02  0.7818609E-02  0.1379984E+01
      -11   -1    0    0    0    0  0.00000000000E+00  0.00000000000E+00  0.35740347158E-01  0.35744000000E-01  0.51099999109E-03 0. -1.
       11   -1    0    0    0    0 -0.00000000000E+00 -0.00000000000E+00 -0.35740347158E-01  0.35744000000E-01  0.51099999109E-03 0.  1.
       22    1    1    2    0    0  0.56047834266E-02  0.14120803633E-02 -0.17319554961E-01  0.18258547375E-01  0.00000000000E+00 0.  1.
  9000001    1    1    2    0    0 -0.56047834266E-02 -0.14120803633E-02  0.17319554961E-01  0.53229452625E-01  0.50000000745E-01 0. -1.
</event>
<event>
 4   0  0.6886900E-01  0.9118800E+02  0.7818609E-02  0.1379984E+01
      -11   -1    0    0    0    0  0.00000000000E+00  0.00000000000E+00  0.35740347158E-01  0.35744000000E-01  0.51099999109E-03 0.  1.
       11   -1    0    0    0    0 -0.00000000000E+00 -0.00000000000E+00 -0.35740347158E-01  0.35744000000E-01  0.51099999109E-03 0. -1.
       22    1    1    2    0    0 -0.15201608135E-01 -0.85331149318E-02 -0.54287762822E-02  0.18258547375E-01  0.00000000000E+00 0. -1.
  9000001    1    1    2    0    0  0.15201608135E-01  0.85331149318E-02  0.54287762822E-02  0.53229452625E-01  0.50000000745E-01 0.  0.
</event>
<event>
 4   0  0.6886900E-01  0.9118800E+02  0.7818609E-02  0.1379984E+01
      -11   -1    0    0    0    0  0.00000000000E+00  0.00000000000E+00  0.35740347158E-01  0.35744000000E-01  0.51099999109E-03 0. -1.
       11   -1    0    0    0    0 -0.00000000000E+00 -0.00000000000E+00 -0.35740347158E-01  0.35744000000E-01  0.51099999109E-03 0.  1.
       22    1    1    2    0    0  0.66007866138E-02 -0.82645113094E-02  0.14882943968E-01  0.18258547375E-01  0.00000000000E+00 0.  1.
  9000001    1    1    2    0    0 -0.66007866138E-02  0.82645113094E-02 -0.14882943968E-01  0.53229452625E-01  0.50000000745E-01 0.  1.
</event>
<event>
 4   0  0.6886900E-01  0.9118800E+02  0.7818609E-02  0.1379984E+01
      -11   -1    0    0    0    0  0.00000000000E+00  0.00000000000E+00  0.35740347158E-01  0.35744000000E-01  0.51099999109E-03 0. -1.
       11   -1    0    0    0    0 -0.00000000000E+00 -0.00000000000E+00 -0.35740347158E-01  0.35744000000E-01  0.51099999109E-03 0.  1.
       22    1    1    2    0    0  0.52596341892E-02  0.15773824640E-01  0.75430270230E-02  0.18258547375E-01  0.00000000000E+00 0.  1.
  9000001    1    1    2    0    0 -0.52596341892E-02 -0.15773824640E-01 -0.75430270230E-02  0.53229452625E-01  0.50000000745E-01 0.  0.
</event>
<event>
 4   0  0.6886900E-01  0.9118800E+02  0.7818609E-02  0.1379984E+01
      -11   -1    0    0    0    0  0.00000000000E+00  0.00000000000E+00  0.35740347158E-01  0.35744000000E-01  0.51099999109E-03 0.  1.
       11   -1    0    0    0    0 -0.00000000000E+00 -0.00000000000E+00 -0.35740347158E-01  0.35744000000E-01  0.51099999109E-03 0. -1.
       22    1    1    2    0    0  0.68653431924E-02  0.61902855199E-02 -0.15745538425E-01  0.18258547375E-01  0.00000000000E+00 0. -1.
  9000001    1    1    2    0    0 -0.68653431924E-02 -0.61902855199E-02  0.15745538425E-01  0.53229452625E-01  0.50000000745E-01 0.  1.
</event>
<event>
 4   0  0.6886900E-01  0.9118800E+02  0.7818609E-02  0.1379984E+01
      -11   -1    0    0    0    0  0.00000000000E+00  0.00000000000E+00  0.35740347158E-01  0.35744000000E-01  0.51099999109E-03 0. -1.
       11   -1    0    0    0    0 -0.00000000000E+00 -0.00000000000E+00 -0.35740347158E-01  0.35744000000E-01  0.51099999109E-03 0.  1.
       22    1    1    2    0    0 -0.36425804870E-02  0.43957428017E-03 -0.17886110088E-01  0.18258547375E-01  0.00000000000E+00 0.  1.
  9000001    1    1    2    0    0  0.36425804870E-02 -0.43957428017E-03  0.17886110088E-01  0.53229452625E-01  0.50000000745E-01 0. -1.
</event>
<event>
 4   0  0.6886900E-01  0.9118800E+02  0.7818609E-02  0.1379984E+01
      -11   -1    0    0    0    0  0.00000000000E+00  0.00000000000E+00  0.35740347158E-01  0.35744000000E-01  0.51099999109E-03 0. -1.
       11   -1    0    0    0    0 -0.00000000000E+00 -0.00000000000E+00 -0.35740347158E-01  0.35744000000E-01  0.51099999109E-03 0.  1.
       22    1    1    2    0    0  0.51751949939E-04  0.60526457217E-02  0.17226066114E-01  0.18258547375E-01  0.00000000000E+00 0.  1.
  9000001    1    1    2    0    0 -0.51751949939E-04 -0.60526457217E-02 -0.17226066114E-01  0.53229452625E-01  0.50000000745E-01 0.  1.
</event>
<event>
 4   0  0.6886900E-01  0.9118800E+02  0.7818609E-02  0.1379984E+01
      -11   -1    0    0    0    0  0.00000000000E+00  0.00000000000E+00  0.35740347158E-01  0.35744000000E-01  0.51099999109E-03 0.  1.
       11   -1    0    0    0    0 -0.00000000000E+00 -0.00000000000E+00 -0.35740347158E-01  0.35744000000E-01  0.51099999109E-03 0. -1.
       22    1    1    2    0    0  0.15958786109E-01  0.46716668778E-02 -0.75410361854E-02  0.18258547375E-01  0.00000000000E+00 0.  1.
  9000001    1    1    2    0    0 -0.15958786109E-01 -0.46716668778E-02  0.75410361854E-02  0.53229452625E-01  0.50000000745E-01 0. -1.
</event>
<event>
 4   0  0.6886900E-01  0.9118800E+02  0.7818609E-02  0.1379984E+01
      -11   -1    0    0    0    0  0.00000000000E+00  0.00000000000E+00  0.35740347158E-01  0.35744000000E-01  0.51099999109E-03 0. -1.
       11   -1    0    0    0    0 -0.00000000000E+00 -0.00000000000E+00 -0.35740347158E-01  0.35744000000E-01  0.51099999109E-03 0.  1.
       22    1    1    2    0    0  0.66896175103E-02  0.15848981586E-02  0.16914835726E-01  0.18258547375E-01  0.00000000000E+00 0. -1.
  9000001    1    1    2    0    0 -0.66896175103E-02 -0.15848981586E-02 -0.16914835726E-01  0.53229452625E-01  0.50000000745E-01 0.  1.
</event>
<event>
 4   0  0.6886900E-01  0.9118800E+02  0.7818609E-02  0.1379984E+01
      -11   -1    0    0    0    0  0.00000000000E+00  0.00000000000E+00  0.35740347158E-01  0.35744000000E-01  0.51099999109E-03 0.  1.
       11   -1    0    0    0    0 -0.00000000000E+00 -0.00000000000E+00 -0.35740347158E-01  0.35744000000E-01  0.51099999109E-03 0. -1.
       22    1    1    2    0    0 -0.41482142071E-02 -0.98469662827E-02 -0.14805543765E-01  0.18258547375E-01  0.00000000000E+00 0.  1.
  9000001    1    1    2    0    0  0.41482142071E-02  0.98469662827E-02  0.14805543765E-01  0.53229452625E-01  0.50000000745E-01 0.  1.
</event>
<event>
 4   0  0.6886900E-01  0.9118800E+02  0.7818609E-02  0.1379984E+01
      -11   -1    0    0    0    0  0.00000000000E+00  0.00000000000E+00  0.35740347158E-01  0.35744000000E-01  0.51099999109E-03 0. -1.
       11   -1    0    0    0    0 -0.00000000000E+00 -0.00000000000E+00 -0.35740347158E-01  0.35744000000E-01  0.51099999109E-03 0.  1.
       22    1    1    2    0    0  0.17401688424E-01 -0.25690903328E-02  0.48944424706E-02  0.18258547375E-01  0.00000000000E+00 0.  1.
  9000001    1    1    2    0    0 -0.17401688424E-01  0.25690903328E-02 -0.48944424706E-02  0.53229452625E-01  0.50000000745E-01 0.  1.
</event>
<event>
 4   0  0.6886900E-01  0.9118800E+02  0.7818609E-02  0.1379984E+01
      -11   -1    0    0    0    0  0.00000000000E+00  0.00000000000E+00  0.35740347158E-01  0.35744000000E-01  0.51099999109E-03 0. -1.
       11   -1    0    0    0    0 -0.00000000000E+00 -0.00000000000E+00 -0.35740347158E-01  0.35744000000E-01  0.51099999109E-03 0.  1.
       22    1    1    2    0    0  0.31857864852E-02 -0.31409765544E-02  0.17701965512E-01  0.18258547375E-01  0.00000000000E+00 0. -1.
  9000001    1    1    2    0    0 -0.31857864852E-02  0.31409765544E-02 -0.17701965512E-01  0.53229452625E-01  0.50000000745E-01 0.  1.
</event>
<event>
 4   0  0.6886900E-01  0.9118800E+02  0.7818609E-02  0.1379984E+01
      -11   -1    0    0    0    0  0.00000000000E+00  0.00000000000E+00  0.35740347158E-01  0.35744000000E-01  0.51099999109E-03 0. -1.
       11   -1    0    0    0    0 -0.00000000000E+00 -0.00000000000E+00 -0.35740347158E-01  0.35744000000E-01  0.51099999109E-03 0.  1.
       22    1    1    2    0    0  0.35435134211E-02 -0.73932382694E-02  0.16314352355E-01  0.18258547375E-01  0.00000000000E+00 0. -1.
  9000001    1    1    2    0    0 -0.35435134211E-02  0.73932382694E-02 -0.16314352355E-01  0.53229452625E-01  0.50000000745E-01 0.  0.
</event>
<event>
 4   0  0.6886900E-01  0.9118800E+02  0.7818609E-02  0.1379984E+01
      -11   -1    0    0    0    0  0.00000000000E+00  0.00000000000E+00  0.35740347158E-01  0.35744000000E-01  0.51099999109E-03 0. -1.
       11   -1    0    0    0    0 -0.00000000000E+00 -0.00000000000E+00 -0.35740347158E-01  0.35744000000E-01  0.51099999109E-03 0.  1.
       22    1    1    2    0    0 -0.10055091323E-01  0.68132729771E-03  0.15225159567E-01  0.18258547375E-01  0.00000000000E+00 0. -1.
  9000001    1    1    2    0    0  0.10055091323E-01 -0.68132729771E-03 -0.15225159567E-01  0.53229452625E-01  0.50000000745E-01 0.  1.
</event>
<event>
 4   0  0.6886900E-01  0.9118800E+02  0.7818609E-02  0.1379984E+01
      -11   -1    0    0    0    0  0.00000000000E+00  0.00000000000E+00  0.35740347158E-01  0.35744000000E-01  0.51099999109E-03 0. -1.
       11   -1    0    0    0    0 -0.00000000000E+00 -0.00000000000E+00 -0.35740347158E-01  0.35744000000E-01  0.51099999109E-03 0.  1.
       22    1    1    2    0    0 -0.10038192913E-01  0.86146260410E-02  0.12585605010E-01  0.18258547375E-01  0.00000000000E+00 0. -1.
  9000001    1    1    2    0    0  0.10038192913E-01 -0.86146260410E-02 -0.12585605010E-01  0.53229452625E-01  0.50000000745E-01 0.  0.
</event>
<event>
 4   0  0.6886900E-01  0.9118800E+02  0.7818609E-02  0.1379984E+01
      -11   -1    0    0    0    0  0.00000000000E+00  0.00000000000E+00  0.35740347158E-01  0.35744000000E-01  0.51099999109E-03 0.  1.
       11   -1    0    0    0    0 -0.00000000000E+00 -0.00000000000E+00 -0.35740347158E-01  0.35744000000E-01  0.51099999109E-03 0. -1.
       22    1    1    2    0    0  0.24073252513E-02 -0.42915889391E-02 -0.17582991832E-01  0.18258547375E-01  0.00000000000E+00 0. -1.
  9000001    1    1    2    0    0 -0.24073252513E-02  0.42915889391E-02  0.17582991832E-01  0.53229452625E-01  0.50000000745E-01 0.  1.
</event>
<event>
 4   0  0.6886900E-01  0.9118800E+02  0.7818609E-02  0.1379984E+01
      -11   -1    0    0    0    0  0.00000000000E+00  0.00000000000E+00  0.35740347158E-01  0.35744000000E-01  0.51099999109E-03 0. -1.
       11   -1    0    0    0    0 -0.00000000000E+00 -0.00000000000E+00 -0.35740347158E-01  0.35744000000E-01  0.51099999109E-03 0.  1.
       22    1    1    2    0    0  0.18140824716E-02 -0.48766866520E-02  0.17501473776E-01  0.18258547375E-01  0.00000000000E+00 0. -1.
  9000001    1    1    2    0    0 -0.18140824716E-02  0.48766866520E-02 -0.17501473776E-01  0.53229452625E-01  0.50000000745E-01 0.  1.
</event>
<event>
 4   0  0.6886900E-01  0.9118800E+02  0.7818609E-02  0.1379984E+01
      -11   -1    0    0    0    0  0.00000000000E+00  0.00000000000E+00  0.35740347158E-01  0.35744000000E-01  0.51099999109E-03 0. -1.
       11   -1    0    0    0    0 -0.00000000000E+00 -0.00000000000E+00 -0.35740347158E-01  0.35744000000E-01  0.51099999109E-03 0.  1.
       22    1    1    2    0    0 -0.88075568694E-02 -0.11025212767E-01 -0.11586465280E-01  0.18258547375E-01  0.00000000000E+00 0. -1.
  9000001    1    1    2    0    0  0.88075568694E-02  0.11025212767E-01  0.11586465280E-01  0.53229452625E-01  0.50000000745E-01 0. -1.
</event>
<event>
 4   0  0.6886900E-01  0.9118800E+02  0.7818609E-02  0.1379984E+01
      -11   -1    0    0    0    0  0.00000000000E+00  0.00000000000E+00  0.35740347158E-01  0.35744000000E-01  0.51099999109E-03 0. -1.
       11   -1    0    0    0    0 -0.00000000000E+00 -0.00000000000E+00 -0.35740347158E-01  0.35744000000E-01  0.51099999109E-03 0.  1.
       22    1    1    2    0    0  0.11909941830E-02  0.89081539554E-02  0.15893422483E-01  0.18258547375E-01  0.00000000000E+00 0. -1.
  9000001    1    1    2    0    0 -0.11909941830E-02 -0.89081539554E-02 -0.15893422483E-01  0.53229452625E-01  0.50000000745E-01 0.  1.
</event>
<event>
 4   0  0.6886900E-01  0.9118800E+02  0.7818609E-02  0.1379984E+01
      -11   -1    0    0    0    0  0.00000000000E+00  0.00000000000E+00  0.35740347158E-01  0.35744000000E-01  0.51099999109E-03 0. -1.
       11   -1    0    0    0    0 -0.00000000000E+00 -0.00000000000E+00 -0.35740347158E-01  0.35744000000E-01  0.51099999109E-03 0.  1.
       22    1    1    2    0    0 -0.86104879327E-02  0.12075889553E-01 -0.10649269520E-01  0.18258547375E-01  0.00000000000E+00 0. -1.
  9000001    1    1    2    0    0  0.86104879327E-02 -0.12075889553E-01  0.10649269520E-01  0.53229452625E-01  0.50000000745E-01 0.  0.
</event>
<event>
 4   0  0.6886900E-01  0.9118800E+02  0.7818609E-02  0.1379984E+01
      -11   -1    0    0    0    0  0.00000000000E+00  0.00000000000E+00  0.35740347158E-01  0.35744000000E-01  0.51099999109E-03 0.  1.
       11   -1    0    0    0    0 -0.00000000000E+00 -0.00000000000E+00 -0.35740347158E-01  0.35744000000E-01  0.51099999109E-03 0. -1.
       22    1    1    2    0    0 -0.15891559360E-01 -0.89111583492E-02  0.11933776499E-02  0.18258547375E-01  0.00000000000E+00 0.  1.
  9000001    1    1    2    0    0  0.15891559360E-01  0.89111583492E-02 -0.11933776499E-02  0.53229452625E-01  0.50000000745E-01 0.  0.
</event>
<event>
 4   0  0.6886900E-01  0.9118800E+02  0.7818609E-02  0.1379984E+01
      -11   -1    0    0    0    0  0.00000000000E+00  0.00000000000E+00  0.35740347158E-01  0.35744000000E-01  0.51099999109E-03 0.  1.
       11   -1    0    0    0    0 -0.00000000000E+00 -0.00000000000E+00 -0.35740347158E-01  0.35744000000E-01  0.51099999109E-03 0. -1.
       22    1    1    2    0    0 -0.12371210453E-01  0.79455138548E-03 -0.13405088298E-01  0.18258547375E-01  0.00000000000E+00 0. -1.
  9000001    1    1    2    0    0  0.12371210453E-01 -0.79455138548E-03  0.13405088298E-01  0.53229452625E-01  0.50000000745E-01 0.  1.
</event>
<event>
 4   0  0.6886900E-01  0.9118800E+02  0.7818609E-02  0.1379984E+01
      -11   -1    0    0    0    0  0.00000000000E+00  0.00000000000E+00  0.35740347158E-01  0.35744000000E-01  0.51099999109E-03 0.  1.
       11   -1    0    0    0    0 -0.00000000000E+00 -0.00000000000E+00 -0.35740347158E-01  0.35744000000E-01  0.51099999109E-03 0. -1.
       22    1    1    2    0    0  0.47776981982E-02 -0.98975296915E-02  0.14580365502E-01  0.18258547375E-01  0.00000000000E+00 0.  1.
  9000001    1    1    2    0    0 -0.47776981982E-02  0.98975296915E-02 -0.14580365502E-01  0.53229452625E-01  0.50000000745E-01 0.  0.
</event>
<event>
 4   0  0.6886900E-01  0.9118800E+02  0.7818609E-02  0.1379984E+01
      -11   -1    0    0    0    0  0.00000000000E+00  0.00000000000E+00  0.35740347158E-01  0.35744000000E-01  0.51099999109E-03 0. -1.
       11   -1    0    0    0    0 -0.00000000000E+00 -0.00000000000E+00 -0.35740347158E-01  0.35744000000E-01  0.51099999109E-03 0.  1.
       22    1    1    2    0    0  0.12618385352E-02  0.32097624478E-02  0.17929856128E-01  0.18258547375E-01  0.00000000000E+00 0. -1.
  9000001    1    1    2    0    0 -0.12618385352E-02 -0.32097624478E-02 -0.17929856128E-01  0.53229452625E-01  0.50000000745E-01 0.  1.
</event>
<event>
 4   0  0.6886900E-01  0.9118800E+02  0.7818609E-02  0.1379984E+01
      -11   -1    0    0    0    0  0.00000000000E+00  0.00000000000E+00  0.35740347158E-01  0.35744000000E-01  0.51099999109E-03 0.  1.
       11   -1    0    0    0    0 -0.00000000000E+00 -0.00000000000E+00 -0.35740347158E-01  0.35744000000E-01  0.51099999109E-03 0. -1.
       22    1    1    2    0    0  0.46146780814E-02 -0.11632021975E-02 -0.17627429169E-01  0.18258547375E-01  0.00000000000E+00 0. -1.
  9000001    1    1    2    0    0 -0.46146780814E-02  0.11632021975E-02  0.17627429169E-01  0.53229452625E-01  0.50000000745E-01 0.  1.
</event>
<event>
 4   0  0.6886900E-01  0.9118800E+02  0.7818609E-02  0.1379984E+01
      -11   -1    0    0    0    0  0.00000000000E+00  0.00000000000E+00  0.35740347158E-01  0.35744000000E-01  0.51099999109E-03 0. -1.
       11   -1    0    0    0    0 -0.00000000000E+00 -0.00000000000E+00 -0.35740347158E-01  0.35744000000E-01  0.51099999109E-03 0.  1.
       22    1    1    2    0    0 -0.45496961230E-02 -0.51690731390E-02 -0.16910218813E-01  0.18258547375E-01  0.00000000000E+00 0.  1.
  9000001    1    1    2    0    0  0.45496961230E-02  0.51690731390E-02  0.16910218813E-01  0.53229452625E-01  0.50000000745E-01 0. -1.
</event>
<event>
 4   0  0.6886900E-01  0.9118800E+02  0.7818609E-02  0.1379984E+01
      -11   -1    0    0    0    0  0.00000000000E+00  0.00000000000E+00  0.35740347158E-01  0.35744000000E-01  0.51099999109E-03 0. -1.
       11   -1    0    0    0    0 -0.00000000000E+00 -0.00000000000E+00 -0.35740347158E-01  0.35744000000E-01  0.51099999109E-03 0.  1.
       22    1    1    2    0    0 -0.42091635602E-02  0.20738183412E-02  0.17645304527E-01  0.18258547375E-01  0.00000000000E+00 0. -1.
  9000001    1    1    2    0    0  0.42091635602E-02 -0.20738183412E-02 -0.17645304527E-01  0.53229452625E-01  0.50000000745E-01 0.  1.
</event>
<event>
 4   0  0.6886900E-01  0.9118800E+02  0.7818609E-02  0.1379984E+01
      -11   -1    0    0    0    0  0.00000000000E+00  0.00000000000E+00  0.35740347158E-01  0.35744000000E-01  0.51099999109E-03 0. -1.
       11   -1    0    0    0    0 -0.00000000000E+00 -0.00000000000E+00 -0.35740347158E-01  0.35744000000E-01  0.51099999109E-03 0.  1.
       22    1    1    2    0    0 -0.70188516810E-02 -0.42519928241E-02  0.16310451568E-01  0.18258547375E-01  0.00000000000E+00 0. -1.
  9000001    1    1    2    0    0  0.70188516810E-02  0.42519928241E-02 -0.16310451568E-01  0.53229452625E-01  0.50000000745E-01 0.  1.
</event>
<event>
 4   0  0.6886900E-01  0.9118800E+02  0.7818609E-02  0.1379984E+01
      -11   -1    0    0    0    0  0.00000000000E+00  0.00000000000E+00  0.35740347158E-01  0.35744000000E-01  0.51099999109E-03 0. -1.
       11   -1    0    0    0    0 -0.00000000000E+00 -0.00000000000E+00 -0.35740347158E-01  0.35744000000E-01  0.51099999109E-03 0.  1.
       22    1    1    2    0    0  0.16571955636E-01  0.29545470737E-02 -0.70721630523E-02  0.18258547375E-01  0.00000000000E+00 0.  1.
  9000001    1    1    2    0    0 -0.16571955636E-01 -0.29545470737E-02  0.70721630523E-02  0.53229452625E-01  0.50000000745E-01 0. -1.
</event>
<event>
 4   0  0.6886900E-01  0.9118800E+02  0.7818609E-02  0.1379984E+01
      -11   -1    0    0    0    0  0.00000000000E+00  0.00000000000E+00  0.35740347158E-01  0.35744000000E-01  0.51099999109E-03 0.  1.
       11   -1    0    0    0    0 -0.00000000000E+00 -0.00000000000E+00 -0.35740347158E-01  0.35744000000E-01  0.51099999109E-03 0. -1.
       22    1    1    2    0    0 -0.11286009673E-01  0.13129539572E-01 -0.57979072551E-02  0.18258547375E-01  0.00000000000E+00 0. -1.
  9000001    1    1    2    0    0  0.11286009673E-01 -0.13129539572E-01  0.57979072551E-02  0.53229452625E-01  0.50000000745E-01 0.  0.
</event>
<event>
 4   0  0.6886900E-01  0.9118800E+02  0.7818609E-02  0.1379984E+01
      -11   -1    0    0    0    0  0.00000000000E+00  0.00000000000E+00  0.35740347158E-01  0.35744000000E-01  0.51099999109E-03 0. -1.
       11   -1    0    0    0    0 -0.00000000000E+00 -0.00000000000E+00 -0.35740347158E-01  0.35744000000E-01  0.51099999109E-03 0.  1.
       22    1    1    2    0    0  0.10954856290E-01 -0.12583744666E-01 -0.74172128239E-02  0.18258547375E-01  0.00000000000E+00 0.  1.
  9000001    1    1    2    0    0 -0.10954856290E-01  0.12583744666E-01  0.74172128239E-02  0.53229452625E-01  0.50000000745E-01 0. -1.
</event>
<event>
 4   0  0.6886900E-01  0.9118800E+02  0.7818609E-02  0.1379984E+01
      -11   -1    0    0    0    0  0.00000000000E+00  0.00000000000E+00  0.35740347158E-01  0.35744000000E-01  0.51099999109E-03 0.  1.
       11   -1    0    0    0    0 -0.00000000000E+00 -0.00000000000E+00 -0.35740347158E-01  0.35744000000E-01  0.51099999109E-03 0. -1.
       22    1    1    2    0    0  0.30552991254E-02 -0.43781806821E-03 -0.17995777695E-01  0.18258547375E-01  0.00000000000E+00 0. -1.
  9000001    1    1    2    0    0 -0.30552991254E-02  0.43781806821E-03  0.17995777695E-01  0.53229452625E-01  0.50000000745E-01 0.  1.
</event>
<event>
 4   0  0.6886900E-01  0.9118800E+02  0.7818609E-02  0.1379984E+01
      -11   -1    0    0    0    0  0.00000000000E+00  0.00000000000E+00  0.35740347158E-01  0.35744000000E-01  0.51099999109E-03 0.  1.
       11   -1    0    0    0    0 -0.00000000000E+00 -0.00000000000E+00 -0.35740347158E-01  0.35744000000E-01  0.51099999109E-03 0. -1.
       22    1    1    2    0    0  0.54596310635E-02 -0.11103030615E-01  0.13427199710E-01  0.18258547375E-01  0.00000000000E+00 0. -1.
  9000001    1    1    2    0    0 -0.54596310635E-02  0.11103030615E-01 -0.13427199710E-01  0.53229452625E-01  0.50000000745E-01 0.  0.
</event>
<event>
 4   0  0.6886900E-01  0.9118800E+02  0.7818609E-02  0.1379984E+01
      -11   -1    0    0    0    0  0.00000000000E+00  0.00000000000E+00  0.35740347158E-01  0.35744000000E-01  0.51099999109E-03 0. -1.
       11   -1    0    0    0    0 -0.00000000000E+00 -0.00000000000E+00 -0.35740347158E-01  0.35744000000E-01  0.51099999109E-03 0.  1.
       22    1    1    2    0    0 -0.50436518274E-03 -0.75134822923E-02 -0.16633332554E-01  0.18258547375E-01  0.00000000000E+00 0.  1.
  9000001    1    1    2    0    0  0.50436518274E-03  0.75134822923E-02  0.16633332554E-01  0.53229452625E-01  0.50000000745E-01 0. -1.
</event>
<event>
 4   0  0.6886900E-01  0.9118800E+02  0.7818609E-02  0.1379984E+01
      -11   -1    0    0    0    0  0.00000000000E+00  0.00000000000E+00  0.35740347158E-01  0.35744000000E-01  0.51099999109E-03 0. -1.
       11   -1    0    0    0    0 -0.00000000000E+00 -0.00000000000E+00 -0.35740347158E-01  0.35744000000E-01  0.51099999109E-03 0.  1.
       22    1    1    2    0    0  0.27572262090E-02  0.16227734586E-02  0.17976063590E-01  0.18258547375E-01  0.00000000000E+00 0. -1.
  9000001    1    1    2    0    0 -0.27572262090E-02 -0.16227734586E-02 -0.17976063590E-01  0.53229452625E-01  0.50000000745E-01 0.  1.
</event>
<event>
 4   0  0.6886900E-01  0.9118800E+02  0.7818609E-02  0.1379984E+01
      -11   -1    0    0    0    0  0.00000000000E+00  0.00000000000E+00  0.35740347158E-01  0.35744000000E-01  0.51099999109E-03 0.  1.
       11   -1    0    0    0    0 -0.00000000000E+00 -0.00000000000E+00 -0.35740347158E-01  0.35744000000E-01  0.51099999109E-03 0. -1.
       22    1    1    2    0    0 -0.62858732816E-03 -0.38460635853E-02  0.17837803259E-01  0.18258547375E-01  0.00000000000E+00 0.  1.
  9000001    1    1    2    0    0  0.62858732816E-03  0.38460635853E-02 -0.17837803259E-01  0.53229452625E-01  0.50000000745E-01 0. -1.
</event>
<event>
 4   0  0.6886900E-01  0.9118800E+02  0.7818609E-02  0.1379984E+01
      -11   -1    0    0    0    0  0.00000000000E+00  0.00000000000E+00  0.35740347158E-01  0.35744000000E-01  0.51099999109E-03 0.  1.
       11   -1    0    0    0    0 -0.00000000000E+00 -0.00000000000E+00 -0.35740347158E-01  0.35744000000E-01  0.51099999109E-03 0. -1.
       22    1    1    2    0    0 -0.10935265202E-02 -0.32844338607E-02  0.17927388159E-01  0.18258547375E-01  0.00000000000E+00 0. -1.
  9000001    1    1    2    0    0  0.10935265202E-02  0.32844338607E-02 -0.17927388159E-01  0.53229452625E-01  0.50000000745E-01 0. -1.
</event>
<event>
 4   0  0.6886900E-01  0.9118800E+02  0.7818609E-02  0.1379984E+01
      -11   -1    0    0    0    0  0.00000000000E+00  0.00000000000E+00  0.35740347158E-01  0.35744000000E-01  0.51099999109E-03 0. -1.
       11   -1    0    0    0    0 -0.00000000000E+00 -0.00000000000E+00 -0.35740347158E-01  0.35744000000E-01  0.51099999109E-03 0.  1.
       22    1    1    2    0    0  0.50056124419E-02  0.42855530987E-02 -0.17027989634E-01  0.18258547375E-01  0.00000000000E+00 0.  1.
  9000001    1    1    2    0    0 -0.50056124419E-02 -0.42855530987E-02  0.17027989634E-01  0.53229452625E-01  0.50000000745E-01 0. -1.
</event>
<event>
 4   0  0.6886900E-01  0.9118800E+02  0.7818609E-02  0.1379984E+01
      -11   -1    0    0    0    0  0.00000000000E+00  0.00000000000E+00  0.35740347158E-01  0.35744000000E-01  0.51099999109E-03 0. -1.
       11   -1    0    0    0    0 -0.00000000000E+00 -0.00000000000E+00 -0.35740347158E-01  0.35744000000E-01  0.51099999109E-03 0.  1.
       22    1    1    2    0    0  0.27355681058E-02  0.16587997563E-02  0.17976084189E-01  0.18258547375E-01  0.00000000000E+00 0. -1.
  9000001    1    1    2    0    0 -0.27355681058E-02 -0.16587997563E-02 -0.17976084189E-01  0.53229452625E-01  0.50000000745E-01 0.  1.
</event>
<event>
 4   0  0.6886900E-01  0.9118800E+02  0.7818609E-02  0.1379984E+01
      -11   -1    0    0    0    0  0.00000000000E+00  0.00000000000E+00  0.35740347158E-01  0.35744000000E-01  0.51099999109E-03 0. -1.
       11   -1    0    0    0    0 -0.00000000000E+00 -0.00000000000E+00 -0.35740347158E-01  0.35744000000E-01  0.51099999109E-03 0.  1.
       22    1    1    2    0    0 -0.56185452272E-02  0.33474323963E-02  0.17047029012E-01  0.18258547375E-01  0.00000000000E+00 0. -1.
  9000001    1    1    2    0    0  0.56185452272E-02 -0.33474323963E-02 -0.17047029012E-01  0.53229452625E-01  0.50000000745E-01 0.  1.
</event>
<event>
 4   0  0.6886900E-01  0.9118800E+02  0.7818609E-02  0.1379984E+01
      -11   -1    0    0    0    0  0.00000000000E+00  0.00000000000E+00  0.35740347158E-01  0.35744000000E-01  0.51099999109E-03 0.  1.
       11   -1    0    0    0    0 -0.00000000000E+00 -0.00000000000E+00 -0.35740347158E-01  0.35744000000E-01  0.51099999109E-03 0. -1.
       22    1    1    2    0    0  0.13595092904E-01 -0.25055624905E-02 -0.11927705471E-01  0.18258547375E-01  0.00000000000E+00 0. -1.
  9000001    1    1    2    0    0 -0.13595092904E-01  0.25055624905E-02  0.11927705471E-01  0.53229452625E-01  0.50000000745E-01 0.  1.
</event>
<event>
 4   0  0.6886900E-01  0.9118800E+02  0.7818609E-02  0.1379984E+01
      -11   -1    0    0    0    0  0.00000000000E+00  0.00000000000E+00  0.35740347158E-01  0.35744000000E-01  0.51099999109E-03 0. -1.
       11   -1    0    0    0    0 -0.00000000000E+00 -0.00000000000E+00 -0.35740347158E-01  0.35744000000E-01  0.51099999109E-03 0.  1.
       22    1    1    2    0    0  0.66759052603E-02 -0.18451542810E-02  0.16893852340E-01  0.18258547375E-01  0.00000000000E+00 0. -1.
  9000001    1    1    2    0    0 -0.66759052603E-02  0.18451542810E-02 -0.16893852340E-01  0.53229452625E-01  0.50000000745E-01 0.  1.
</event>
<event>
 4   0  0.6886900E-01  0.9118800E+02  0.7818609E-02  0.1379984E+01
      -11   -1    0    0    0    0  0.00000000000E+00  0.00000000000E+00  0.35740347158E-01  0.35744000000E-01  0.51099999109E-03 0. -1.
       11   -1    0    0    0    0 -0.00000000000E+00 -0.00000000000E+00 -0.35740347158E-01  0.35744000000E-01  0.51099999109E-03 0.  1.
       22    1    1    2    0    0 -0.17951431053E-01 -0.31695266010E-02 -0.10367142828E-02  0.18258547375E-01  0.00000000000E+00 0. -1.
  9000001    1    1    2    0    0  0.17951431053E-01  0.31695266010E-02  0.10367142828E-02  0.53229452625E-01  0.50000000745E-01 0.  0.
</event>
<event>
 4   0  0.6886900E-01  0.9118800E+02  0.7818609E-02  0.1379984E+01
      -11   -1    0    0    0    0  0.00000000000E+00  0.00000000000E+00  0.35740347158E-01  0.35744000000E-01  0.51099999109E-03 0.  1.
       11   -1    0    0    0    0 -0.00000000000E+00 -0.00000000000E+00 -0.35740347158E-01  0.35744000000E-01  0.51099999109E-03 0. -1.
       22    1    1    2    0    0 -0.11813045847E-01  0.80077592566E-02 -0.11388691398E-01  0.18258547375E-01  0.00000000000E+00 0. -1.
  9000001    1    1    2    0    0  0.11813045847E-01 -0.80077592566E-02  0.11388691398E-01  0.53229452625E-01  0.50000000745E-01 0.  1.
</event>
<event>
 4   0  0.6886900E-01  0.9118800E+02  0.7818609E-02  0.1379984E+01
      -11   -1    0    0    0    0  0.00000000000E+00  0.00000000000E+00  0.35740347158E-01  0.35744000000E-01  0.51099999109E-03 0.  1.
       11   -1    0    0    0    0 -0.00000000000E+00 -0.00000000000E+00 -0.35740347158E-01  0.35744000000E-01  0.51099999109E-03 0. -1.
       22    1    1    2    0    0 -0.37635315650E-02 -0.11026217021E-02 -0.17832403309E-01  0.18258547375E-01  0.00000000000E+00 0. -1.
  9000001    1    1    2    0    0  0.37635315650E-02  0.11026217021E-02  0.17832403309E-01  0.53229452625E-01  0.50000000745E-01 0.  1.
</event>
<event>
 4   0  0.6886900E-01  0.9118800E+02  0.7818609E-02  0.1379984E+01
      -11   -1    0    0    0    0  0.00000000000E+00  0.00000000000E+00  0.35740347158E-01  0.35744000000E-01  0.51099999109E-03 0. -1.
       11   -1    0    0    0    0 -0.00000000000E+00 -0.00000000000E+00 -0.35740347158E-01  0.35744000000E-01  0.51099999109E-03 0.  1.
       22    1    1    2    0    0 -0.63634730799E-02 -0.58955107940E-02 -0.16066229025E-01  0.18258547375E-01  0.00000000000E+00 0. -1.
  9000001    1    1    2    0    0  0.63634730799E-02  0.58955107940E-02  0.16066229025E-01  0.53229452625E-01  0.50000000745E-01 0. -1.
</event>
<event>
 4   0  0.6886900E-01  0.9118800E+02  0.7818609E-02  0.1379984E+01
      -11   -1    0    0    0    0  0.00000000000E+00  0.00000000000E+00  0.35740347158E-01  0.35744000000E-01  0.51099999109E-03 0.  1.
       11   -1    0    0    0    0 -0.00000000000E+00 -0.00000000000E+00 -0.35740347158E-01  0.35744000000E-01  0.51099999109E-03 0. -1.
       22    1    1    2    0    0  0.15609561436E-01 -0.76843421722E-02 -0.55377819929E-02  0.18258547375E-01  0.00000000000E+00 0. -1.
  9000001    1    1    2    0    0 -0.15609561436E-01  0.76843421722E-02  0.55377819929E-02  0.53229452625E-01  0.50000000745E-01 0.  1.
</event>
<event>
 4   0  0.6886900E-01  0.9118800E+02  0.7818609E-02  0.1379984E+01
      -11   -1    0    0    0    0  0.00000000000E+00  0.00000000000E+00  0.35740347158E-01  0.35744000000E-01  0.51099999109E-03 0. -1.
       11   -1    0    0    0    0 -0.00000000000E+00 -0.00000000000E+00 -0.35740347158E-01  0.35744000000E-01  0.51099999109E-03 0.  1.
       22    1    1    2    0    0  0.15499369957E-02  0.11113556019E-01 -0.14403510689E-01  0.18258547375E-01  0.00000000000E+00 0.  1.
  9000001    1    1    2    0    0 -0.15499369957E-02 -0.11113556019E-01  0.14403510689E-01  0.53229452625E-01  0.50000000745E-01 0. -1.
</event>
<event>
 4   0  0.6886900E-01  0.9118800E+02  0.7818609E-02  0.1379984E+01
      -11   -1    0    0    0    0  0.00000000000E+00  0.00000000000E+00  0.35740347158E-01  0.35744000000E-01  0.51099999109E-03 0.  1.
       11   -1    0    0    0    0 -0.00000000000E+00 -0.00000000000E+00 -0.35740347158E-01  0.35744000000E-01  0.51099999109E-03 0. -1.
       22    1    1    2    0    0  0.10454658243E-01  0.14942345106E-01  0.89498380321E-03  0.18258547375E-01  0.00000000000E+00 0.  1.
  9000001    1    1    2    0    0 -0.10454658243E-01 -0.14942345106E-01 -0.89498380321E-03  0.53229452625E-01  0.50000000745E-01 0. -1.
</event>
<event>
 4   0  0.6886900E-01  0.9118800E+02  0.7818609E-02  0.1379984E+01
      -11   -1    0    0    0    0  0.00000000000E+00  0.00000000000E+00  0.35740347158E-01  0.35744000000E-01  0.51099999109E-03 0.  1.
       11   -1    0    0    0    0 -0.00000000000E+00 -0.00000000000E+00 -0.35740347158E-01  0.35744000000E-01  0.51099999109E-03 0. -1.
       22    1    1    2    0    0 -0.79251413366E-02  0.48568721005E-02  0.15715517187E-01  0.18258547375E-01  0.00000000000E+00 0.  1.
  9000001    1    1    2    0    0  0.79251413366E-02 -0.48568721005E-02 -0.15715517187E-01  0.53229452625E-01  0.50000000745E-01 0. -1.
</event>
<event>
 4   0  0.6886900E-01  0.9118800E+02  0.7818609E-02  0.1379984E+01
      -11   -1    0    0    0    0  0.00000000000E+00  0.00000000000E+00  0.35740347158E-01  0.35744000000E-01  0.51099999109E-03 0. -1.
       11   -1    0    0    0    0 -0.00000000000E+00 -0.00000000000E+00 -0.35740347158E-01  0.35744000000E-01  0.51099999109E-03 0.  1.
       22    1    1    2    0    0 -0.47390931464E-02  0.66459274429E-02 -0.16332397155E-01  0.18258547375E-01  0.00000000000E+00 0.  1.
  9000001    1    1    2    0    0  0.47390931464E-02 -0.66459274429E-02  0.16332397155E-01  0.53229452625E-01  0.50000000745E-01 0. -1.
</event>
<event>
 4   0  0.6886900E-01  0.9118800E+02  0.7818609E-02  0.1379984E+01
      -11   -1    0    0    0    0  0.00000000000E+00  0.00000000000E+00  0.35740347158E-01  0.35744000000E-01  0.51099999109E-03 0. -1.
       11   -1    0    0    0    0 -0.00000000000E+00 -0.00000000000E+00 -0.35740347158E-01  0.35744000000E-01  0.51099999109E-03 0.  1.
       22    1    1    2    0    0 -0.98878311813E-03 -0.10751612988E-01 -0.14724118933E-01  0.18258547375E-01  0.00000000000E+00 0.  1.
  9000001    1    1    2    0    0  0.98878311813E-03  0.10751612988E-01  0.14724118933E-01  0.53229452625E-01  0.50000000745E-01 0. -1.
</event>
<event>
 4   0  0.6886900E-01  0.9118800E+02  0.7818609E-02  0.1379984E+01
      -11   -1    0    0    0    0  0.00000000000E+00  0.00000000000E+00  0.35740347158E-01  0.35744000000E-01  0.51099999109E-03 0.  1.
       11   -1    0    0    0    0 -0.00000000000E+00 -0.00000000000E+00 -0.35740347158E-01  0.35744000000E-01  0.51099999109E-03 0. -1.
       22    1    1    2    0    0 -0.35052001861E-03  0.36796999464E-02  0.17880478077E-01  0.18258547375E-01  0.00000000000E+00 0.  1.
  9000001    1    1    2    0    0  0.35052001861E-03 -0.36796999464E-02 -0.17880478077E-01  0.53229452625E-01  0.50000000745E-01 0. -1.
</event>
<event>
 4   0  0.6886900E-01  0.9118800E+02  0.7818609E-02  0.1379984E+01
      -11   -1    0    0    0    0  0.00000000000E+00  0.00000000000E+00  0.35740347158E-01  0.35744000000E-01  0.51099999109E-03 0. -1.
       11   -1    0    0    0    0 -0.00000000000E+00 -0.00000000000E+00 -0.35740347158E-01  0.35744000000E-01  0.51099999109E-03 0.  1.
       22    1    1    2    0    0 -0.23755556991E-02  0.23705068204E-02 -0.17947478508E-01  0.18258547375E-01  0.00000000000E+00 0.  1.
  9000001    1    1    2    0    0  0.23755556991E-02 -0.23705068204E-02  0.17947478508E-01  0.53229452625E-01  0.50000000745E-01 0. -1.
</event>
<event>
 4   0  0.6886900E-01  0.9118800E+02  0.7818609E-02  0.1379984E+01
      -11   -1    0    0    0    0  0.00000000000E+00  0.00000000000E+00  0.35740347158E-01  0.35744000000E-01  0.51099999109E-03 0.  1.
       11   -1    0    0    0    0 -0.00000000000E+00 -0.00000000000E+00 -0.35740347158E-01  0.35744000000E-01  0.51099999109E-03 0. -1.
       22    1    1    2    0    0 -0.29358489751E-02 -0.37258808478E-02 -0.17631595360E-01  0.18258547375E-01  0.00000000000E+00 0. -1.
  9000001    1    1    2    0    0  0.29358489751E-02  0.37258808478E-02  0.17631595360E-01  0.53229452625E-01  0.50000000745E-01 0.  1.
</event>
<event>
 4   0  0.6886900E-01  0.9118800E+02  0.7818609E-02  0.1379984E+01
      -11   -1    0    0    0    0  0.00000000000E+00  0.00000000000E+00  0.35740347158E-01  0.35744000000E-01  0.51099999109E-03 0.  1.
       11   -1    0    0    0    0 -0.00000000000E+00 -0.00000000000E+00 -0.35740347158E-01  0.35744000000E-01  0.51099999109E-03 0. -1.
       22    1    1    2    0    0  0.53949197726E-02  0.64298603299E-02  0.16215001974E-01  0.18258547375E-01  0.00000000000E+00 0.  1.
  9000001    1    1    2    0    0 -0.53949197726E-02 -0.64298603299E-02 -0.16215001974E-01  0.53229452625E-01  0.50000000745E-01 0. -1.
</event>
<event>
 4   0  0.6886900E-01  0.9118800E+02  0.7818609E-02  0.1379984E+01
      -11   -1    0    0    0    0  0.00000000000E+00  0.00000000000E+00  0.35740347158E-01  0.35744000000E-01  0.51099999109E-03 0. -1.
       11   -1    0    0    0    0 -0.00000000000E+00 -0.00000000000E+00 -0.35740347158E-01  0.35744000000E-01  0.51099999109E-03 0.  1.
       22    1    1    2    0    0 -0.17548837040E-01 -0.50020077413E-02 -0.62672907373E-03  0.18258547375E-01  0.00000000000E+00 0. -1.
  9000001    1    1    2    0    0  0.17548837040E-01  0.50020077413E-02  0.62672907373E-03  0.53229452625E-01  0.50000000745E-01 0.  0.
</event>
<event>
 4   0  0.6886900E-01  0.9118800E+02  0.7818609E-02  0.1379984E+01
      -11   -1    0    0    0    0  0.00000000000E+00  0.00000000000E+00  0.35740347158E-01  0.35744000000E-01  0.51099999109E-03 0. -1.
       11   -1    0    0    0    0 -0.00000000000E+00 -0.00000000000E+00 -0.35740347158E-01  0.35744000000E-01  0.51099999109E-03 0.  1.
       22    1    1    2    0    0 -0.32863235316E-02 -0.15464657299E-01 -0.91334004896E-02  0.18258547375E-01  0.00000000000E+00 0. -1.
  9000001    1    1    2    0    0  0.32863235316E-02  0.15464657299E-01  0.91334004896E-02  0.53229452625E-01  0.50000000745E-01 0. -1.
</event>
<event>
 4   0  0.6886900E-01  0.9118800E+02  0.7818609E-02  0.1379984E+01
      -11   -1    0    0    0    0  0.00000000000E+00  0.00000000000E+00  0.35740347158E-01  0.35744000000E-01  0.51099999109E-03 0.  1.
       11   -1    0    0    0    0 -0.00000000000E+00 -0.00000000000E+00 -0.35740347158E-01  0.35744000000E-01  0.51099999109E-03 0. -1.
       22    1    1    2    0    0  0.53874433650E-02  0.13195027491E-02 -0.17395658042E-01  0.18258547375E-01  0.00000000000E+00 0. -1.
  9000001    1    1    2    0    0 -0.53874433650E-02 -0.13195027491E-02  0.17395658042E-01  0.53229452625E-01  0.50000000745E-01 0.  1.
</event>
<event>
 4   0  0.6886900E-01  0.9118800E+02  0.7818609E-02  0.1379984E+01
      -11   -1    0    0    0    0  0.00000000000E+00  0.00000000000E+00  0.35740347158E-01  0.35744000000E-01  0.51099999109E-03 0.  1.
       11   -1    0    0    0    0 -0.00000000000E+00 -0.00000000000E+00 -0.35740347158E-01  0.35744000000E-01  0.51099999109E-03 0. -1.
       22    1    1    2    0    0  0.77886841896E-02  0.60436621718E-02  0.15368314755E-01  0.18258547375E-01  0.00000000000E+00 0.  1.
  9000001    1    1    2    0    0 -0.77886841896E-02 -0.60436621718E-02 -0.15368314755E-01  0.53229452625E-01  0.50000000745E-01 0. -1.
</event>
<event>
 4   0  0.6886900E-01  0.9118800E+02  0.7818609E-02  0.1379984E+01
      -11   -1    0    0    0    0  0.00000000000E+00  0.00000000000E+00  0.35740347158E-01  0.35744000000E-01  0.51099999109E-03 0. -1.
       11   -1    0    0    0    0 -0.00000000000E+00 -0.00000000000E+00 -0.35740347158E-01  0.35744000000E-01  0.51099999109E-03 0.  1.
       22    1    1    2    0    0 -0.10170586926E-01 -0.47167157829E-02 -0.14411325618E-01  0.18258547375E-01  0.00000000000E+00 0.  1.
  9000001    1    1    2    0    0  0.10170586926E-01  0.47167157829E-02  0.14411325618E-01  0.53229452625E-01  0.50000000745E-01 0. -1.
</event>
<event>
 4   0  0.6886900E-01  0.9118800E+02  0.7818609E-02  0.1379984E+01
      -11   -1    0    0    0    0  0.00000000000E+00  0.00000000000E+00  0.35740347158E-01  0.35744000000E-01  0.51099999109E-03 0. -1.
       11   -1    0    0    0    0 -0.00000000000E+00 -0.00000000000E+00 -0.35740347158E-01  0.35744000000E-01  0.51099999109E-03 0.  1.
       22    1    1    2    0    0 -0.33226117158E-02 -0.12196114318E-02 -0.17912212359E-01  0.18258547375E-01  0.00000000000E+00 0. -1.
  9000001    1    1    2    0    0  0.33226117158E-02  0.12196114318E-02  0.17912212359E-01  0.53229452625E-01  0.50000000745E-01 0. -1.
</event>
<event>
 4   0  0.6886900E-01  0.9118800E+02  0.7818609E-02  0.1379984E+01
      -11   -1    0    0    0    0  0.00000000000E+00  0.00000000000E+00  0.35740347158E-01  0.35744000000E-01  0.51099999109E-03 0.  1.
       11   -1    0    0    0    0 -0.00000000000E+00 -0.00000000000E+00 -0.35740347158E-01  0.35744000000E-01  0.51099999109E-03 0. -1.
       22    1    1    2    0    0  0.10769701103E-01 -0.26166510529E-02  0.14510038858E-01  0.18258547375E-01  0.00000000000E+00 0.  1.
  9000001    1    1    2    0    0 -0.10769701103E-01  0.26166510529E-02 -0.14510038858E-01  0.53229452625E-01  0.50000000745E-01 0. -1.
</event>
<event>
 4   0  0.6886900E-01  0.9118800E+02  0.7818609E-02  0.1379984E+01
      -11   -1    0    0    0    0  0.00000000000E+00  0.00000000000E+00  0.35740347158E-01  0.35744000000E-01  0.51099999109E-03 0.  1.
       11   -1    0    0    0    0 -0.00000000000E+00 -0.00000000000E+00 -0.35740347158E-01  0.35744000000E-01  0.51099999109E-03 0. -1.
       22    1    1    2    0    0  0.32490582725E-02 -0.42850800221E-02 -0.17448675073E-01  0.18258547375E-01  0.00000000000E+00 0. -1.
  9000001    1    1    2    0    0 -0.32490582725E-02  0.42850800221E-02  0.17448675073E-01  0.53229452625E-01  0.50000000745E-01 0.  1.
</event>
<event>
 4   0  0.6886900E-01  0.9118800E+02  0.7818609E-02  0.1379984E+01
      -11   -1    0    0    0    0  0.00000000000E+00  0.00000000000E+00  0.35740347158E-01  0.35744000000E-01  0.51099999109E-03 0. -1.
       11   -1    0    0    0    0 -0.00000000000E+00 -0.00000000000E+00 -0.35740347158E-01  0.35744000000E-01  0.51099999109E-03 0.  1.
       22    1    1    2    0    0 -0.73712598487E-02  0.56220729931E-02  0.15729951549E-01  0.18258547375E-01  0.00000000000E+00 0. -1.
  9000001    1    1    2    0    0  0.73712598487E-02 -0.56220729931E-02 -0.15729951549E-01  0.53229452625E-01  0.50000000745E-01 0.  1.
</event>
<event>
 4   0  0.6886900E-01  0.9118800E+02  0.7818609E-02  0.1379984E+01
      -11   -1    0    0    0    0  0.00000000000E+00  0.00000000000E+00  0.35740347158E-01  0.35744000000E-01  0.51099999109E-03 0.  1.
       11   -1    0    0    0    0 -0.00000000000E+00 -0.00000000000E+00 -0.35740347158E-01  0.35744000000E-01  0.51099999109E-03 0. -1.
       22    1    1    2    0    0  0.62152959514E-02  0.11013357980E-02 -0.17132767084E-01  0.18258547375E-01  0.00000000000E+00 0. -1.
  9000001    1    1    2    0    0 -0.62152959514E-02 -0.11013357980E-02  0.17132767084E-01  0.53229452625E-01  0.50000000745E-01 0.  1.
</event>
<event>
 4   0  0.6886900E-01  0.9118800E+02  0.7818609E-02  0.1379984E+01
      -11   -1    0    0    0    0  0.00000000000E+00  0.00000000000E+00  0.35740347158E-01  0.35744000000E-01  0.51099999109E-03 0. -1.
       11   -1    0    0    0    0 -0.00000000000E+00 -0.00000000000E+00 -0.35740347158E-01  0.35744000000E-01  0.51099999109E-03 0.  1.
       22    1    1    2    0    0  0.93951727848E-02 -0.15192900224E-01 -0.37790294205E-02  0.18258547375E-01  0.00000000000E+00 0.  1.
  9000001    1    1    2    0    0 -0.93951727848E-02  0.15192900224E-01  0.37790294205E-02  0.53229452625E-01  0.50000000745E-01 0.  0.
</event>
<event>
 4   0  0.6886900E-01  0.9118800E+02  0.7818609E-02  0.1379984E+01
      -11   -1    0    0    0    0  0.00000000000E+00  0.00000000000E+00  0.35740347158E-01  0.35744000000E-01  0.51099999109E-03 0.  1.
       11   -1    0    0    0    0 -0.00000000000E+00 -0.00000000000E+00 -0.35740347158E-01  0.35744000000E-01  0.51099999109E-03 0. -1.
       22    1    1    2    0    0 -0.63406240331E-02 -0.11796542317E-02 -0.17081553062E-01  0.18258547375E-01  0.00000000000E+00 0. -1.
  9000001    1    1    2    0    0  0.63406240331E-02  0.11796542317E-02  0.17081553062E-01  0.53229452625E-01  0.50000000745E-01 0.  1.
</event>
<event>
 4   0  0.6886900E-01  0.9118800E+02  0.7818609E-02  0.1379984E+01
      -11   -1    0    0    0    0  0.00000000000E+00  0.00000000000E+00  0.35740347158E-01  0.35744000000E-01  0.51099999109E-03 0.  1.
       11   -1    0    0    0    0 -0.00000000000E+00 -0.00000000000E+00 -0.35740347158E-01  0.35744000000E-01  0.51099999109E-03 0. -1.
       22    1    1    2    0    0 -0.46436272972E-02  0.39850010348E-02  0.17202646440E-01  0.18258547375E-01  0.00000000000E+00 0.  1.
  9000001    1    1    2    0    0  0.46436272972E-02 -0.39850010348E-02 -0.17202646440E-01  0.53229452625E-01  0.50000000745E-01 0. -1.
</event>
<event>
 4   0  0.6886900E-01  0.9118800E+02  0.7818609E-02  0.1379984E+01
      -11   -1    0    0    0    0  0.00000000000E+00  0.00000000000E+00  0.35740347158E-01  0.35744000000E-01  0.51099999109E-03 0. -1.
       11   -1    0    0    0    0 -0.00000000000E+00 -0.00000000000E+00 -0.35740347158E-01  0.35744000000E-01  0.51099999109E-03 0.  1.
       22    1    1    2    0    0  0.12221495203E-01  0.33900629977E-02  0.13134575749E-01  0.18258547375E-01  0.00000000000E+00 0. -1.
  9000001    1    1    2    0    0 -0.12221495203E-01 -0.33900629977E-02 -0.13134575749E-01  0.53229452625E-01  0.50000000745E-01 0.  1.
</event>
<event>
 4   0  0.6886900E-01  0.9118800E+02  0.7818609E-02  0.1379984E+01
      -11   -1    0    0    0    0  0.00000000000E+00  0.00000000000E+00  0.35740347158E-01  0.35744000000E-01  0.51099999109E-03 0. -1.
       11   -1    0    0    0    0 -0.00000000000E+00 -0.00000000000E+00 -0.35740347158E-01  0.35744000000E-01  0.51099999109E-03 0.  1.
       22    1    1    2    0    0 -0.46955069854E-02  0.25612216595E-02  0.17457574574E-01  0.18258547375E-01  0.00000000000E+00 0. -1.
  9000001    1    1    2    0    0  0.46955069854E-02 -0.25612216595E-02 -0.17457574574E-01  0.53229452625E-01  0.50000000745E-01 0.  1.
</event>
<event>
 4   0  0.6886900E-01  0.9118800E+02  0.7818609E-02  0.1379984E+01
      -11   -1    0    0    0    0  0.00000000000E+00  0.00000000000E+00  0.35740347158E-01  0.35744000000E-01  0.51099999109E-03 0.  1.
       11   -1    0    0    0    0 -0.00000000000E+00 -0.00000000000E+00 -0.35740347158E-01  0.35744000000E-01  0.51099999109E-03 0. -1.
       22    1    1    2    0    0  0.10442007656E-01 -0.59245225505E-02 -0.13756418899E-01  0.18258547375E-01  0.00000000000E+00 0. -1.
  9000001    1    1    2    0    0 -0.10442007656E-01  0.59245225505E-02  0.13756418899E-01  0.53229452625E-01  0.50000000745E-01 0.  1.
</event>
<event>
 4   0  0.6886900E-01  0.9118800E+02  0.7818609E-02  0.1379984E+01
      -11   -1    0    0    0    0  0.00000000000E+00  0.00000000000E+00  0.35740347158E-01  0.35744000000E-01  0.51099999109E-03 0. -1.
       11   -1    0    0    0    0 -0.00000000000E+00 -0.00000000000E+00 -0.35740347158E-01  0.35744000000E-01  0.51099999109E-03 0.  1.
       22    1    1    2    0    0  0.91491572841E-02 -0.97655008467E-02 -0.12421854389E-01  0.18258547375E-01  0.00000000000E+00 0. -1.
  9000001    1    1    2    0    0 -0.91491572841E-02  0.97655008467E-02  0.12421854389E-01  0.53229452625E-01  0.50000000745E-01 0.  0.
</event>
<event>
 4   0  0.6886900E-01  0.9118800E+02  0.7818609E-02  0.1379984E+01
      -11   -1    0    0    0    0  0.00000000000E+00  0.00000000000E+00  0.35740347158E-01  0.35744000000E-01  0.51099999109E-03 0.  1.
       11   -1    0    0    0    0 -0.00000000000E+00 -0.00000000000E+00 -0.35740347158E-01  0.35744000000E-01  0.51099999109E-03 0. -1.
       22    1    1    2    0    0 -0.27023732390E-03 -0.35750929530E-02  0.17903078909E-01  0.18258547375E-01  0.00000000000E+00 0. -1.
  9000001    1    1    2    0    0  0.27023732390E-03  0.35750929530E-02 -0.17903078909E-01  0.53229452625E-01  0.50000000745E-01 0. -1.
</event>
<event>
 4   0  0.6886900E-01  0.9118800E+02  0.7818609E-02  0.1379984E+01
      -11   -1    0    0    0    0  0.00000000000E+00  0.00000000000E+00  0.35740347158E-01  0.35744000000E-01  0.51099999109E-03 0.  1.
       11   -1    0    0    0    0 -0.00000000000E+00 -0.00000000000E+00 -0.35740347158E-01  0.35744000000E-01  0.51099999109E-03 0. -1.
       22    1    1    2    0    0 -0.20575467993E-02  0.26173120156E-02 -0.17952457526E-01  0.18258547375E-01  0.00000000000E+00 0.  1.
  9000001    1    1    2    0    0  0.20575467993E-02 -0.26173120156E-02  0.17952457526E-01  0.53229452625E-01  0.50000000745E-01 0.  1.
</event>
<event>
 4   0  0.6886900E-01  0.9118800E+02  0.7818609E-02  0.1379984E+01
      -11   -1    0    0    0    0  0.00000000000E+00  0.00000000000E+00  0.35740347158E-01  0.35744000000E-01  0.51099999109E-03 0. -1.
       11   -1    0    0    0    0 -0.00000000000E+00 -0.00000000000E+00 -0.35740347158E-01  0.35744000000E-01  0.51099999109E-03 0.  1.
       22    1    1    2    0    0  0.22935397189E-02 -0.15099554007E-01 -0.10005883099E-01  0.18258547375E-01  0.00000000000E+00 0.  1.
  9000001    1    1    2    0    0 -0.22935397189E-02  0.15099554007E-01  0.10005883099E-01  0.53229452625E-01  0.50000000745E-01 0.  0.
</event>
<event>
 4   0  0.6886900E-01  0.9118800E+02  0.7818609E-02  0.1379984E+01
      -11   -1    0    0    0    0  0.00000000000E+00  0.00000000000E+00  0.35740347158E-01  0.35744000000E-01  0.51099999109E-03 0. -1.
       11   -1    0    0    0    0 -0.00000000000E+00 -0.00000000000E+00 -0.35740347158E-01  0.35744000000E-01  0.51099999109E-03 0.  1.
       22    1    1    2    0    0  0.56544309603E-02 -0.11983559703E-01  0.12561698117E-01  0.18258547375E-01  0.00000000000E+00 0. -1.
  9000001    1    1    2    0    0 -0.56544309603E-02  0.11983559703E-01 -0.12561698117E-01  0.53229452625E-01  0.50000000745E-01 0.  1.
</event>
<event>
 4   0  0.6886900E-01  0.9118800E+02  0.7818609E-02  0.1379984E+01
      -11   -1    0    0    0    0  0.00000000000E+00  0.00000000000E+00  0.35740347158E-01  0.35744000000E-01  0.51099999109E-03 0. -1.
       11   -1    0    0    0    0 -0.00000000000E+00 -0.00000000000E+00 -0.35740347158E-01  0.35744000000E-01  0.51099999109E-03 0.  1.
       22    1    1    2    0    0  0.33096889446E-02 -0.36741866387E-02  0.17576144739E-01  0.18258547375E-01  0.00000000000E+00 0. -1.
  9000001    1    1    2    0    0 -0.33096889446E-02  0.36741866387E-02 -0.17576144739E-01  0.53229452625E-01  0.50000000745E-01 0.  1.
</event>
<event>
 4   0  0.6886900E-01  0.9118800E+02  0.7818609E-02  0.1379984E+01
      -11   -1    0    0    0    0  0.00000000000E+00  0.00000000000E+00  0.35740347158E-01  0.35744000000E-01  0.51099999109E-03 0.  1.
       11   -1    0    0    0    0 -0.00000000000E+00 -0.00000000000E+00 -0.35740347158E-01  0.35744000000E-01  0.51099999109E-03 0. -1.
       22    1    1    2    0    0  0.71137321112E-04  0.81953016193E-02 -0.16315836574E-01  0.18258547375E-01  0.00000000000E+00 0. -1.
  9000001    1    1    2    0    0 -0.71137321112E-04 -0.81953016193E-02  0.16315836574E-01  0.53229452625E-01  0.50000000745E-01 0.  1.
</event>
<event>
 4   0  0.6886900E-01  0.9118800E+02  0.7818609E-02  0.1379984E+01
      -11   -1    0    0    0    0  0.00000000000E+00  0.00000000000E+00  0.35740347158E-01  0.35744000000E-01  0.51099999109E-03 0.  1.
       11   -1    0    0    0    0 -0.00000000000E+00 -0.00000000000E+00 -0.35740347158E-01  0.35744000000E-01  0.51099999109E-03 0. -1.
       22    1    1    2    0    0 -0.89848779594E-03  0.13363876511E-01 -0.12408629116E-01  0.18258547375E-01  0.00000000000E+00 0. -1.
  9000001    1    1    2    0    0  0.89848779594E-03 -0.13363876511E-01  0.12408629116E-01  0.53229452625E-01  0.50000000745E-01 0.  1.
</event>
<event>
 4   0  0.6886900E-01  0.9118800E+02  0.7818609E-02  0.1379984E+01
      -11   -1    0    0    0    0  0.00000000000E+00  0.00000000000E+00  0.35740347158E-01  0.35744000000E-01  0.51099999109E-03 0.  1.
       11   -1    0    0    0    0 -0.00000000000E+00 -0.00000000000E+00 -0.35740347158E-01  0.35744000000E-01  0.51099999109E-03 0. -1.
       22    1    1    2    0    0  0.43580729917E-02 -0.61706604896E-02 -0.16622415624E-01  0.18258547375E-01  0.00000000000E+00 0. -1.
  9000001    1    1    2    0    0 -0.43580729917E-02  0.61706604896E-02  0.16622415624E-01  0.53229452625E-01  0.50000000745E-01 0.  1.
</event>
<event>
 4   0  0.6886900E-01  0.9118800E+02  0.7818609E-02  0.1379984E+01
      -11   -1    0    0    0    0  0.00000000000E+00  0.00000000000E+00  0.35740347158E-01  0.35744000000E-01  0.51099999109E-03 0. -1.
       11   -1    0    0    0    0 -0.00000000000E+00 -0.00000000000E+00 -0.35740347158E-01  0.35744000000E-01  0.51099999109E-03 0.  1.
       22    1    1    2    0    0  0.47517054067E-02 -0.38741582395E-02 -0.17198451846E-01  0.18258547375E-01  0.00000000000E+00 0. -1.
  9000001    1    1    2    0    0 -0.47517054067E-02  0.38741582395E-02  0.17198451846E-01  0.53229452625E-01  0.50000000745E-01 0. -1.
</event>
<event>
 4   0  0.6886900E-01  0.9118800E+02  0.7818609E-02  0.1379984E+01
      -11   -1    0    0    0    0  0.00000000000E+00  0.00000000000E+00  0.35740347158E-01  0.35744000000E-01  0.51099999109E-03 0.  1.
       11   -1    0    0    0    0 -0.00000000000E+00 -0.00000000000E+00 -0.35740347158E-01  0.35744000000E-01  0.51099999109E-03 0. -1.
       22    1    1    2    0    0  0.41859285753E-02 -0.56516533024E-02 -0.16849669705E-01  0.18258547375E-01  0.00000000000E+00 0. -1.
  9000001    1    1    2    0    0 -0.41859285753E-02  0.56516533024E-02  0.16849669705E-01  0.53229452625E-01  0.50000000745E-01 0.  1.
</event>
<event>
 4   0  0.6886900E-01  0.9118800E+02  0.7818609E-02  0.1379984E+01
      -11   -1    0    0    0    0  0.00000000000E+00  0.00000000000E+00  0.35740347158E-01  0.35744000000E-01  0.51099999109E-03 0. -1.
       11   -1    0    0    0    0 -0.00000000000E+00 -0.00000000000E+00 -0.35740347158E-01  0.35744000000E-01  0.51099999109E-03 0.  1.
       22    1    1    2    0    0  0.31036531666E-02 -0.22771227605E-02  0.17848154000E-01  0.18258547375E-01  0.00000000000E+00 0. -1.
  9000001    1    1    2    0    0 -0.31036531666E-02  0.22771227605E-02 -0.17848154000E-01  0.53229452625E-01  0.50000000745E-01 0.  1.
</event>
<event>
 4   0  0.6886900E-01  0.9118800E+02  0.7818609E-02  0.1379984E+01
      -11   -1    0    0    0    0  0.00000000000E+00  0.00000000000E+00  0.35740347158E-01  0.35744000000E-01  0.51099999109E-03 0.  1.
       11   -1    0    0    0    0 -0.00000000000E+00 -0.00000000000E+00 -0.35740347158E-01  0.35744000000E-01  0.51099999109E-03 0. -1.
       22    1    1    2    0    0  0.31994068464E-03  0.55525575414E-02 -0.17390839398E-01  0.18258547375E-01  0.00000000000E+00 0. -1.
  9000001    1    1    2    0    0 -0.31994068464E-03 -0.55525575414E-02  0.17390839398E-01  0.53229452625E-01  0.50000000745E-01 0.  1.
</event>
<event>
 4   0  0.6886900E-01  0.9118800E+02  0.7818609E-02  0.1379984E+01
      -11   -1    0    0    0    0  0.00000000000E+00  0.00000000000E+00  0.35740347158E-01  0.35744000000E-01  0.51099999109E-03 0. -1.
       11   -1    0    0    0    0 -0.00000000000E+00 -0.00000000000E+00 -0.35740347158E-01  0.35744000000E-01  0.51099999109E-03 0.  1.
       22    1    1    2    0    0  0.28264370728E-02 -0.32525887810E-02  0.17742786476E-01  0.18258547375E-01  0.00000000000E+00 0. -1.
  9000001    1    1    2    0    0 -0.28264370728E-02  0.32525887810E-02 -0.17742786476E-01  0.53229452625E-01  0.50000000745E-01 0.  1.
</event>
<event>
 4   0  0.6886900E-01  0.9118800E+02  0.7818609E-02  0.1379984E+01
      -11   -1    0    0    0    0  0.00000000000E+00  0.00000000000E+00  0.35740347158E-01  0.35744000000E-01  0.51099999109E-03 0.  1.
       11   -1    0    0    0    0 -0.00000000000E+00 -0.00000000000E+00 -0.35740347158E-01  0.35744000000E-01  0.51099999109E-03 0. -1.
       22    1    1    2    0    0  0.84658048710E-02  0.97796948407E-02  0.12886515004E-01  0.18258547375E-01  0.00000000000E+00 0.  1.
  9000001    1    1    2    0    0 -0.84658048710E-02 -0.97796948407E-02 -0.12886515004E-01  0.53229452625E-01  0.50000000745E-01 0. -1.
</event>
<event>
 4   0  0.6886900E-01  0.9118800E+02  0.7818609E-02  0.1379984E+01
      -11   -1    0    0    0    0  0.00000000000E+00  0.00000000000E+00  0.35740347158E-01  0.35744000000E-01  0.51099999109E-03 0. -1.
       11   -1    0    0    0    0 -0.00000000000E+00 -0.00000000000E+00 -0.35740347158E-01  0.35744000000E-01  0.51099999109E-03 0.  1.
       22    1    1    2    0    0  0.59239872829E-02  0.15015061967E-01 -0.85339815467E-02  0.18258547375E-01  0.00000000000E+00 0. -1.
  9000001    1    1    2    0    0 -0.59239872829E-02 -0.15015061967E-01  0.85339815467E-02  0.53229452625E-01  0.50000000745E-01 0.  0.
</event>
<event>
 4   0  0.6886900E-01  0.9118800E+02  0.7818609E-02  0.1379984E+01
      -11   -1    0    0    0    0  0.00000000000E+00  0.00000000000E+00  0.35740347158E-01  0.35744000000E-01  0.51099999109E-03 0. -1.
       11   -1    0    0    0    0 -0.00000000000E+00 -0.00000000000E+00 -0.35740347158E-01  0.35744000000E-01  0.51099999109E-03 0.  1.
       22    1    1    2    0    0 -0.69635770942E-02  0.16193913874E-01  0.47581823989E-02  0.18258547375E-01  0.00000000000E+00 0.  1.
  9000001    1    1    2    0    0  0.69635770942E-02 -0.16193913874E-01 -0.47581823989E-02  0.53229452625E-01  0.50000000745E-01 0.  0.
</event>
<event>
 4   0  0.6886900E-01  0.9118800E+02  0.7818609E-02  0.1379984E+01
      -11   -1    0    0    0    0  0.00000000000E+00  0.00000000000E+00  0.35740347158E-01  0.35744000000E-01  0.51099999109E-03 0. -1.
       11   -1    0    0    0    0 -0.00000000000E+00 -0.00000000000E+00 -0.35740347158E-01  0.35744000000E-01  0.51099999109E-03 0.  1.
       22    1    1    2    0    0 -0.12282473476E-01  0.69024359834E-02  0.11613430804E-01  0.18258547375E-01  0.00000000000E+00 0.  1.
  9000001    1    1    2    0    0  0.12282473476E-01 -0.69024359834E-02 -0.11613430804E-01  0.53229452625E-01  0.50000000745E-01 0.  1.
</event>
<event>
 4   0  0.6886900E-01  0.9118800E+02  0.7818609E-02  0.1379984E+01
      -11   -1    0    0    0    0  0.00000000000E+00  0.00000000000E+00  0.35740347158E-01  0.35744000000E-01  0.51099999109E-03 0.  1.
       11   -1    0    0    0    0 -0.00000000000E+00 -0.00000000000E+00 -0.35740347158E-01  0.35744000000E-01  0.51099999109E-03 0. -1.
       22    1    1    2    0    0 -0.40488618037E-02  0.61243510644E-02  0.16717463754E-01  0.18258547375E-01  0.00000000000E+00 0.  1.
  9000001    1    1    2    0    0  0.40488618037E-02 -0.61243510644E-02 -0.16717463754E-01  0.53229452625E-01  0.50000000745E-01 0. -1.
</event>
<event>
 4   0  0.6886900E-01  0.9118800E+02  0.7818609E-02  0.1379984E+01
      -11   -1    0    0    0    0  0.00000000000E+00  0.00000000000E+00  0.35740347158E-01  0.35744000000E-01  0.51099999109E-03 0. -1.
       11   -1    0    0    0    0 -0.00000000000E+00 -0.00000000000E+00 -0.35740347158E-01  0.35744000000E-01  0.51099999109E-03 0.  1.
       22    1    1    2    0    0 -0.11959480897E-01  0.10918843241E-01 -0.84335183163E-02  0.18258547375E-01  0.00000000000E+00 0. -1.
  9000001    1    1    2    0    0  0.11959480897E-01 -0.10918843241E-01  0.84335183163E-02  0.53229452625E-01  0.50000000745E-01 0.  0.
</event>
<event>
 4   0  0.6886900E-01  0.9118800E+02  0.7818609E-02  0.1379984E+01
      -11   -1    0    0    0    0  0.00000000000E+00  0.00000000000E+00  0.35740347158E-01  0.35744000000E-01  0.51099999109E-03 0. -1.
       11   -1    0    0    0    0 -0.00000000000E+00 -0.00000000000E+00 -0.35740347158E-01  0.35744000000E-01  0.51099999109E-03 0.  1.
       22    1    1    2    0    0  0.54933317230E-02  0.95202146191E-02  0.14579553232E-01  0.18258547375E-01  0.00000000000E+00 0. -1.
  9000001    1    1    2    0    0 -0.54933317230E-02 -0.95202146191E-02 -0.14579553232E-01  0.53229452625E-01  0.50000000745E-01 0.  1.
</event>
<event>
 4   0  0.6886900E-01  0.9118800E+02  0.7818609E-02  0.1379984E+01
      -11   -1    0    0    0    0  0.00000000000E+00  0.00000000000E+00  0.35740347158E-01  0.35744000000E-01  0.51099999109E-03 0.  1.
       11   -1    0    0    0    0 -0.00000000000E+00 -0.00000000000E+00 -0.35740347158E-01  0.35744000000E-01  0.51099999109E-03 0. -1.
       22    1    1    2    0    0  0.11235599698E-02  0.12671655567E-01 -0.13097377999E-01  0.18258547375E-01  0.00000000000E+00 0. -1.
  9000001    1    1    2    0    0 -0.11235599698E-02 -0.12671655567E-01  0.13097377999E-01  0.53229452625E-01  0.50000000745E-01 0.  1.
</event>
<event>
 4   0  0.6886900E-01  0.9118800E+02  0.7818609E-02  0.1379984E+01
      -11   -1    0    0    0    0  0.00000000000E+00  0.00000000000E+00  0.35740347158E-01  0.35744000000E-01  0.51099999109E-03 0. -1.
       11   -1    0    0    0    0 -0.00000000000E+00 -0.00000000000E+00 -0.35740347158E-01  0.35744000000E-01  0.51099999109E-03 0.  1.
       22    1    1    2    0    0 -0.32991361384E-02  0.25629985037E-02 -0.17774174852E-01  0.18258547375E-01  0.00000000000E+00 0.  1.
  9000001    1    1    2    0    0  0.32991361384E-02 -0.25629985037E-02  0.17774174852E-01  0.53229452625E-01  0.50000000745E-01 0. -1.
</event>
<event>
 4   0  0.6886900E-01  0.9118800E+02  0.7818609E-02  0.1379984E+01
      -11   -1    0    0    0    0  0.00000000000E+00  0.00000000000E+00  0.35740347158E-01  0.35744000000E-01  0.51099999109E-03 0. -1.
       11   -1    0    0    0    0 -0.00000000000E+00 -0.00000000000E+00 -0.35740347158E-01  0.35744000000E-01  0.51099999109E-03 0.  1.
       22    1    1    2    0    0  0.42351544738E-02  0.17715319375E-01 -0.12670746853E-02  0.18258547375E-01  0.00000000000E+00 0. -1.
  9000001    1    1    2    0    0 -0.42351544738E-02 -0.17715319375E-01  0.12670746853E-02  0.53229452625E-01  0.50000000745E-01 0.  0.
</event>
<event>
 4   0  0.6886900E-01  0.9118800E+02  0.7818609E-02  0.1379984E+01
      -11   -1    0    0    0    0  0.00000000000E+00  0.00000000000E+00  0.35740347158E-01  0.35744000000E-01  0.51099999109E-03 0. -1.
       11   -1    0    0    0    0 -0.00000000000E+00 -0.00000000000E+00 -0.35740347158E-01  0.35744000000E-01  0.51099999109E-03 0.  1.
       22    1    1    2    0    0 -0.69515152468E-02 -0.93812631331E-02  0.14037196659E-01  0.18258547375E-01  0.00000000000E+00 0. -1.
  9000001    1    1    2    0    0  0.69515152468E-02  0.93812631331E-02 -0.14037196659E-01  0.53229452625E-01  0.50000000745E-01 0.  1.
</event>
<event>
 4   0  0.6886900E-01  0.9118800E+02  0.7818609E-02  0.1379984E+01
      -11   -1    0    0    0    0  0.00000000000E+00  0.00000000000E+00  0.35740347158E-01  0.35744000000E-01  0.51099999109E-03 0.  1.
       11   -1    0    0    0    0 -0.00000000000E+00 -0.00000000000E+00 -0.35740347158E-01  0.35744000000E-01  0.51099999109E-03 0. -1.
       22    1    1    2    0    0  0.12351312710E-01  0.10668368224E-01 -0.81856915425E-02  0.18258547375E-01  0.00000000000E+00 0.  1.
  9000001    1    1    2    0    0 -0.12351312710E-01 -0.10668368224E-01  0.81856915425E-02  0.53229452625E-01  0.50000000745E-01 0.  0.
</event>
<event>
 4   0  0.6886900E-01  0.9118800E+02  0.7818609E-02  0.1379984E+01
      -11   -1    0    0    0    0  0.00000000000E+00  0.00000000000E+00  0.35740347158E-01  0.35744000000E-01  0.51099999109E-03 0.  1.
       11   -1    0    0    0    0 -0.00000000000E+00 -0.00000000000E+00 -0.35740347158E-01  0.35744000000E-01  0.51099999109E-03 0. -1.
       22    1    1    2    0    0  0.85957254543E-02 -0.10828405744E-01  0.11926176471E-01  0.18258547375E-01  0.00000000000E+00 0. -1.
  9000001    1    1    2    0    0 -0.85957254543E-02  0.10828405744E-01 -0.11926176471E-01  0.53229452625E-01  0.50000000745E-01 0. -1.
</event>
<event>
 4   0  0.6886900E-01  0.9118800E+02  0.7818609E-02  0.1379984E+01
      -11   -1    0    0    0    0  0.00000000000E+00  0.00000000000E+00  0.35740347158E-01  0.35744000000E-01  0.51099999109E-03 0. -1.
       11   -1    0    0    0    0 -0.00000000000E+00 -0.00000000000E+00 -0.35740347158E-01  0.35744000000E-01  0.51099999109E-03 0.  1.
       22    1    1    2    0    0  0.35450806090E-02 -0.66322174031E-03  0.17898801430E-01  0.18258547375E-01  0.00000000000E+00 0.  1.
  9000001    1    1    2    0    0 -0.35450806090E-02  0.66322174031E-03 -0.17898801430E-01  0.53229452625E-01  0.50000000745E-01 0.  1.
</event>
<event>
 4   0  0.6886900E-01  0.9118800E+02  0.7818609E-02  0.1379984E+01
      -11   -1    0    0    0    0  0.00000000000E+00  0.00000000000E+00  0.35740347158E-01  0.35744000000E-01  0.51099999109E-03 0.  1.
       11   -1    0    0    0    0 -0.00000000000E+00 -0.00000000000E+00 -0.35740347158E-01  0.35744000000E-01  0.51099999109E-03 0. -1.
       22    1    1    2    0    0 -0.77703776784E-02 -0.23138854957E-02 -0.16359759072E-01  0.18258547375E-01  0.00000000000E+00 0.  1.
  9000001    1    1    2    0    0  0.77703776784E-02  0.23138854957E-02  0.16359759072E-01  0.53229452625E-01  0.50000000745E-01 0.  1.
</event>
<event>
 4   0  0.6886900E-01  0.9118800E+02  0.7818609E-02  0.1379984E+01
      -11   -1    0    0    0    0  0.00000000000E+00  0.00000000000E+00  0.35740347158E-01  0.35744000000E-01  0.51099999109E-03 0.  1.
       11   -1    0    0    0    0 -0.00000000000E+00 -0.00000000000E+00 -0.35740347158E-01  0.35744000000E-01  0.51099999109E-03 0. -1.
       22    1    1    2    0    0 -0.54745391091E-02  0.10482428093E-01 -0.13911242758E-01  0.18258547375E-01  0.00000000000E+00 0. -1.
  9000001    1    1    2    0    0  0.54745391091E-02 -0.10482428093E-01  0.13911242758E-01  0.53229452625E-01  0.50000000745E-01 0.  1.
</event>
<event>
 4   0  0.6886900E-01  0.9118800E+02  0.7818609E-02  0.1379984E+01
      -11   -1    0    0    0    0  0.00000000000E+00  0.00000000000E+00  0.35740347158E-01  0.35744000000E-01  0.51099999109E-03 0. -1.
       11   -1    0    0    0    0 -0.00000000000E+00 -0.00000000000E+00 -0.35740347158E-01  0.35744000000E-01  0.51099999109E-03 0.  1.
       22    1    1    2    0    0 -0.24044436073E-02 -0.29154769914E-02 -0.17863179927E-01  0.18258547375E-01  0.00000000000E+00 0.  1.
  9000001    1    1    2    0    0  0.24044436073E-02  0.29154769914E-02  0.17863179927E-01  0.53229452625E-01  0.50000000745E-01 0. -1.
</event>
<event>
 4   0  0.6886900E-01  0.9118800E+02  0.7818609E-02  0.1379984E+01
      -11   -1    0    0    0    0  0.00000000000E+00  0.00000000000E+00  0.35740347158E-01  0.35744000000E-01  0.51099999109E-03 0.  1.
       11   -1    0    0    0    0 -0.00000000000E+00 -0.00000000000E+00 -0.35740347158E-01  0.35744000000E-01  0.51099999109E-03 0. -1.
       22    1    1    2    0    0 -0.36833766081E-02 -0.28815927965E-02 -0.17649467753E-01  0.18258547375E-01  0.00000000000E+00 0. -1.
  9000001    1    1    2    0    0  0.36833766081E-02  0.28815927965E-02  0.17649467753E-01  0.53229452625E-01  0.50000000745E-01 0.  1.
</event>
<event>
 4   0  0.6886900E-01  0.9118800E+02  0.7818609E-02  0.1379984E+01
      -11   -1    0    0    0    0  0.00000000000E+00  0.00000000000E+00  0.35740347158E-01  0.35744000000E-01  0.51099999109E-03 0. -1.
       11   -1    0    0    0    0 -0.00000000000E+00 -0.00000000000E+00 -0.35740347158E-01  0.35744000000E-01  0.51099999109E-03 0.  1.
       22    1    1    2    0    0  0.17768629563E-01 -0.99164378413E-03 -0.40825235200E-02  0.18258547375E-01  0.00000000000E+00 0.  1.
  9000001    1    1    2    0    0 -0.17768629563E-01  0.99164378413E-03  0.40825235200E-02  0.53229452625E-01  0.50000000745E-01 0.  0.
</event>
<event>
 4   0  0.6886900E-01  0.9118800E+02  0.7818609E-02  0.1379984E+01
      -11   -1    0    0    0    0  0.00000000000E+00  0.00000000000E+00  0.35740347158E-01  0.35744000000E-01  0.51099999109E-03 0.  1.
       11   -1    0    0    0    0 -0.00000000000E+00 -0.00000000000E+00 -0.35740347158E-01  0.35744000000E-01  0.51099999109E-03 0. -1.
       22    1    1    2    0    0  0.31820978180E-02 -0.48883671743E-03 -0.17972474632E-01  0.18258547375E-01  0.00000000000E+00 0. -1.
  9000001    1    1    2    0    0 -0.31820978180E-02  0.48883671743E-03  0.17972474632E-01  0.53229452625E-01  0.50000000745E-01 0.  1.
</event>
<event>
 4   0  0.6886900E-01  0.9118800E+02  0.7818609E-02  0.1379984E+01
      -11   -1    0    0    0    0  0.00000000000E+00  0.00000000000E+00  0.35740347158E-01  0.35744000000E-01  0.51099999109E-03 0. -1.
       11   -1    0    0    0    0 -0.00000000000E+00 -0.00000000000E+00 -0.35740347158E-01  0.35744000000E-01  0.51099999109E-03 0.  1.
       22    1    1    2    0    0 -0.94164758310E-02 -0.15407324118E-01 -0.27053463176E-02  0.18258547375E-01  0.00000000000E+00 0. -1.
  9000001    1    1    2    0    0  0.94164758310E-02  0.15407324118E-01  0.27053463176E-02  0.53229452625E-01  0.50000000745E-01 0.  1.
</event>
<event>
 4   0  0.6886900E-01  0.9118800E+02  0.7818609E-02  0.1379984E+01
      -11   -1    0    0    0    0  0.00000000000E+00  0.00000000000E+00  0.35740347158E-01  0.35744000000E-01  0.51099999109E-03 0.  1.
       11   -1    0    0    0    0 -0.00000000000E+00 -0.00000000000E+00 -0.35740347158E-01  0.35744000000E-01  0.51099999109E-03 0. -1.
       22    1    1    2    0    0 -0.49246298578E-03 -0.32685940152E-02 -0.17956846205E-01  0.18258547375E-01  0.00000000000E+00 0. -1.
  9000001    1    1    2    0    0  0.49246298578E-03  0.32685940152E-02  0.17956846205E-01  0.53229452625E-01  0.50000000745E-01 0.  1.
</event>
<event>
 4   0  0.6886900E-01  0.9118800E+02  0.7818609E-02  0.1379984E+01
      -11   -1    0    0    0    0  0.00000000000E+00  0.00000000000E+00  0.35740347158E-01  0.35744000000E-01  0.51099999109E-03 0. -1.
       11   -1    0    0    0    0 -0.00000000000E+00 -0.00000000000E+00 -0.35740347158E-01  0.35744000000E-01  0.51099999109E-03 0.  1.
       22    1    1    2    0    0  0.47707717746E-02  0.34481627653E-02  0.17283647256E-01  0.18258547375E-01  0.00000000000E+00 0. -1.
  9000001    1    1    2    0    0 -0.47707717746E-02 -0.34481627653E-02 -0.17283647256E-01  0.53229452625E-01  0.50000000745E-01 0.  1.
</event>
<event>
 4   0  0.6886900E-01  0.9118800E+02  0.7818609E-02  0.1379984E+01
      -11   -1    0    0    0    0  0.00000000000E+00  0.00000000000E+00  0.35740347158E-01  0.35744000000E-01  0.51099999109E-03 0.  1.
       11   -1    0    0    0    0 -0.00000000000E+00 -0.00000000000E+00 -0.35740347158E-01  0.35744000000E-01  0.51099999109E-03 0. -1.
       22    1    1    2    0    0  0.10160347693E-01  0.98784153153E-03  0.15138231604E-01  0.18258547375E-01  0.00000000000E+00 0. -1.
  9000001    1    1    2    0    0 -0.10160347693E-01 -0.98784153153E-03 -0.15138231604E-01  0.53229452625E-01  0.50000000745E-01 0. -1.
</event>
<event>
 4   0  0.6886900E-01  0.9118800E+02  0.7818609E-02  0.1379984E+01
      -11   -1    0    0    0    0  0.00000000000E+00  0.00000000000E+00  0.35740347158E-01  0.35744000000E-01  0.51099999109E-03 0.  1.
       11   -1    0    0    0    0 -0.00000000000E+00 -0.00000000000E+00 -0.35740347158E-01  0.35744000000E-01  0.51099999109E-03 0. -1.
       22    1    1    2    0    0  0.12601613496E-02 -0.11851164033E-01 -0.13832442180E-01  0.18258547375E-01  0.00000000000E+00 0.  1.
  9000001    1    1    2    0    0 -0.12601613496E-02  0.11851164033E-01  0.13832442180E-01  0.53229452625E-01  0.50000000745E-01 0.  1.
</event>
<event>
 4   0  0.6886900E-01  0.9118800E+02  0.7818609E-02  0.1379984E+01
      -11   -1    0    0    0    0  0.00000000000E+00  0.00000000000E+00  0.35740347158E-01  0.35744000000E-01  0.51099999109E-03 0.  1.
       11   -1    0    0    0    0 -0.00000000000E+00 -0.00000000000E+00 -0.35740347158E-01  0.35744000000E-01  0.51099999109E-03 0. -1.
       22    1    1    2    0    0  0.10971556806E-01 -0.44314434418E-03 -0.14587772845E-01  0.18258547375E-01  0.00000000000E+00 0. -1.
  9000001    1    1    2    0    0 -0.10971556806E-01  0.44314434418E-03  0.14587772845E-01  0.53229452625E-01  0.50000000745E-01 0.  1.
</event>
<event>
 4   0  0.6886900E-01  0.9118800E+02  0.7818609E-02  0.1379984E+01
      -11   -1    0    0    0    0  0.00000000000E+00  0.00000000000E+00  0.35740347158E-01  0.35744000000E-01  0.51099999109E-03 0. -1.
       11   -1    0    0    0    0 -0.00000000000E+00 -0.00000000000E+00 -0.35740347158E-01  0.35744000000E-01  0.51099999109E-03 0.  1.
       22    1    1    2    0    0  0.48984550137E-02 -0.26209364112E-02 -0.17392825620E-01  0.18258547375E-01  0.00000000000E+00 0.  1.
  9000001    1    1    2    0    0 -0.48984550137E-02  0.26209364112E-02  0.17392825620E-01  0.53229452625E-01  0.50000000745E-01 0. -1.
</event>
<event>
 4   0  0.6886900E-01  0.9118800E+02  0.7818609E-02  0.1379984E+01
      -11   -1    0    0    0    0  0.00000000000E+00  0.00000000000E+00  0.35740347158E-01  0.35744000000E-01  0.51099999109E-03 0. -1.
       11   -1    0    0    0    0 -0.00000000000E+00 -0.00000000000E+00 -0.35740347158E-01  0.35744000000E-01  0.51099999109E-03 0.  1.
       22    1    1    2    0    0  0.33381708108E-02  0.21703054554E-02  0.17819117321E-01  0.18258547375E-01  0.00000000000E+00 0. -1.
  9000001    1    1    2    0    0 -0.33381708108E-02 -0.21703054554E-02 -0.17819117321E-01  0.53229452625E-01  0.50000000745E-01 0.  1.
</event>
<event>
 4   0  0.6886900E-01  0.9118800E+02  0.7818609E-02  0.1379984E+01
      -11   -1    0    0    0    0  0.00000000000E+00  0.00000000000E+00  0.35740347158E-01  0.35744000000E-01  0.51099999109E-03 0. -1.
       11   -1    0    0    0    0 -0.00000000000E+00 -0.00000000000E+00 -0.35740347158E-01  0.35744000000E-01  0.51099999109E-03 0.  1.
       22    1    1    2    0    0  0.66538455653E-02 -0.47519450046E-02 -0.16325437517E-01  0.18258547375E-01  0.00000000000E+00 0.  1.
  9000001    1    1    2    0    0 -0.66538455653E-02  0.47519450046E-02  0.16325437517E-01  0.53229452625E-01  0.50000000745E-01 0. -1.
</event>
<event>
 4   0  0.6886900E-01  0.9118800E+02  0.7818609E-02  0.1379984E+01
      -11   -1    0    0    0    0  0.00000000000E+00  0.00000000000E+00  0.35740347158E-01  0.35744000000E-01  0.51099999109E-03 0.  1.
       11   -1    0    0    0    0 -0.00000000000E+00 -0.00000000000E+00 -0.35740347158E-01  0.35744000000E-01  0.51099999109E-03 0. -1.
       22    1    1    2    0    0  0.73189917263E-03 -0.51047404916E-02 -0.17515150595E-01  0.18258547375E-01  0.00000000000E+00 0. -1.
  9000001    1    1    2    0    0 -0.73189917263E-03  0.51047404916E-02  0.17515150595E-01  0.53229452625E-01  0.50000000745E-01 0.  1.
</event>
<event>
 4   0  0.6886900E-01  0.9118800E+02  0.7818609E-02  0.1379984E+01
      -11   -1    0    0    0    0  0.00000000000E+00  0.00000000000E+00  0.35740347158E-01  0.35744000000E-01  0.51099999109E-03 0. -1.
       11   -1    0    0    0    0 -0.00000000000E+00 -0.00000000000E+00 -0.35740347158E-01  0.35744000000E-01  0.51099999109E-03 0.  1.
       22    1    1    2    0    0  0.29697826217E-02  0.17476931183E-01 -0.43717067445E-02  0.18258547375E-01  0.00000000000E+00 0.  1.
  9000001    1    1    2    0    0 -0.29697826217E-02 -0.17476931183E-01  0.43717067445E-02  0.53229452625E-01  0.50000000745E-01 0.  0.
</event>
<event>
 4   0  0.6886900E-01  0.9118800E+02  0.7818609E-02  0.1379984E+01
      -11   -1    0    0    0    0  0.00000000000E+00  0.00000000000E+00  0.35740347158E-01  0.35744000000E-01  0.51099999109E-03 0.  1.
       11   -1    0    0    0    0 -0.00000000000E+00 -0.00000000000E+00 -0.35740347158E-01  0.35744000000E-01  0.51099999109E-03 0. -1.
       22    1    1    2    0    0  0.40775022662E-02  0.25598459364E-02  0.17612373954E-01  0.18258547375E-01  0.00000000000E+00 0.  1.
  9000001    1    1    2    0    0 -0.40775022662E-02 -0.25598459364E-02 -0.17612373954E-01  0.53229452625E-01  0.50000000745E-01 0. -1.
</event>
<event>
 4   0  0.6886900E-01  0.9118800E+02  0.7818609E-02  0.1379984E+01
      -11   -1    0    0    0    0  0.00000000000E+00  0.00000000000E+00  0.35740347158E-01  0.35744000000E-01  0.51099999109E-03 0. -1.
       11   -1    0    0    0    0 -0.00000000000E+00 -0.00000000000E+00 -0.35740347158E-01  0.35744000000E-01  0.51099999109E-03 0.  1.
       22    1    1    2    0    0 -0.12523264210E-01  0.94740634676E-02  0.93158213370E-02  0.18258547375E-01  0.00000000000E+00 0.  1.
  9000001    1    1    2    0    0  0.12523264210E-01 -0.94740634676E-02 -0.93158213370E-02  0.53229452625E-01  0.50000000745E-01 0.  0.
</event>
<event>
 4   0  0.6886900E-01  0.9118800E+02  0.7818609E-02  0.1379984E+01
      -11   -1    0    0    0    0  0.00000000000E+00  0.00000000000E+00  0.35740347158E-01  0.35744000000E-01  0.51099999109E-03 0. -1.
       11   -1    0    0    0    0 -0.00000000000E+00 -0.00000000000E+00 -0.35740347158E-01  0.35744000000E-01  0.51099999109E-03 0.  1.
       22    1    1    2    0    0 -0.11777071951E-01 -0.37310830794E-03  0.13947613369E-01  0.18258547375E-01  0.00000000000E+00 0. -1.
  9000001    1    1    2    0    0  0.11777071951E-01  0.37310830794E-03 -0.13947613369E-01  0.53229452625E-01  0.50000000745E-01 0.  1.
</event>
<event>
 4   0  0.6886900E-01  0.9118800E+02  0.7818609E-02  0.1379984E+01
      -11   -1    0    0    0    0  0.00000000000E+00  0.00000000000E+00  0.35740347158E-01  0.35744000000E-01  0.51099999109E-03 0. -1.
       11   -1    0    0    0    0 -0.00000000000E+00 -0.00000000000E+00 -0.35740347158E-01  0.35744000000E-01  0.51099999109E-03 0.  1.
       22    1    1    2    0    0  0.10107507771E-01  0.11302590080E-01 -0.10171740087E-01  0.18258547375E-01  0.00000000000E+00 0. -1.
  9000001    1    1    2    0    0 -0.10107507771E-01 -0.11302590080E-01  0.10171740087E-01  0.53229452625E-01  0.50000000745E-01 0.  0.
</event>
<event>
 4   0  0.6886900E-01  0.9118800E+02  0.7818609E-02  0.1379984E+01
      -11   -1    0    0    0    0  0.00000000000E+00  0.00000000000E+00  0.35740347158E-01  0.35744000000E-01  0.51099999109E-03 0.  1.
       11   -1    0    0    0    0 -0.00000000000E+00 -0.00000000000E+00 -0.35740347158E-01  0.35744000000E-01  0.51099999109E-03 0. -1.
       22    1    1    2    0    0  0.14139559443E-01  0.13519290072E-02  0.11472562876E-01  0.18258547375E-01  0.00000000000E+00 0.  1.
  9000001    1    1    2    0    0 -0.14139559443E-01 -0.13519290072E-02 -0.11472562876E-01  0.53229452625E-01  0.50000000745E-01 0. -1.
</event>
<event>
 4   0  0.6886900E-01  0.9118800E+02  0.7818609E-02  0.1379984E+01
      -11   -1    0    0    0    0  0.00000000000E+00  0.00000000000E+00  0.35740347158E-01  0.35744000000E-01  0.51099999109E-03 0.  1.
       11   -1    0    0    0    0 -0.00000000000E+00 -0.00000000000E+00 -0.35740347158E-01  0.35744000000E-01  0.51099999109E-03 0. -1.
       22    1    1    2    0    0  0.12144797939E-01  0.13567796429E-01  0.13391547029E-02  0.18258547375E-01  0.00000000000E+00 0. -1.
  9000001    1    1    2    0    0 -0.12144797939E-01 -0.13567796429E-01 -0.13391547029E-02  0.53229452625E-01  0.50000000745E-01 0.  1.
</event>
<event>
 4   0  0.6886900E-01  0.9118800E+02  0.7818609E-02  0.1379984E+01
      -11   -1    0    0    0    0  0.00000000000E+00  0.00000000000E+00  0.35740347158E-01  0.35744000000E-01  0.51099999109E-03 0.  1.
       11   -1    0    0    0    0 -0.00000000000E+00 -0.00000000000E+00 -0.35740347158E-01  0.35744000000E-01  0.51099999109E-03 0. -1.
       22    1    1    2    0    0 -0.50854092932E-02 -0.37215197451E-02 -0.17136611548E-01  0.18258547375E-01  0.00000000000E+00 0. -1.
  9000001    1    1    2    0    0  0.50854092932E-02  0.37215197451E-02  0.17136611548E-01  0.53229452625E-01  0.50000000745E-01 0.  1.
</event>
<event>
 4   0  0.6886900E-01  0.9118800E+02  0.7818609E-02  0.1379984E+01
      -11   -1    0    0    0    0  0.00000000000E+00  0.00000000000E+00  0.35740347158E-01  0.35744000000E-01  0.51099999109E-03 0. -1.
       11   -1    0    0    0    0 -0.00000000000E+00 -0.00000000000E+00 -0.35740347158E-01  0.35744000000E-01  0.51099999109E-03 0.  1.
       22    1    1    2    0    0 -0.56994843333E-02  0.20314802439E-02  0.17226825552E-01  0.18258547375E-01  0.00000000000E+00 0. -1.
  9000001    1    1    2    0    0  0.56994843333E-02 -0.20314802439E-02 -0.17226825552E-01  0.53229452625E-01  0.50000000745E-01 0.  1.
</event>
<event>
 4   0  0.6886900E-01  0.9118800E+02  0.7818609E-02  0.1379984E+01
      -11   -1    0    0    0    0  0.00000000000E+00  0.00000000000E+00  0.35740347158E-01  0.35744000000E-01  0.51099999109E-03 0. -1.
       11   -1    0    0    0    0 -0.00000000000E+00 -0.00000000000E+00 -0.35740347158E-01  0.35744000000E-01  0.51099999109E-03 0.  1.
       22    1    1    2    0    0 -0.31159771525E-02  0.74657578565E-03 -0.17975201340E-01  0.18258547375E-01  0.00000000000E+00 0.  1.
  9000001    1    1    2    0    0  0.31159771525E-02 -0.74657578565E-03  0.17975201340E-01  0.53229452625E-01  0.50000000745E-01 0. -1.
</event>
<event>
 4   0  0.6886900E-01  0.9118800E+02  0.7818609E-02  0.1379984E+01
      -11   -1    0    0    0    0  0.00000000000E+00  0.00000000000E+00  0.35740347158E-01  0.35744000000E-01  0.51099999109E-03 0.  1.
       11   -1    0    0    0    0 -0.00000000000E+00 -0.00000000000E+00 -0.35740347158E-01  0.35744000000E-01  0.51099999109E-03 0. -1.
       22    1    1    2    0    0  0.21374160645E-02  0.60474907293E-02  0.17094848952E-01  0.18258547375E-01  0.00000000000E+00 0.  1.
  9000001    1    1    2    0    0 -0.21374160645E-02 -0.60474907293E-02 -0.17094848952E-01  0.53229452625E-01  0.50000000745E-01 0. -1.
</event>
<event>
 4   0  0.6886900E-01  0.9118800E+02  0.7818609E-02  0.1379984E+01
      -11   -1    0    0    0    0  0.00000000000E+00  0.00000000000E+00  0.35740347158E-01  0.35744000000E-01  0.51099999109E-03 0.  1.
       11   -1    0    0    0    0 -0.00000000000E+00 -0.00000000000E+00 -0.35740347158E-01  0.35744000000E-01  0.51099999109E-03 0. -1.
       22    1    1    2    0    0 -0.56365440507E-02 -0.75452470416E-02 -0.15642032173E-01  0.18258547375E-01  0.00000000000E+00 0. -1.
  9000001    1    1    2    0    0  0.56365440507E-02  0.75452470416E-02  0.15642032173E-01  0.53229452625E-01  0.50000000745E-01 0.  1.
</event>
<event>
 4   0  0.6886900E-01  0.9118800E+02  0.7818609E-02  0.1379984E+01
      -11   -1    0    0    0    0  0.00000000000E+00  0.00000000000E+00  0.35740347158E-01  0.35744000000E-01  0.51099999109E-03 0.  1.
       11   -1    0    0    0    0 -0.00000000000E+00 -0.00000000000E+00 -0.35740347158E-01  0.35744000000E-01  0.51099999109E-03 0. -1.
       22    1    1    2    0    0  0.38855904112E-02  0.42973794994E-02  0.17315001266E-01  0.18258547375E-01  0.00000000000E+00 0.  1.
  9000001    1    1    2    0    0 -0.38855904112E-02 -0.42973794994E-02 -0.17315001266E-01  0.53229452625E-01  0.50000000745E-01 0. -1.
</event>
<event>
 4   0  0.6886900E-01  0.9118800E+02  0.7818609E-02  0.1379984E+01
      -11   -1    0    0    0    0  0.00000000000E+00  0.00000000000E+00  0.35740347158E-01  0.35744000000E-01  0.51099999109E-03 0. -1.
       11   -1    0    0    0    0 -0.00000000000E+00 -0.00000000000E+00 -0.35740347158E-01  0.35744000000E-01  0.51099999109E-03 0.  1.
       22    1    1    2    0    0 -0.12066336495E-01  0.13295269322E-01  0.33187180530E-02  0.18258547375E-01  0.00000000000E+00 0. -1.
  9000001    1    1    2    0    0  0.12066336495E-01 -0.13295269322E-01 -0.33187180530E-02  0.53229452625E-01  0.50000000745E-01 0.  1.
</event>
<event>
 4   0  0.6886900E-01  0.9118800E+02  0.7818609E-02  0.1379984E+01
      -11   -1    0    0    0    0  0.00000000000E+00  0.00000000000E+00  0.35740347158E-01  0.35744000000E-01  0.51099999109E-03 0. -1.
       11   -1    0    0    0    0 -0.00000000000E+00 -0.00000000000E+00 -0.35740347158E-01  0.35744000000E-01  0.51099999109E-03 0.  1.
       22    1    1    2    0    0  0.17920140260E-01 -0.25583607875E-04 -0.34989242313E-02  0.18258547375E-01  0.00000000000E+00 0. -1.
  9000001    1    1    2    0    0 -0.17920140260E-01  0.25583607875E-04  0.34989242313E-02  0.53229452625E-01  0.50000000745E-01 0.  1.
</event>
<event>
 4   0  0.6886900E-01  0.9118800E+02  0.7818609E-02  0.1379984E+01
      -11   -1    0    0    0    0  0.00000000000E+00  0.00000000000E+00  0.35740347158E-01  0.35744000000E-01  0.51099999109E-03 0.  1.
       11   -1    0    0    0    0 -0.00000000000E+00 -0.00000000000E+00 -0.35740347158E-01  0.35744000000E-01  0.51099999109E-03 0. -1.
       22    1    1    2    0    0 -0.49429881770E-02  0.60337987884E-02  0.16508624786E-01  0.18258547375E-01  0.00000000000E+00 0.  1.
  9000001    1    1    2    0    0  0.49429881770E-02 -0.60337987884E-02 -0.16508624786E-01  0.53229452625E-01  0.50000000745E-01 0. -1.
</event>
<event>
 4   0  0.6886900E-01  0.9118800E+02  0.7818609E-02  0.1379984E+01
      -11   -1    0    0    0    0  0.00000000000E+00  0.00000000000E+00  0.35740347158E-01  0.35744000000E-01  0.51099999109E-03 0. -1.
       11   -1    0    0    0    0 -0.00000000000E+00 -0.00000000000E+00 -0.35740347158E-01  0.35744000000E-01  0.51099999109E-03 0.  1.
       22    1    1    2    0    0  0.13289793991E-01 -0.64564176138E-02 -0.10727096509E-01  0.18258547375E-01  0.00000000000E+00 0.  1.
  9000001    1    1    2    0    0 -0.13289793991E-01  0.64564176138E-02  0.10727096509E-01  0.53229452625E-01  0.50000000745E-01 0. -1.
</event>
<event>
 4   0  0.6886900E-01  0.9118800E+02  0.7818609E-02  0.1379984E+01
      -11   -1    0    0    0    0  0.00000000000E+00  0.00000000000E+00  0.35740347158E-01  0.35744000000E-01  0.51099999109E-03 0. -1.
       11   -1    0    0    0    0 -0.00000000000E+00 -0.00000000000E+00 -0.35740347158E-01  0.35744000000E-01  0.51099999109E-03 0.  1.
       22    1    1    2    0    0 -0.60402068894E-02 -0.16401520095E-02 -0.17152269656E-01  0.18258547375E-01  0.00000000000E+00 0. -1.
  9000001    1    1    2    0    0  0.60402068894E-02  0.16401520095E-02  0.17152269656E-01  0.53229452625E-01  0.50000000745E-01 0. -1.
</event>
<event>
 4   0  0.6886900E-01  0.9118800E+02  0.7818609E-02  0.1379984E+01
      -11   -1    0    0    0    0  0.00000000000E+00  0.00000000000E+00  0.35740347158E-01  0.35744000000E-01  0.51099999109E-03 0.  1.
       11   -1    0    0    0    0 -0.00000000000E+00 -0.00000000000E+00 -0.35740347158E-01  0.35744000000E-01  0.51099999109E-03 0. -1.
       22    1    1    2    0    0 -0.52468672341E-02 -0.12521758776E-01  0.12208623741E-01  0.18258547375E-01  0.00000000000E+00 0. -1.
  9000001    1    1    2    0    0  0.52468672341E-02  0.12521758776E-01 -0.12208623741E-01  0.53229452625E-01  0.50000000745E-01 0. -1.
</event>
<event>
 4   0  0.6886900E-01  0.9118800E+02  0.7818609E-02  0.1379984E+01
      -11   -1    0    0    0    0  0.00000000000E+00  0.00000000000E+00  0.35740347158E-01  0.35744000000E-01  0.51099999109E-03 0. -1.
       11   -1    0    0    0    0 -0.00000000000E+00 -0.00000000000E+00 -0.35740347158E-01  0.35744000000E-01  0.51099999109E-03 0.  1.
       22    1    1    2    0    0 -0.12026061698E-01  0.65395303299E-02 -0.12082339812E-01  0.18258547375E-01  0.00000000000E+00 0. -1.
  9000001    1    1    2    0    0  0.12026061698E-01 -0.65395303299E-02  0.12082339812E-01  0.53229452625E-01  0.50000000745E-01 0.  1.
</event>
<event>
 4   0  0.6886900E-01  0.9118800E+02  0.7818609E-02  0.1379984E+01
      -11   -1    0    0    0    0  0.00000000000E+00  0.00000000000E+00  0.35740347158E-01  0.35744000000E-01  0.51099999109E-03 0. -1.
       11   -1    0    0    0    0 -0.00000000000E+00 -0.00000000000E+00 -0.35740347158E-01  0.35744000000E-01  0.51099999109E-03 0.  1.
       22    1    1    2    0    0  0.42731698368E-02  0.31917216667E-02 -0.17462172963E-01  0.18258547375E-01  0.00000000000E+00 0.  1.
  9000001    1    1    2    0    0 -0.42731698368E-02 -0.31917216667E-02  0.17462172963E-01  0.53229452625E-01  0.50000000745E-01 0. -1.
</event>
<event>
 4   0  0.6886900E-01  0.9118800E+02  0.7818609E-02  0.1379984E+01
      -11   -1    0    0    0    0  0.00000000000E+00  0.00000000000E+00  0.35740347158E-01  0.35744000000E-01  0.51099999109E-03 0.  1.
       11   -1    0    0    0    0 -0.00000000000E+00 -0.00000000000E+00 -0.35740347158E-01  0.35744000000E-01  0.51099999109E-03 0. -1.
       22    1    1    2    0    0  0.78232394513E-02 -0.31510029080E-02 -0.16193908034E-01  0.18258547375E-01  0.00000000000E+00 0. -1.
  9000001    1    1    2    0    0 -0.78232394513E-02  0.31510029080E-02  0.16193908034E-01  0.53229452625E-01  0.50000000745E-01 0.  1.
</event>
<event>
 4   0  0.6886900E-01  0.9118800E+02  0.7818609E-02  0.1379984E+01
      -11   -1    0    0    0    0  0.00000000000E+00  0.00000000000E+00  0.35740347158E-01  0.35744000000E-01  0.51099999109E-03 0.  1.
       11   -1    0    0    0    0 -0.00000000000E+00 -0.00000000000E+00 -0.35740347158E-01  0.35744000000E-01  0.51099999109E-03 0. -1.
       22    1    1    2    0    0  0.81231834381E-02  0.16901855962E-02 -0.16264430999E-01  0.18258547375E-01  0.00000000000E+00 0.  1.
  9000001    1    1    2    0    0 -0.81231834381E-02 -0.16901855962E-02  0.16264430999E-01  0.53229452625E-01  0.50000000745E-01 0.  1.
</event>
<event>
 4   0  0.6886900E-01  0.9118800E+02  0.7818609E-02  0.1379984E+01
      -11   -1    0    0    0    0  0.00000000000E+00  0.00000000000E+00  0.35740347158E-01  0.35744000000E-01  0.51099999109E-03 0. -1.
       11   -1    0    0    0    0 -0.00000000000E+00 -0.00000000000E+00 -0.35740347158E-01  0.35744000000E-01  0.51099999109E-03 0.  1.
       22    1    1    2    0    0 -0.63393212786E-02 -0.13551840278E-02 -0.17069008004E-01  0.18258547375E-01  0.00000000000E+00 0. -1.
  9000001    1    1    2    0    0  0.63393212786E-02  0.13551840278E-02  0.17069008004E-01  0.53229452625E-01  0.50000000745E-01 0.  0.
</event>
<event>
 4   0  0.6886900E-01  0.9118800E+02  0.7818609E-02  0.1379984E+01
      -11   -1    0    0    0    0  0.00000000000E+00  0.00000000000E+00  0.35740347158E-01  0.35744000000E-01  0.51099999109E-03 0. -1.
       11   -1    0    0    0    0 -0.00000000000E+00 -0.00000000000E+00 -0.35740347158E-01  0.35744000000E-01  0.51099999109E-03 0.  1.
       22    1    1    2    0    0  0.48760404433E-02  0.27008075772E-02  0.17386903700E-01  0.18258547375E-01  0.00000000000E+00 0. -1.
  9000001    1    1    2    0    0 -0.48760404433E-02 -0.27008075772E-02 -0.17386903700E-01  0.53229452625E-01  0.50000000745E-01 0.  1.
</event>
<event>
 4   0  0.6886900E-01  0.9118800E+02  0.7818609E-02  0.1379984E+01
      -11   -1    0    0    0    0  0.00000000000E+00  0.00000000000E+00  0.35740347158E-01  0.35744000000E-01  0.51099999109E-03 0. -1.
       11   -1    0    0    0    0 -0.00000000000E+00 -0.00000000000E+00 -0.35740347158E-01  0.35744000000E-01  0.51099999109E-03 0.  1.
       22    1    1    2    0    0  0.11129193269E-01 -0.14357984234E-01 -0.18340932846E-02  0.18258547375E-01  0.00000000000E+00 0. -1.
  9000001    1    1    2    0    0 -0.11129193269E-01  0.14357984234E-01  0.18340932846E-02  0.53229452625E-01  0.50000000745E-01 0.  0.
</event>
<event>
 4   0  0.6886900E-01  0.9118800E+02  0.7818609E-02  0.1379984E+01
      -11   -1    0    0    0    0  0.00000000000E+00  0.00000000000E+00  0.35740347158E-01  0.35744000000E-01  0.51099999109E-03 0. -1.
       11   -1    0    0    0    0 -0.00000000000E+00 -0.00000000000E+00 -0.35740347158E-01  0.35744000000E-01  0.51099999109E-03 0.  1.
       22    1    1    2    0    0  0.10073339261E-01 -0.14972350219E-01  0.27804886792E-02  0.18258547375E-01  0.00000000000E+00 0.  1.
  9000001    1    1    2    0    0 -0.10073339261E-01  0.14972350219E-01 -0.27804886792E-02  0.53229452625E-01  0.50000000745E-01 0.  1.
</event>
<event>
 4   0  0.6886900E-01  0.9118800E+02  0.7818609E-02  0.1379984E+01
      -11   -1    0    0    0    0  0.00000000000E+00  0.00000000000E+00  0.35740347158E-01  0.35744000000E-01  0.51099999109E-03 0.  1.
       11   -1    0    0    0    0 -0.00000000000E+00 -0.00000000000E+00 -0.35740347158E-01  0.35744000000E-01  0.51099999109E-03 0. -1.
       22    1    1    2    0    0 -0.12436720580E-01 -0.10370841896E-01 -0.84349375722E-02  0.18258547375E-01  0.00000000000E+00 0.  1.
  9000001    1    1    2    0    0  0.12436720580E-01  0.10370841896E-01  0.84349375722E-02  0.53229452625E-01  0.50000000745E-01 0. -1.
</event>
<event>
 4   0  0.6886900E-01  0.9118800E+02  0.7818609E-02  0.1379984E+01
      -11   -1    0    0    0    0  0.00000000000E+00  0.00000000000E+00  0.35740347158E-01  0.35744000000E-01  0.51099999109E-03 0. -1.
       11   -1    0    0    0    0 -0.00000000000E+00 -0.00000000000E+00 -0.35740347158E-01  0.35744000000E-01  0.51099999109E-03 0.  1.
       22    1    1    2    0    0 -0.66314853636E-02 -0.77588678336E-02 -0.15139284133E-01  0.18258547375E-01  0.00000000000E+00 0.  1.
  9000001    1    1    2    0    0  0.66314853636E-02  0.77588678336E-02  0.15139284133E-01  0.53229452625E-01  0.50000000745E-01 0. -1.
</event>
<event>
 4   0  0.6886900E-01  0.9118800E+02  0.7818609E-02  0.1379984E+01
      -11   -1    0    0    0    0  0.00000000000E+00  0.00000000000E+00  0.35740347158E-01  0.35744000000E-01  0.51099999109E-03 0. -1.
       11   -1    0    0    0    0 -0.00000000000E+00 -0.00000000000E+00 -0.35740347158E-01  0.35744000000E-01  0.51099999109E-03 0.  1.
       22    1    1    2    0    0 -0.69550105627E-02 -0.16057414525E-01  0.52117002106E-02  0.18258547375E-01  0.00000000000E+00 0. -1.
  9000001    1    1    2    0    0  0.69550105627E-02  0.16057414525E-01 -0.52117002106E-02  0.53229452625E-01  0.50000000745E-01 0.  1.
</event>
<event>
 4   0  0.6886900E-01  0.9118800E+02  0.7818609E-02  0.1379984E+01
      -11   -1    0    0    0    0  0.00000000000E+00  0.00000000000E+00  0.35740347158E-01  0.35744000000E-01  0.51099999109E-03 0.  1.
       11   -1    0    0    0    0 -0.00000000000E+00 -0.00000000000E+00 -0.35740347158E-01  0.35744000000E-01  0.51099999109E-03 0. -1.
       22    1    1    2    0    0 -0.60487091251E-02 -0.16781202712E-01  0.38960115142E-02  0.18258547375E-01  0.00000000000E+00 0. -1.
  9000001    1    1    2    0    0  0.60487091251E-02  0.16781202712E-01 -0.38960115142E-02  0.53229452625E-01  0.50000000745E-01 0.  0.
</event>
<event>
 4   0  0.6886900E-01  0.9118800E+02  0.7818609E-02  0.1379984E+01
      -11   -1    0    0    0    0  0.00000000000E+00  0.00000000000E+00  0.35740347158E-01  0.35744000000E-01  0.51099999109E-03 0.  1.
       11   -1    0    0    0    0 -0.00000000000E+00 -0.00000000000E+00 -0.35740347158E-01  0.35744000000E-01  0.51099999109E-03 0. -1.
       22    1    1    2    0    0  0.32286436663E-02  0.16624527530E-01  0.68246242917E-02  0.18258547375E-01  0.00000000000E+00 0. -1.
  9000001    1    1    2    0    0 -0.32286436663E-02 -0.16624527530E-01 -0.68246242917E-02  0.53229452625E-01  0.50000000745E-01 0. -1.
</event>
<event>
 4   0  0.6886900E-01  0.9118800E+02  0.7818609E-02  0.1379984E+01
      -11   -1    0    0    0    0  0.00000000000E+00  0.00000000000E+00  0.35740347158E-01  0.35744000000E-01  0.51099999109E-03 0. -1.
       11   -1    0    0    0    0 -0.00000000000E+00 -0.00000000000E+00 -0.35740347158E-01  0.35744000000E-01  0.51099999109E-03 0.  1.
       22    1    1    2    0    0 -0.18823908860E-02 -0.46365686389E-02 -0.17559424480E-01  0.18258547375E-01  0.00000000000E+00 0.  1.
  9000001    1    1    2    0    0  0.18823908860E-02  0.46365686389E-02  0.17559424480E-01  0.53229452625E-01  0.50000000745E-01 0. -1.
</event>
<event>
 4   0  0.6886900E-01  0.9118800E+02  0.7818609E-02  0.1379984E+01
      -11   -1    0    0    0    0  0.00000000000E+00  0.00000000000E+00  0.35740347158E-01  0.35744000000E-01  0.51099999109E-03 0. -1.
       11   -1    0    0    0    0 -0.00000000000E+00 -0.00000000000E+00 -0.35740347158E-01  0.35744000000E-01  0.51099999109E-03 0.  1.
       22    1    1    2    0    0  0.72421437417E-02  0.15819161513E-01  0.55389561571E-02  0.18258547375E-01  0.00000000000E+00 0.  1.
  9000001    1    1    2    0    0 -0.72421437417E-02 -0.15819161513E-01 -0.55389561571E-02  0.53229452625E-01  0.50000000745E-01 0.  1.
</event>
<event>
 4   0  0.6886900E-01  0.9118800E+02  0.7818609E-02  0.1379984E+01
      -11   -1    0    0    0    0  0.00000000000E+00  0.00000000000E+00  0.35740347158E-01  0.35744000000E-01  0.51099999109E-03 0. -1.
       11   -1    0    0    0    0 -0.00000000000E+00 -0.00000000000E+00 -0.35740347158E-01  0.35744000000E-01  0.51099999109E-03 0.  1.
       22    1    1    2    0    0 -0.44486435015E-02 -0.36117269395E-02  0.17336076596E-01  0.18258547375E-01  0.00000000000E+00 0. -1.
  9000001    1    1    2    0    0  0.44486435015E-02  0.36117269395E-02 -0.17336076596E-01  0.53229452625E-01  0.50000000745E-01 0.  1.
</event>
<event>
 4   0  0.6886900E-01  0.9118800E+02  0.7818609E-02  0.1379984E+01
      -11   -1    0    0    0    0  0.00000000000E+00  0.00000000000E+00  0.35740347158E-01  0.35744000000E-01  0.51099999109E-03 0. -1.
       11   -1    0    0    0    0 -0.00000000000E+00 -0.00000000000E+00 -0.35740347158E-01  0.35744000000E-01  0.51099999109E-03 0.  1.
       22    1    1    2    0    0 -0.27295338141E-02 -0.14357199271E-02  0.17996191422E-01  0.18258547375E-01  0.00000000000E+00 0. -1.
  9000001    1    1    2    0    0  0.27295338141E-02  0.14357199271E-02 -0.17996191422E-01  0.53229452625E-01  0.50000000745E-01 0.  1.
</event>
<event>
 4   0  0.6886900E-01  0.9118800E+02  0.7818609E-02  0.1379984E+01
      -11   -1    0    0    0    0  0.00000000000E+00  0.00000000000E+00  0.35740347158E-01  0.35744000000E-01  0.51099999109E-03 0.  1.
       11   -1    0    0    0    0 -0.00000000000E+00 -0.00000000000E+00 -0.35740347158E-01  0.35744000000E-01  0.51099999109E-03 0. -1.
       22    1    1    2    0    0 -0.33521799352E-02  0.79734663826E-02  0.16079840664E-01  0.18258547375E-01  0.00000000000E+00 0.  1.
  9000001    1    1    2    0    0  0.33521799352E-02 -0.79734663826E-02 -0.16079840664E-01  0.53229452625E-01  0.50000000745E-01 0. -1.
</event>
<event>
 4   0  0.6886900E-01  0.9118800E+02  0.7818609E-02  0.1379984E+01
      -11   -1    0    0    0    0  0.00000000000E+00  0.00000000000E+00  0.35740347158E-01  0.35744000000E-01  0.51099999109E-03 0.  1.
       11   -1    0    0    0    0 -0.00000000000E+00 -0.00000000000E+00 -0.35740347158E-01  0.35744000000E-01  0.51099999109E-03 0. -1.
       22    1    1    2    0    0  0.60229435184E-03  0.55188408513E-02 -0.17394084897E-01  0.18258547375E-01  0.00000000000E+00 0. -1.
  9000001    1    1    2    0    0 -0.60229435184E-03 -0.55188408513E-02  0.17394084897E-01  0.53229452625E-01  0.50000000745E-01 0.  1.
</event>
<event>
 4   0  0.6886900E-01  0.9118800E+02  0.7818609E-02  0.1379984E+01
      -11   -1    0    0    0    0  0.00000000000E+00  0.00000000000E+00  0.35740347158E-01  0.35744000000E-01  0.51099999109E-03 0. -1.
       11   -1    0    0    0    0 -0.00000000000E+00 -0.00000000000E+00 -0.35740347158E-01  0.35744000000E-01  0.51099999109E-03 0.  1.
       22    1    1    2    0    0 -0.16504392328E-02  0.90398981280E-02  0.15777542408E-01  0.18258547375E-01  0.00000000000E+00 0.  1.
  9000001    1    1    2    0    0  0.16504392328E-02 -0.90398981280E-02 -0.15777542408E-01  0.53229452625E-01  0.50000000745E-01 0.  0.
</event>
<event>
 4   0  0.6886900E-01  0.9118800E+02  0.7818609E-02  0.1379984E+01
      -11   -1    0    0    0    0  0.00000000000E+00  0.00000000000E+00  0.35740347158E-01  0.35744000000E-01  0.51099999109E-03 0.  1.
       11   -1    0    0    0    0 -0.00000000000E+00 -0.00000000000E+00 -0.35740347158E-01  0.35744000000E-01  0.51099999109E-03 0. -1.
       22    1    1    2    0    0  0.30498592207E-02 -0.17988531980E-01 -0.69687028646E-03  0.18258547375E-01  0.00000000000E+00 0. -1.
  9000001    1    1    2    0    0 -0.30498592207E-02  0.17988531980E-01  0.69687028646E-03  0.53229452625E-01  0.50000000745E-01 0.  1.
</event>
<event>
 4   0  0.6886900E-01  0.9118800E+02  0.7818609E-02  0.1379984E+01
      -11   -1    0    0    0    0  0.00000000000E+00  0.00000000000E+00  0.35740347158E-01  0.35744000000E-01  0.51099999109E-03 0. -1.
       11   -1    0    0    0    0 -0.00000000000E+00 -0.00000000000E+00 -0.35740347158E-01  0.35744000000E-01  0.51099999109E-03 0.  1.
       22    1    1    2    0    0 -0.64305041348E-02  0.15449072780E-01  0.73040618184E-02  0.18258547375E-01  0.00000000000E+00 0. -1.
  9000001    1    1    2    0    0  0.64305041348E-02 -0.15449072780E-01 -0.73040618184E-02  0.53229452625E-01  0.50000000745E-01 0.  0.
</event>
<event>
 4   0  0.6886900E-01  0.9118800E+02  0.7818609E-02  0.1379984E+01
      -11   -1    0    0    0    0  0.00000000000E+00  0.00000000000E+00  0.35740347158E-01  0.35744000000E-01  0.51099999109E-03 0. -1.
       11   -1    0    0    0    0 -0.00000000000E+00 -0.00000000000E+00 -0.35740347158E-01  0.35744000000E-01  0.51099999109E-03 0.  1.
       22    1    1    2    0    0  0.12389212023E-01 -0.64540097013E-02 -0.11757029236E-01  0.18258547375E-01  0.00000000000E+00 0. -1.
  9000001    1    1    2    0    0 -0.12389212023E-01  0.64540097013E-02  0.11757029236E-01  0.53229452625E-01  0.50000000745E-01 0.  0.
</event>
<event>
 4   0  0.6886900E-01  0.9118800E+02  0.7818609E-02  0.1379984E+01
      -11   -1    0    0    0    0  0.00000000000E+00  0.00000000000E+00  0.35740347158E-01  0.35744000000E-01  0.51099999109E-03 0.  1.
       11   -1    0    0    0    0 -0.00000000000E+00 -0.00000000000E+00 -0.35740347158E-01  0.35744000000E-01  0.51099999109E-03 0. -1.
       22    1    1    2    0    0  0.61288251942E-02  0.76080888197E-02  0.15424948574E-01  0.18258547375E-01  0.00000000000E+00 0. -1.
  9000001    1    1    2    0    0 -0.61288251942E-02 -0.76080888197E-02 -0.15424948574E-01  0.53229452625E-01  0.50000000745E-01 0. -1.
</event>
<event>
 4   0  0.6886900E-01  0.9118800E+02  0.7818609E-02  0.1379984E+01
      -11   -1    0    0    0    0  0.00000000000E+00  0.00000000000E+00  0.35740347158E-01  0.35744000000E-01  0.51099999109E-03 0. -1.
       11   -1    0    0    0    0 -0.00000000000E+00 -0.00000000000E+00 -0.35740347158E-01  0.35744000000E-01  0.51099999109E-03 0.  1.
       22    1    1    2    0    0 -0.12439376887E-01  0.13321301634E-01 -0.10859915720E-02  0.18258547375E-01  0.00000000000E+00 0. -1.
  9000001    1    1    2    0    0  0.12439376887E-01 -0.13321301634E-01  0.10859915720E-02  0.53229452625E-01  0.50000000745E-01 0.  1.
</event>
<event>
 4   0  0.6886900E-01  0.9118800E+02  0.7818609E-02  0.1379984E+01
      -11   -1    0    0    0    0  0.00000000000E+00  0.00000000000E+00  0.35740347158E-01  0.35744000000E-01  0.51099999109E-03 0.  1.
       11   -1    0    0    0    0 -0.00000000000E+00 -0.00000000000E+00 -0.35740347158E-01  0.35744000000E-01  0.51099999109E-03 0. -1.
       22    1    1    2    0    0  0.82873905685E-02  0.47152560398E-02 -0.15571129384E-01  0.18258547375E-01  0.00000000000E+00 0. -1.
  9000001    1    1    2    0    0 -0.82873905685E-02 -0.47152560398E-02  0.15571129384E-01  0.53229452625E-01  0.50000000745E-01 0.  1.
</event>
<event>
 4   0  0.6886900E-01  0.9118800E+02  0.7818609E-02  0.1379984E+01
      -11   -1    0    0    0    0  0.00000000000E+00  0.00000000000E+00  0.35740347158E-01  0.35744000000E-01  0.51099999109E-03 0. -1.
       11   -1    0    0    0    0 -0.00000000000E+00 -0.00000000000E+00 -0.35740347158E-01  0.35744000000E-01  0.51099999109E-03 0.  1.
       22    1    1    2    0    0 -0.62292522163E-02 -0.10277697999E-01  0.13745540837E-01  0.18258547375E-01  0.00000000000E+00 0. -1.
  9000001    1    1    2    0    0  0.62292522163E-02  0.10277697999E-01 -0.13745540837E-01  0.53229452625E-01  0.50000000745E-01 0.  1.
</event>
<event>
 4   0  0.6886900E-01  0.9118800E+02  0.7818609E-02  0.1379984E+01
      -11   -1    0    0    0    0  0.00000000000E+00  0.00000000000E+00  0.35740347158E-01  0.35744000000E-01  0.51099999109E-03 0.  1.
       11   -1    0    0    0    0 -0.00000000000E+00 -0.00000000000E+00 -0.35740347158E-01  0.35744000000E-01  0.51099999109E-03 0. -1.
       22    1    1    2    0    0  0.41250997548E-02  0.11762334273E-02 -0.17747523184E-01  0.18258547375E-01  0.00000000000E+00 0. -1.
  9000001    1    1    2    0    0 -0.41250997548E-02 -0.11762334273E-02  0.17747523184E-01  0.53229452625E-01  0.50000000745E-01 0.  1.
</event>
<event>
 4   0  0.6886900E-01  0.9118800E+02  0.7818609E-02  0.1379984E+01
      -11   -1    0    0    0    0  0.00000000000E+00  0.00000000000E+00  0.35740347158E-01  0.35744000000E-01  0.51099999109E-03 0.  1.
       11   -1    0    0    0    0 -0.00000000000E+00 -0.00000000000E+00 -0.35740347158E-01  0.35744000000E-01  0.51099999109E-03 0. -1.
       22    1    1    2    0    0  0.13205509743E-01 -0.70560210568E-02  0.10449958446E-01  0.18258547375E-01  0.00000000000E+00 0.  1.
  9000001    1    1    2    0    0 -0.13205509743E-01  0.70560210568E-02 -0.10449958446E-01  0.53229452625E-01  0.50000000745E-01 0. -1.
</event>
<event>
 4   0  0.6886900E-01  0.9118800E+02  0.7818609E-02  0.1379984E+01
      -11   -1    0    0    0    0  0.00000000000E+00  0.00000000000E+00  0.35740347158E-01  0.35744000000E-01  0.51099999109E-03 0.  1.
       11   -1    0    0    0    0 -0.00000000000E+00 -0.00000000000E+00 -0.35740347158E-01  0.35744000000E-01  0.51099999109E-03 0. -1.
       22    1    1    2    0    0  0.21735045687E-02  0.17990452690E-01  0.22347353609E-02  0.18258547375E-01  0.00000000000E+00 0.  1.
  9000001    1    1    2    0    0 -0.21735045687E-02 -0.17990452690E-01 -0.22347353609E-02  0.53229452625E-01  0.50000000745E-01 0.  0.
</event>
<event>
 4   0  0.6886900E-01  0.9118800E+02  0.7818609E-02  0.1379984E+01
      -11   -1    0    0    0    0  0.00000000000E+00  0.00000000000E+00  0.35740347158E-01  0.35744000000E-01  0.51099999109E-03 0.  1.
       11   -1    0    0    0    0 -0.00000000000E+00 -0.00000000000E+00 -0.35740347158E-01  0.35744000000E-01  0.51099999109E-03 0. -1.
       22    1    1    2    0    0 -0.27504233605E-02  0.14230766435E-02  0.17994015018E-01  0.18258547375E-01  0.00000000000E+00 0. -1.
  9000001    1    1    2    0    0  0.27504233605E-02 -0.14230766435E-02 -0.17994015018E-01  0.53229452625E-01  0.50000000745E-01 0. -1.
</event>
<event>
 4   0  0.6886900E-01  0.9118800E+02  0.7818609E-02  0.1379984E+01
      -11   -1    0    0    0    0  0.00000000000E+00  0.00000000000E+00  0.35740347158E-01  0.35744000000E-01  0.51099999109E-03 0.  1.
       11   -1    0    0    0    0 -0.00000000000E+00 -0.00000000000E+00 -0.35740347158E-01  0.35744000000E-01  0.51099999109E-03 0. -1.
       22    1    1    2    0    0  0.93218786669E-03 -0.16663012578E-01  0.74060508956E-02  0.18258547375E-01  0.00000000000E+00 0.  1.
  9000001    1    1    2    0    0 -0.93218786669E-03  0.16663012578E-01 -0.74060508956E-02  0.53229452625E-01  0.50000000745E-01 0. -1.
</event>
<event>
 4   0  0.6886900E-01  0.9118800E+02  0.7818609E-02  0.1379984E+01
      -11   -1    0    0    0    0  0.00000000000E+00  0.00000000000E+00  0.35740347158E-01  0.35744000000E-01  0.51099999109E-03 0.  1.
       11   -1    0    0    0    0 -0.00000000000E+00 -0.00000000000E+00 -0.35740347158E-01  0.35744000000E-01  0.51099999109E-03 0. -1.
       22    1    1    2    0    0 -0.12850341229E-01 -0.49547718056E-02  0.11987223152E-01  0.18258547375E-01  0.00000000000E+00 0.  1.
  9000001    1    1    2    0    0  0.12850341229E-01  0.49547718056E-02 -0.11987223152E-01  0.53229452625E-01  0.50000000745E-01 0. -1.
</event>
<event>
 4   0  0.6886900E-01  0.9118800E+02  0.7818609E-02  0.1379984E+01
      -11   -1    0    0    0    0  0.00000000000E+00  0.00000000000E+00  0.35740347158E-01  0.35744000000E-01  0.51099999109E-03 0. -1.
       11   -1    0    0    0    0 -0.00000000000E+00 -0.00000000000E+00 -0.35740347158E-01  0.35744000000E-01  0.51099999109E-03 0.  1.
       22    1    1    2    0    0 -0.19488640881E-02 -0.90222634140E-02  0.15753578765E-01  0.18258547375E-01  0.00000000000E+00 0. -1.
  9000001    1    1    2    0    0  0.19488640881E-02  0.90222634140E-02 -0.15753578765E-01  0.53229452625E-01  0.50000000745E-01 0.  1.
</event>
<event>
 4   0  0.6886900E-01  0.9118800E+02  0.7818609E-02  0.1379984E+01
      -11   -1    0    0    0    0  0.00000000000E+00  0.00000000000E+00  0.35740347158E-01  0.35744000000E-01  0.51099999109E-03 0.  1.
       11   -1    0    0    0    0 -0.00000000000E+00 -0.00000000000E+00 -0.35740347158E-01  0.35744000000E-01  0.51099999109E-03 0. -1.
       22    1    1    2    0    0 -0.22419116984E-02  0.47580555500E-02 -0.17484544363E-01  0.18258547375E-01  0.00000000000E+00 0. -1.
  9000001    1    1    2    0    0  0.22419116984E-02 -0.47580555500E-02  0.17484544363E-01  0.53229452625E-01  0.50000000745E-01 0.  1.
</event>
<event>
 4   0  0.6886900E-01  0.9118800E+02  0.7818609E-02  0.1379984E+01
      -11   -1    0    0    0    0  0.00000000000E+00  0.00000000000E+00  0.35740347158E-01  0.35744000000E-01  0.51099999109E-03 0.  1.
       11   -1    0    0    0    0 -0.00000000000E+00 -0.00000000000E+00 -0.35740347158E-01  0.35744000000E-01  0.51099999109E-03 0. -1.
       22    1    1    2    0    0 -0.64451976009E-02 -0.20104224637E-02  0.16964438737E-01  0.18258547375E-01  0.00000000000E+00 0.  1.
  9000001    1    1    2    0    0  0.64451976009E-02  0.20104224637E-02 -0.16964438737E-01  0.53229452625E-01  0.50000000745E-01 0. -1.
</event>
<event>
 4   0  0.6886900E-01  0.9118800E+02  0.7818609E-02  0.1379984E+01
      -11   -1    0    0    0    0  0.00000000000E+00  0.00000000000E+00  0.35740347158E-01  0.35744000000E-01  0.51099999109E-03 0. -1.
       11   -1    0    0    0    0 -0.00000000000E+00 -0.00000000000E+00 -0.35740347158E-01  0.35744000000E-01  0.51099999109E-03 0.  1.
       22    1    1    2    0    0 -0.11888869116E-01 -0.36500483621E-02 -0.13368114689E-01  0.18258547375E-01  0.00000000000E+00 0.  1.
  9000001    1    1    2    0    0  0.11888869116E-01  0.36500483621E-02  0.13368114689E-01  0.53229452625E-01  0.50000000745E-01 0. -1.
</event>
<event>
 4   0  0.6886900E-01  0.9118800E+02  0.7818609E-02  0.1379984E+01
      -11   -1    0    0    0    0  0.00000000000E+00  0.00000000000E+00  0.35740347158E-01  0.35744000000E-01  0.51099999109E-03 0.  1.
       11   -1    0    0    0    0 -0.00000000000E+00 -0.00000000000E+00 -0.35740347158E-01  0.35744000000E-01  0.51099999109E-03 0. -1.
       22    1    1    2    0    0 -0.42963460642E-02 -0.47577367099E-02  0.17096195604E-01  0.18258547375E-01  0.00000000000E+00 0.  1.
  9000001    1    1    2    0    0  0.42963460642E-02  0.47577367099E-02 -0.17096195604E-01  0.53229452625E-01  0.50000000745E-01 0. -1.
</event>
<event>
 4   0  0.6886900E-01  0.9118800E+02  0.7818609E-02  0.1379984E+01
      -11   -1    0    0    0    0  0.00000000000E+00  0.00000000000E+00  0.35740347158E-01  0.35744000000E-01  0.51099999109E-03 0. -1.
       11   -1    0    0    0    0 -0.00000000000E+00 -0.00000000000E+00 -0.35740347158E-01  0.35744000000E-01  0.51099999109E-03 0.  1.
       22    1    1    2    0    0 -0.85541390318E-02  0.12996996844E-01 -0.95540217034E-02  0.18258547375E-01  0.00000000000E+00 0.  1.
  9000001    1    1    2    0    0  0.85541390318E-02 -0.12996996844E-01  0.95540217034E-02  0.53229452625E-01  0.50000000745E-01 0. -1.
</event>
<event>
 4   0  0.6886900E-01  0.9118800E+02  0.7818609E-02  0.1379984E+01
      -11   -1    0    0    0    0  0.00000000000E+00  0.00000000000E+00  0.35740347158E-01  0.35744000000E-01  0.51099999109E-03 0. -1.
       11   -1    0    0    0    0 -0.00000000000E+00 -0.00000000000E+00 -0.35740347158E-01  0.35744000000E-01  0.51099999109E-03 0.  1.
       22    1    1    2    0    0 -0.82426019014E-02  0.31671130557E-02  0.15981347285E-01  0.18258547375E-01  0.00000000000E+00 0.  1.
  9000001    1    1    2    0    0  0.82426019014E-02 -0.31671130557E-02 -0.15981347285E-01  0.53229452625E-01  0.50000000745E-01 0.  0.
</event>
<event>
 4   0  0.6886900E-01  0.9118800E+02  0.7818609E-02  0.1379984E+01
      -11   -1    0    0    0    0  0.00000000000E+00  0.00000000000E+00  0.35740347158E-01  0.35744000000E-01  0.51099999109E-03 0.  1.
       11   -1    0    0    0    0 -0.00000000000E+00 -0.00000000000E+00 -0.35740347158E-01  0.35744000000E-01  0.51099999109E-03 0. -1.
       22    1    1    2    0    0 -0.80439551436E-02 -0.37835201774E-02  0.15948489363E-01  0.18258547375E-01  0.00000000000E+00 0.  1.
  9000001    1    1    2    0    0  0.80439551436E-02  0.37835201774E-02 -0.15948489363E-01  0.53229452625E-01  0.50000000745E-01 0. -1.
</event>
<event>
 4   0  0.6886900E-01  0.9118800E+02  0.7818609E-02  0.1379984E+01
      -11   -1    0    0    0    0  0.00000000000E+00  0.00000000000E+00  0.35740347158E-01  0.35744000000E-01  0.51099999109E-03 0.  1.
       11   -1    0    0    0    0 -0.00000000000E+00 -0.00000000000E+00 -0.35740347158E-01  0.35744000000E-01  0.51099999109E-03 0. -1.
       22    1    1    2    0    0 -0.97300196681E-02  0.54666723339E-03 -0.15440285763E-01  0.18258547375E-01  0.00000000000E+00 0.  1.
  9000001    1    1    2    0    0  0.97300196681E-02 -0.54666723339E-03  0.15440285763E-01  0.53229452625E-01  0.50000000745E-01 0.  0.
</event>
<event>
 4   0  0.6886900E-01  0.9118800E+02  0.7818609E-02  0.1379984E+01
      -11   -1    0    0    0    0  0.00000000000E+00  0.00000000000E+00  0.35740347158E-01  0.35744000000E-01  0.51099999109E-03 0.  1.
       11   -1    0    0    0    0 -0.00000000000E+00 -0.00000000000E+00 -0.35740347158E-01  0.35744000000E-01  0.51099999109E-03 0. -1.
       22    1    1    2    0    0 -0.46364178439E-02  0.67513380234E-03 -0.17647163403E-01  0.18258547375E-01  0.00000000000E+00 0. -1.
  9000001    1    1    2    0    0  0.46364178439E-02 -0.67513380234E-03  0.17647163403E-01  0.53229452625E-01  0.50000000745E-01 0.  1.
</event>
<event>
 4   0  0.6886900E-01  0.9118800E+02  0.7818609E-02  0.1379984E+01
      -11   -1    0    0    0    0  0.00000000000E+00  0.00000000000E+00  0.35740347158E-01  0.35744000000E-01  0.51099999109E-03 0. -1.
       11   -1    0    0    0    0 -0.00000000000E+00 -0.00000000000E+00 -0.35740347158E-01  0.35744000000E-01  0.51099999109E-03 0.  1.
       22    1    1    2    0    0  0.39015111913E-02 -0.74644850163E-02  0.16199821793E-01  0.18258547375E-01  0.00000000000E+00 0. -1.
  9000001    1    1    2    0    0 -0.39015111913E-02  0.74644850163E-02 -0.16199821793E-01  0.53229452625E-01  0.50000000745E-01 0.  1.
</event>
<event>
 4   0  0.6886900E-01  0.9118800E+02  0.7818609E-02  0.1379984E+01
      -11   -1    0    0    0    0  0.00000000000E+00  0.00000000000E+00  0.35740347158E-01  0.35744000000E-01  0.51099999109E-03 0. -1.
       11   -1    0    0    0    0 -0.00000000000E+00 -0.00000000000E+00 -0.35740347158E-01  0.35744000000E-01  0.51099999109E-03 0.  1.
       22    1    1    2    0    0 -0.73897683206E-02  0.70774144223E-02  0.15122039595E-01  0.18258547375E-01  0.00000000000E+00 0. -1.
  9000001    1    1    2    0    0  0.73897683206E-02 -0.70774144223E-02 -0.15122039595E-01  0.53229452625E-01  0.50000000745E-01 0.  1.
</event>
<event>
 4   0  0.6886900E-01  0.9118800E+02  0.7818609E-02  0.1379984E+01
      -11   -1    0    0    0    0  0.00000000000E+00  0.00000000000E+00  0.35740347158E-01  0.35744000000E-01  0.51099999109E-03 0.  1.
       11   -1    0    0    0    0 -0.00000000000E+00 -0.00000000000E+00 -0.35740347158E-01  0.35744000000E-01  0.51099999109E-03 0. -1.
       22    1    1    2    0    0 -0.14492103786E-01 -0.46891072810E-02  0.10068056068E-01  0.18258547375E-01  0.00000000000E+00 0.  1.
  9000001    1    1    2    0    0  0.14492103786E-01  0.46891072810E-02 -0.10068056068E-01  0.53229452625E-01  0.50000000745E-01 0. -1.
</event>
<event>
 4   0  0.6886900E-01  0.9118800E+02  0.7818609E-02  0.1379984E+01
      -11   -1    0    0    0    0  0.00000000000E+00  0.00000000000E+00  0.35740347158E-01  0.35744000000E-01  0.51099999109E-03 0.  1.
       11   -1    0    0    0    0 -0.00000000000E+00 -0.00000000000E+00 -0.35740347158E-01  0.35744000000E-01  0.51099999109E-03 0. -1.
       22    1    1    2    0    0 -0.16270930924E-01  0.82229316423E-02 -0.10073501403E-02  0.18258547375E-01  0.00000000000E+00 0.  1.
  9000001    1    1    2    0    0  0.16270930924E-01 -0.82229316423E-02  0.10073501403E-02  0.53229452625E-01  0.50000000745E-01 0.  0.
</event>
<event>
 4   0  0.6886900E-01  0.9118800E+02  0.7818609E-02  0.1379984E+01
      -11   -1    0    0    0    0  0.00000000000E+00  0.00000000000E+00  0.35740347158E-01  0.35744000000E-01  0.51099999109E-03 0.  1.
       11   -1    0    0    0    0 -0.00000000000E+00 -0.00000000000E+00 -0.35740347158E-01  0.35744000000E-01  0.51099999109E-03 0. -1.
       22    1    1    2    0    0 -0.18183553048E-01 -0.10503892219E-02  0.12765709091E-02  0.18258547375E-01  0.00000000000E+00 0.  1.
  9000001    1    1    2    0    0  0.18183553048E-01  0.10503892219E-02 -0.12765709091E-02  0.53229452625E-01  0.50000000745E-01 0.  0.
</event>
<event>
 4   0  0.6886900E-01  0.9118800E+02  0.7818609E-02  0.1379984E+01
      -11   -1    0    0    0    0  0.00000000000E+00  0.00000000000E+00  0.35740347158E-01  0.35744000000E-01  0.51099999109E-03 0.  1.
       11   -1    0    0    0    0 -0.00000000000E+00 -0.00000000000E+00 -0.35740347158E-01  0.35744000000E-01  0.51099999109E-03 0. -1.
       22    1    1    2    0    0 -0.35580502702E-02  0.40176442824E-02 -0.17452030396E-01  0.18258547375E-01  0.00000000000E+00 0.  1.
  9000001    1    1    2    0    0  0.35580502702E-02 -0.40176442824E-02  0.17452030396E-01  0.53229452625E-01  0.50000000745E-01 0.  1.
</event>
<event>
 4   0  0.6886900E-01  0.9118800E+02  0.7818609E-02  0.1379984E+01
      -11   -1    0    0    0    0  0.00000000000E+00  0.00000000000E+00  0.35740347158E-01  0.35744000000E-01  0.51099999109E-03 0.  1.
       11   -1    0    0    0    0 -0.00000000000E+00 -0.00000000000E+00 -0.35740347158E-01  0.35744000000E-01  0.51099999109E-03 0. -1.
       22    1    1    2    0    0 -0.40929024614E-02 -0.10480544025E-01  0.14379878255E-01  0.18258547375E-01  0.00000000000E+00 0.  1.
  9000001    1    1    2    0    0  0.40929024614E-02  0.10480544025E-01 -0.14379878255E-01  0.53229452625E-01  0.50000000745E-01 0. -1.
</event>
<event>
 4   0  0.6886900E-01  0.9118800E+02  0.7818609E-02  0.1379984E+01
      -11   -1    0    0    0    0  0.00000000000E+00  0.00000000000E+00  0.35740347158E-01  0.35744000000E-01  0.51099999109E-03 0.  1.
       11   -1    0    0    0    0 -0.00000000000E+00 -0.00000000000E+00 -0.35740347158E-01  0.35744000000E-01  0.51099999109E-03 0. -1.
       22    1    1    2    0    0  0.61963589671E-02  0.40817047874E-02  0.16682906636E-01  0.18258547375E-01  0.00000000000E+00 0.  1.
  9000001    1    1    2    0    0 -0.61963589671E-02 -0.40817047874E-02 -0.16682906636E-01  0.53229452625E-01  0.50000000745E-01 0. -1.
</event>
<event>
 4   0  0.6886900E-01  0.9118800E+02  0.7818609E-02  0.1379984E+01
      -11   -1    0    0    0    0  0.00000000000E+00  0.00000000000E+00  0.35740347158E-01  0.35744000000E-01  0.51099999109E-03 0. -1.
       11   -1    0    0    0    0 -0.00000000000E+00 -0.00000000000E+00 -0.35740347158E-01  0.35744000000E-01  0.51099999109E-03 0.  1.
       22    1    1    2    0    0 -0.16259866182E-01 -0.42696055011E-02 -0.71247296700E-02  0.18258547375E-01  0.00000000000E+00 0.  1.
  9000001    1    1    2    0    0  0.16259866182E-01  0.42696055011E-02  0.71247296700E-02  0.53229452625E-01  0.50000000745E-01 0.  0.
</event>
<event>
 4   0  0.6886900E-01  0.9118800E+02  0.7818609E-02  0.1379984E+01
      -11   -1    0    0    0    0  0.00000000000E+00  0.00000000000E+00  0.35740347158E-01  0.35744000000E-01  0.51099999109E-03 0.  1.
       11   -1    0    0    0    0 -0.00000000000E+00 -0.00000000000E+00 -0.35740347158E-01  0.35744000000E-01  0.51099999109E-03 0. -1.
       22    1    1    2    0    0  0.25458037404E-02  0.16334303372E-02 -0.18006258381E-01  0.18258547375E-01  0.00000000000E+00 0. -1.
  9000001    1    1    2    0    0 -0.25458037404E-02 -0.16334303372E-02  0.18006258381E-01  0.53229452625E-01  0.50000000745E-01 0.  1.
</event>
<event>
 4   0  0.6886900E-01  0.9118800E+02  0.7818609E-02  0.1379984E+01
      -11   -1    0    0    0    0  0.00000000000E+00  0.00000000000E+00  0.35740347158E-01  0.35744000000E-01  0.51099999109E-03 0.  1.
       11   -1    0    0    0    0 -0.00000000000E+00 -0.00000000000E+00 -0.35740347158E-01  0.35744000000E-01  0.51099999109E-03 0. -1.
       22    1    1    2    0    0  0.27766537095E-02 -0.22393906024E-02 -0.17906699198E-01  0.18258547375E-01  0.00000000000E+00 0. -1.
  9000001    1    1    2    0    0 -0.27766537095E-02  0.22393906024E-02  0.17906699198E-01  0.53229452625E-01  0.50000000745E-01 0.  1.
</event>
<event>
 4   0  0.6886900E-01  0.9118800E+02  0.7818609E-02  0.1379984E+01
      -11   -1    0    0    0    0  0.00000000000E+00  0.00000000000E+00  0.35740347158E-01  0.35744000000E-01  0.51099999109E-03 0. -1.
       11   -1    0    0    0    0 -0.00000000000E+00 -0.00000000000E+00 -0.35740347158E-01  0.35744000000E-01  0.51099999109E-03 0.  1.
       22    1    1    2    0    0  0.64616211701E-02  0.36926520411E-02  0.16672921910E-01  0.18258547375E-01  0.00000000000E+00 0. -1.
  9000001    1    1    2    0    0 -0.64616211701E-02 -0.36926520411E-02 -0.16672921910E-01  0.53229452625E-01  0.50000000745E-01 0.  1.
</event>
<event>
 4   0  0.6886900E-01  0.9118800E+02  0.7818609E-02  0.1379984E+01
      -11   -1    0    0    0    0  0.00000000000E+00  0.00000000000E+00  0.35740347158E-01  0.35744000000E-01  0.51099999109E-03 0. -1.
       11   -1    0    0    0    0 -0.00000000000E+00 -0.00000000000E+00 -0.35740347158E-01  0.35744000000E-01  0.51099999109E-03 0.  1.
       22    1    1    2    0    0 -0.46230244772E-02 -0.12853298753E-01  0.12115894853E-01  0.18258547375E-01  0.00000000000E+00 0.  1.
  9000001    1    1    2    0    0  0.46230244772E-02  0.12853298753E-01 -0.12115894853E-01  0.53229452625E-01  0.50000000745E-01 0. -1.
</event>
<event>
 4   0  0.6886900E-01  0.9118800E+02  0.7818609E-02  0.1379984E+01
      -11   -1    0    0    0    0  0.00000000000E+00  0.00000000000E+00  0.35740347158E-01  0.35744000000E-01  0.51099999109E-03 0. -1.
       11   -1    0    0    0    0 -0.00000000000E+00 -0.00000000000E+00 -0.35740347158E-01  0.35744000000E-01  0.51099999109E-03 0.  1.
       22    1    1    2    0    0 -0.94782654671E-03  0.10830195740E-01 -0.14669118492E-01  0.18258547375E-01  0.00000000000E+00 0.  1.
  9000001    1    1    2    0    0  0.94782654671E-03 -0.10830195740E-01  0.14669118492E-01  0.53229452625E-01  0.50000000745E-01 0. -1.
</event>
<event>
 4   0  0.6886900E-01  0.9118800E+02  0.7818609E-02  0.1379984E+01
      -11   -1    0    0    0    0  0.00000000000E+00  0.00000000000E+00  0.35740347158E-01  0.35744000000E-01  0.51099999109E-03 0.  1.
       11   -1    0    0    0    0 -0.00000000000E+00 -0.00000000000E+00 -0.35740347158E-01  0.35744000000E-01  0.51099999109E-03 0. -1.
       22    1    1    2    0    0  0.17472459177E-02 -0.50487936120E-02 -0.17459420581E-01  0.18258547375E-01  0.00000000000E+00 0. -1.
  9000001    1    1    2    0    0 -0.17472459177E-02  0.50487936120E-02  0.17459420581E-01  0.53229452625E-01  0.50000000745E-01 0.  1.
</event>
<event>
 4   0  0.6886900E-01  0.9118800E+02  0.7818609E-02  0.1379984E+01
      -11   -1    0    0    0    0  0.00000000000E+00  0.00000000000E+00  0.35740347158E-01  0.35744000000E-01  0.51099999109E-03 0. -1.
       11   -1    0    0    0    0 -0.00000000000E+00 -0.00000000000E+00 -0.35740347158E-01  0.35744000000E-01  0.51099999109E-03 0.  1.
       22    1    1    2    0    0  0.11277978997E-01 -0.15444672250E-02  0.14275726355E-01  0.18258547375E-01  0.00000000000E+00 0. -1.
  9000001    1    1    2    0    0 -0.11277978997E-01  0.15444672250E-02 -0.14275726355E-01  0.53229452625E-01  0.50000000745E-01 0.  1.
</event>
<event>
 4   0  0.6886900E-01  0.9118800E+02  0.7818609E-02  0.1379984E+01
      -11   -1    0    0    0    0  0.00000000000E+00  0.00000000000E+00  0.35740347158E-01  0.35744000000E-01  0.51099999109E-03 0.  1.
       11   -1    0    0    0    0 -0.00000000000E+00 -0.00000000000E+00 -0.35740347158E-01  0.35744000000E-01  0.51099999109E-03 0. -1.
       22    1    1    2    0    0 -0.79824911146E-02  0.20972528159E-02  0.16286679173E-01  0.18258547375E-01  0.00000000000E+00 0.  1.
  9000001    1    1    2    0    0  0.79824911146E-02 -0.20972528159E-02 -0.16286679173E-01  0.53229452625E-01  0.50000000745E-01 0. -1.
</event>
<event>
 4   0  0.6886900E-01  0.9118800E+02  0.7818609E-02  0.1379984E+01
      -11   -1    0    0    0    0  0.00000000000E+00  0.00000000000E+00  0.35740347158E-01  0.35744000000E-01  0.51099999109E-03 0.  1.
       11   -1    0    0    0    0 -0.00000000000E+00 -0.00000000000E+00 -0.35740347158E-01  0.35744000000E-01  0.51099999109E-03 0. -1.
       22    1    1    2    0    0 -0.77346268370E-02  0.93205635769E-02 -0.13662986297E-01  0.18258547375E-01  0.00000000000E+00 0. -1.
  9000001    1    1    2    0    0  0.77346268370E-02 -0.93205635769E-02  0.13662986297E-01  0.53229452625E-01  0.50000000745E-01 0.  1.
</event>
<event>
 4   0  0.6886900E-01  0.9118800E+02  0.7818609E-02  0.1379984E+01
      -11   -1    0    0    0    0  0.00000000000E+00  0.00000000000E+00  0.35740347158E-01  0.35744000000E-01  0.51099999109E-03 0. -1.
       11   -1    0    0    0    0 -0.00000000000E+00 -0.00000000000E+00 -0.35740347158E-01  0.35744000000E-01  0.51099999109E-03 0.  1.
       22    1    1    2    0    0 -0.58067863646E-02  0.45228075484E-03  0.17304659098E-01  0.18258547375E-01  0.00000000000E+00 0. -1.
  9000001    1    1    2    0    0  0.58067863646E-02 -0.45228075484E-03 -0.17304659098E-01  0.53229452625E-01  0.50000000745E-01 0.  1.
</event>
<event>
 4   0  0.6886900E-01  0.9118800E+02  0.7818609E-02  0.1379984E+01
      -11   -1    0    0    0    0  0.00000000000E+00  0.00000000000E+00  0.35740347158E-01  0.35744000000E-01  0.51099999109E-03 0. -1.
       11   -1    0    0    0    0 -0.00000000000E+00 -0.00000000000E+00 -0.35740347158E-01  0.35744000000E-01  0.51099999109E-03 0.  1.
       22    1    1    2    0    0 -0.46500154924E-02  0.76180199943E-03  0.17640055722E-01  0.18258547375E-01  0.00000000000E+00 0.  1.
  9000001    1    1    2    0    0  0.46500154924E-02 -0.76180199943E-03 -0.17640055722E-01  0.53229452625E-01  0.50000000745E-01 0.  1.
</event>
<event>
 4   0  0.6886900E-01  0.9118800E+02  0.7818609E-02  0.1379984E+01
      -11   -1    0    0    0    0  0.00000000000E+00  0.00000000000E+00  0.35740347158E-01  0.35744000000E-01  0.51099999109E-03 0. -1.
       11   -1    0    0    0    0 -0.00000000000E+00 -0.00000000000E+00 -0.35740347158E-01  0.35744000000E-01  0.51099999109E-03 0.  1.
       22    1    1    2    0    0 -0.17540291362E-01  0.21295717541E-03  0.50662984934E-02  0.18258547375E-01  0.00000000000E+00 0.  1.
  9000001    1    1    2    0    0  0.17540291362E-01 -0.21295717541E-03 -0.50662984934E-02  0.53229452625E-01  0.50000000745E-01 0.  1.
</event>
<event>
 4   0  0.6886900E-01  0.9118800E+02  0.7818609E-02  0.1379984E+01
      -11   -1    0    0    0    0  0.00000000000E+00  0.00000000000E+00  0.35740347158E-01  0.35744000000E-01  0.51099999109E-03 0. -1.
       11   -1    0    0    0    0 -0.00000000000E+00 -0.00000000000E+00 -0.35740347158E-01  0.35744000000E-01  0.51099999109E-03 0.  1.
       22    1    1    2    0    0  0.39727073932E-02 -0.81940019086E-03  0.17802267595E-01  0.18258547375E-01  0.00000000000E+00 0.  1.
  9000001    1    1    2    0    0 -0.39727073932E-02  0.81940019086E-03 -0.17802267595E-01  0.53229452625E-01  0.50000000745E-01 0.  1.
</event>
<event>
 4   0  0.6886900E-01  0.9118800E+02  0.7818609E-02  0.1379984E+01
      -11   -1    0    0    0    0  0.00000000000E+00  0.00000000000E+00  0.35740347158E-01  0.35744000000E-01  0.51099999109E-03 0. -1.
       11   -1    0    0    0    0 -0.00000000000E+00 -0.00000000000E+00 -0.35740347158E-01  0.35744000000E-01  0.51099999109E-03 0.  1.
       22    1    1    2    0    0  0.97984915554E-03  0.43872464570E-02 -0.17696511419E-01  0.18258547375E-01  0.00000000000E+00 0.  1.
  9000001    1    1    2    0    0 -0.97984915554E-03 -0.43872464570E-02  0.17696511419E-01  0.53229452625E-01  0.50000000745E-01 0. -1.
</event>
<event>
 4   0  0.6886900E-01  0.9118800E+02  0.7818609E-02  0.1379984E+01
      -11   -1    0    0    0    0  0.00000000000E+00  0.00000000000E+00  0.35740347158E-01  0.35744000000E-01  0.51099999109E-03 0. -1.
       11   -1    0    0    0    0 -0.00000000000E+00 -0.00000000000E+00 -0.35740347158E-01  0.35744000000E-01  0.51099999109E-03 0.  1.
       22    1    1    2    0    0  0.17313714367E-03 -0.32670823755E-02  0.17963038399E-01  0.18258547375E-01  0.00000000000E+00 0. -1.
  9000001    1    1    2    0    0 -0.17313714367E-03  0.32670823755E-02 -0.17963038399E-01  0.53229452625E-01  0.50000000745E-01 0.  1.
</event>
<event>
 4   0  0.6886900E-01  0.9118800E+02  0.7818609E-02  0.1379984E+01
      -11   -1    0    0    0    0  0.00000000000E+00  0.00000000000E+00  0.35740347158E-01  0.35744000000E-01  0.51099999109E-03 0. -1.
       11   -1    0    0    0    0 -0.00000000000E+00 -0.00000000000E+00 -0.35740347158E-01  0.35744000000E-01  0.51099999109E-03 0.  1.
       22    1    1    2    0    0  0.60188474657E-02  0.15773676135E-01  0.69526375296E-02  0.18258547375E-01  0.00000000000E+00 0.  1.
  9000001    1    1    2    0    0 -0.60188474657E-02 -0.15773676135E-01 -0.69526375296E-02  0.53229452625E-01  0.50000000745E-01 0. -1.
</event>
<event>
 4   0  0.6886900E-01  0.9118800E+02  0.7818609E-02  0.1379984E+01
      -11   -1    0    0    0    0  0.00000000000E+00  0.00000000000E+00  0.35740347158E-01  0.35744000000E-01  0.51099999109E-03 0. -1.
       11   -1    0    0    0    0 -0.00000000000E+00 -0.00000000000E+00 -0.35740347158E-01  0.35744000000E-01  0.51099999109E-03 0.  1.
       22    1    1    2    0    0  0.12886933560E-01 -0.18569962684E-03  0.12933174835E-01  0.18258547375E-01  0.00000000000E+00 0. -1.
  9000001    1    1    2    0    0 -0.12886933560E-01  0.18569962684E-03 -0.12933174835E-01  0.53229452625E-01  0.50000000745E-01 0.  1.
</event>
<event>
 4   0  0.6886900E-01  0.9118800E+02  0.7818609E-02  0.1379984E+01
      -11   -1    0    0    0    0  0.00000000000E+00  0.00000000000E+00  0.35740347158E-01  0.35744000000E-01  0.51099999109E-03 0. -1.
       11   -1    0    0    0    0 -0.00000000000E+00 -0.00000000000E+00 -0.35740347158E-01  0.35744000000E-01  0.51099999109E-03 0.  1.
       22    1    1    2    0    0 -0.88789062203E-03  0.36561109472E-02 -0.17866702416E-01  0.18258547375E-01  0.00000000000E+00 0.  1.
  9000001    1    1    2    0    0  0.88789062203E-03 -0.36561109472E-02  0.17866702416E-01  0.53229452625E-01  0.50000000745E-01 0. -1.
</event>
<event>
 4   0  0.6886900E-01  0.9118800E+02  0.7818609E-02  0.1379984E+01
      -11   -1    0    0    0    0  0.00000000000E+00  0.00000000000E+00  0.35740347158E-01  0.35744000000E-01  0.51099999109E-03 0.  1.
       11   -1    0    0    0    0 -0.00000000000E+00 -0.00000000000E+00 -0.35740347158E-01  0.35744000000E-01  0.51099999109E-03 0. -1.
       22    1    1    2    0    0 -0.11489875050E-01  0.41737338881E-02  0.13562347474E-01  0.18258547375E-01  0.00000000000E+00 0.  1.
  9000001    1    1    2    0    0  0.11489875050E-01 -0.41737338881E-02 -0.13562347474E-01  0.53229452625E-01  0.50000000745E-01 0. -1.
</event>
<event>
 4   0  0.6886900E-01  0.9118800E+02  0.7818609E-02  0.1379984E+01
      -11   -1    0    0    0    0  0.00000000000E+00  0.00000000000E+00  0.35740347158E-01  0.35744000000E-01  0.51099999109E-03 0.  1.
       11   -1    0    0    0    0 -0.00000000000E+00 -0.00000000000E+00 -0.35740347158E-01  0.35744000000E-01  0.51099999109E-03 0. -1.
       22    1    1    2    0    0  0.46928111871E-02 -0.20558452402E-02  0.17524998595E-01  0.18258547375E-01  0.00000000000E+00 0.  1.
  9000001    1    1    2    0    0 -0.46928111871E-02  0.20558452402E-02 -0.17524998595E-01  0.53229452625E-01  0.50000000745E-01 0. -1.
</event>
<event>
 4   0  0.6886900E-01  0.9118800E+02  0.7818609E-02  0.1379984E+01
      -11   -1    0    0    0    0  0.00000000000E+00  0.00000000000E+00  0.35740347158E-01  0.35744000000E-01  0.51099999109E-03 0.  1.
       11   -1    0    0    0    0 -0.00000000000E+00 -0.00000000000E+00 -0.35740347158E-01  0.35744000000E-01  0.51099999109E-03 0. -1.
       22    1    1    2    0    0 -0.12082690802E-02  0.10047778767E-01  0.15197262251E-01  0.18258547375E-01  0.00000000000E+00 0.  1.
  9000001    1    1    2    0    0  0.12082690802E-02 -0.10047778767E-01 -0.15197262251E-01  0.53229452625E-01  0.50000000745E-01 0. -1.
</event>
<event>
 4   0  0.6886900E-01  0.9118800E+02  0.7818609E-02  0.1379984E+01
      -11   -1    0    0    0    0  0.00000000000E+00  0.00000000000E+00  0.35740347158E-01  0.35744000000E-01  0.51099999109E-03 0. -1.
       11   -1    0    0    0    0 -0.00000000000E+00 -0.00000000000E+00 -0.35740347158E-01  0.35744000000E-01  0.51099999109E-03 0.  1.
       22    1    1    2    0    0 -0.79166935547E-02 -0.35461064722E-02 -0.16066289064E-01  0.18258547375E-01  0.00000000000E+00 0. -1.
  9000001    1    1    2    0    0  0.79166935547E-02  0.35461064722E-02  0.16066289064E-01  0.53229452625E-01  0.50000000745E-01 0. -1.
</event>
<event>
 4   0  0.6886900E-01  0.9118800E+02  0.7818609E-02  0.1379984E+01
      -11   -1    0    0    0    0  0.00000000000E+00  0.00000000000E+00  0.35740347158E-01  0.35744000000E-01  0.51099999109E-03 0.  1.
       11   -1    0    0    0    0 -0.00000000000E+00 -0.00000000000E+00 -0.35740347158E-01  0.35744000000E-01  0.51099999109E-03 0. -1.
       22    1    1    2    0    0 -0.69043384278E-03 -0.40224634615E-02  0.17796562619E-01  0.18258547375E-01  0.00000000000E+00 0.  1.
  9000001    1    1    2    0    0  0.69043384278E-03  0.40224634615E-02 -0.17796562619E-01  0.53229452625E-01  0.50000000745E-01 0. -1.
</event>
<event>
 4   0  0.6886900E-01  0.9118800E+02  0.7818609E-02  0.1379984E+01
      -11   -1    0    0    0    0  0.00000000000E+00  0.00000000000E+00  0.35740347158E-01  0.35744000000E-01  0.51099999109E-03 0.  1.
       11   -1    0    0    0    0 -0.00000000000E+00 -0.00000000000E+00 -0.35740347158E-01  0.35744000000E-01  0.51099999109E-03 0. -1.
       22    1    1    2    0    0  0.15135328558E-01  0.80866078539E-02 -0.62372393806E-02  0.18258547375E-01  0.00000000000E+00 0.  1.
  9000001    1    1    2    0    0 -0.15135328558E-01 -0.80866078539E-02  0.62372393806E-02  0.53229452625E-01  0.50000000745E-01 0.  1.
</event>
<event>
 4   0  0.6886900E-01  0.9118800E+02  0.7818609E-02  0.1379984E+01
      -11   -1    0    0    0    0  0.00000000000E+00  0.00000000000E+00  0.35740347158E-01  0.35744000000E-01  0.51099999109E-03 0. -1.
       11   -1    0    0    0    0 -0.00000000000E+00 -0.00000000000E+00 -0.35740347158E-01  0.35744000000E-01  0.51099999109E-03 0.  1.
       22    1    1    2    0    0  0.30918243336E-02  0.10930235400E-02  0.17961638959E-01  0.18258547375E-01  0.00000000000E+00 0. -1.
  9000001    1    1    2    0    0 -0.30918243336E-02 -0.10930235400E-02 -0.17961638959E-01  0.53229452625E-01  0.50000000745E-01 0.  1.
</event>
<event>
 4   0  0.6886900E-01  0.9118800E+02  0.7818609E-02  0.1379984E+01
      -11   -1    0    0    0    0  0.00000000000E+00  0.00000000000E+00  0.35740347158E-01  0.35744000000E-01  0.51099999109E-03 0. -1.
       11   -1    0    0    0    0 -0.00000000000E+00 -0.00000000000E+00 -0.35740347158E-01  0.35744000000E-01  0.51099999109E-03 0.  1.
       22    1    1    2    0    0  0.59219589601E-02  0.52327830193E-02 -0.16459736820E-01  0.18258547375E-01  0.00000000000E+00 0.  1.
  9000001    1    1    2    0    0 -0.59219589601E-02 -0.52327830193E-02  0.16459736820E-01  0.53229452625E-01  0.50000000745E-01 0. -1.
</event>
<event>
 4   0  0.6886900E-01  0.9118800E+02  0.7818609E-02  0.1379984E+01
      -11   -1    0    0    0    0  0.00000000000E+00  0.00000000000E+00  0.35740347158E-01  0.35744000000E-01  0.51099999109E-03 0. -1.
       11   -1    0    0    0    0 -0.00000000000E+00 -0.00000000000E+00 -0.35740347158E-01  0.35744000000E-01  0.51099999109E-03 0.  1.
       22    1    1    2    0    0 -0.83886374636E-02 -0.81426529327E-02 -0.14025067450E-01  0.18258547375E-01  0.00000000000E+00 0.  1.
  9000001    1    1    2    0    0  0.83886374636E-02  0.81426529327E-02  0.14025067450E-01  0.53229452625E-01  0.50000000745E-01 0. -1.
</event>
<event>
 4   0  0.6886900E-01  0.9118800E+02  0.7818609E-02  0.1379984E+01
      -11   -1    0    0    0    0  0.00000000000E+00  0.00000000000E+00  0.35740347158E-01  0.35744000000E-01  0.51099999109E-03 0. -1.
       11   -1    0    0    0    0 -0.00000000000E+00 -0.00000000000E+00 -0.35740347158E-01  0.35744000000E-01  0.51099999109E-03 0.  1.
       22    1    1    2    0    0 -0.42584937148E-02 -0.85821638847E-03 -0.17734239430E-01  0.18258547375E-01  0.00000000000E+00 0.  1.
  9000001    1    1    2    0    0  0.42584937148E-02  0.85821638847E-03  0.17734239430E-01  0.53229452625E-01  0.50000000745E-01 0. -1.
</event>
<event>
 4   0  0.6886900E-01  0.9118800E+02  0.7818609E-02  0.1379984E+01
      -11   -1    0    0    0    0  0.00000000000E+00  0.00000000000E+00  0.35740347158E-01  0.35744000000E-01  0.51099999109E-03 0. -1.
       11   -1    0    0    0    0 -0.00000000000E+00 -0.00000000000E+00 -0.35740347158E-01  0.35744000000E-01  0.51099999109E-03 0.  1.
       22    1    1    2    0    0  0.16732590426E-01  0.49542767479E-02  0.53712300085E-02  0.18258547375E-01  0.00000000000E+00 0. -1.
  9000001    1    1    2    0    0 -0.16732590426E-01 -0.49542767479E-02 -0.53712300085E-02  0.53229452625E-01  0.50000000745E-01 0.  0.
</event>
<event>
 4   0  0.6886900E-01  0.9118800E+02  0.7818609E-02  0.1379984E+01
      -11   -1    0    0    0    0  0.00000000000E+00  0.00000000000E+00  0.35740347158E-01  0.35744000000E-01  0.51099999109E-03 0.  1.
       11   -1    0    0    0    0 -0.00000000000E+00 -0.00000000000E+00 -0.35740347158E-01  0.35744000000E-01  0.51099999109E-03 0. -1.
       22    1    1    2    0    0 -0.15178683373E-01  0.96761975689E-02 -0.30583204424E-02  0.18258547375E-01  0.00000000000E+00 0.  1.
  9000001    1    1    2    0    0  0.15178683373E-01 -0.96761975689E-02  0.30583204424E-02  0.53229452625E-01  0.50000000745E-01 0. -1.
</event>
<event>
 4   0  0.6886900E-01  0.9118800E+02  0.7818609E-02  0.1379984E+01
      -11   -1    0    0    0    0  0.00000000000E+00  0.00000000000E+00  0.35740347158E-01  0.35744000000E-01  0.51099999109E-03 0. -1.
       11   -1    0    0    0    0 -0.00000000000E+00 -0.00000000000E+00 -0.35740347158E-01  0.35744000000E-01  0.51099999109E-03 0.  1.
       22    1    1    2    0    0  0.32147687147E-02 -0.76191113572E-02 -0.16278481394E-01  0.18258547375E-01  0.00000000000E+00 0.  1.
  9000001    1    1    2    0    0 -0.32147687147E-02  0.76191113572E-02  0.16278481394E-01  0.53229452625E-01  0.50000000745E-01 0. -1.
</event>
<event>
 4   0  0.6886900E-01  0.9118800E+02  0.7818609E-02  0.1379984E+01
      -11   -1    0    0    0    0  0.00000000000E+00  0.00000000000E+00  0.35740347158E-01  0.35744000000E-01  0.51099999109E-03 0.  1.
       11   -1    0    0    0    0 -0.00000000000E+00 -0.00000000000E+00 -0.35740347158E-01  0.35744000000E-01  0.51099999109E-03 0. -1.
       22    1    1    2    0    0 -0.46069859506E-02 -0.16916770835E-01 -0.50963807959E-02  0.18258547375E-01  0.00000000000E+00 0. -1.
  9000001    1    1    2    0    0  0.46069859506E-02  0.16916770835E-01  0.50963807959E-02  0.53229452625E-01  0.50000000745E-01 0.  1.
</event>
<event>
 4   0  0.6886900E-01  0.9118800E+02  0.7818609E-02  0.1379984E+01
      -11   -1    0    0    0    0  0.00000000000E+00  0.00000000000E+00  0.35740347158E-01  0.35744000000E-01  0.51099999109E-03 0.  1.
       11   -1    0    0    0    0 -0.00000000000E+00 -0.00000000000E+00 -0.35740347158E-01  0.35744000000E-01  0.51099999109E-03 0. -1.
       22    1    1    2    0    0 -0.17268024464E-01 -0.52332642829E-02 -0.27933543100E-02  0.18258547375E-01  0.00000000000E+00 0.  1.
  9000001    1    1    2    0    0  0.17268024464E-01  0.52332642829E-02  0.27933543100E-02  0.53229452625E-01  0.50000000745E-01 0.  0.
</event>
<event>
 4   0  0.6886900E-01  0.9118800E+02  0.7818609E-02  0.1379984E+01
      -11   -1    0    0    0    0  0.00000000000E+00  0.00000000000E+00  0.35740347158E-01  0.35744000000E-01  0.51099999109E-03 0.  1.
       11   -1    0    0    0    0 -0.00000000000E+00 -0.00000000000E+00 -0.35740347158E-01  0.35744000000E-01  0.51099999109E-03 0. -1.
       22    1    1    2    0    0  0.11516442043E-01  0.11780876038E-01 -0.78712816424E-02  0.18258547375E-01  0.00000000000E+00 0. -1.
  9000001    1    1    2    0    0 -0.11516442043E-01 -0.11780876038E-01  0.78712816424E-02  0.53229452625E-01  0.50000000745E-01 0.  0.
</event>
<event>
 4   0  0.6886900E-01  0.9118800E+02  0.7818609E-02  0.1379984E+01
      -11   -1    0    0    0    0  0.00000000000E+00  0.00000000000E+00  0.35740347158E-01  0.35744000000E-01  0.51099999109E-03 0.  1.
       11   -1    0    0    0    0 -0.00000000000E+00 -0.00000000000E+00 -0.35740347158E-01  0.35744000000E-01  0.51099999109E-03 0. -1.
       22    1    1    2    0    0  0.11096792329E-01  0.11225319102E-01 -0.91775793827E-02  0.18258547375E-01  0.00000000000E+00 0. -1.
  9000001    1    1    2    0    0 -0.11096792329E-01 -0.11225319102E-01  0.91775793827E-02  0.53229452625E-01  0.50000000745E-01 0.  1.
</event>
<event>
 4   0  0.6886900E-01  0.9118800E+02  0.7818609E-02  0.1379984E+01
      -11   -1    0    0    0    0  0.00000000000E+00  0.00000000000E+00  0.35740347158E-01  0.35744000000E-01  0.51099999109E-03 0. -1.
       11   -1    0    0    0    0 -0.00000000000E+00 -0.00000000000E+00 -0.35740347158E-01  0.35744000000E-01  0.51099999109E-03 0.  1.
       22    1    1    2    0    0  0.10317448093E-01  0.16048733554E-02  0.14978290911E-01  0.18258547375E-01  0.00000000000E+00 0.  1.
  9000001    1    1    2    0    0 -0.10317448093E-01 -0.16048733554E-02 -0.14978290911E-01  0.53229452625E-01  0.50000000745E-01 0.  1.
</event>
<event>
 4   0  0.6886900E-01  0.9118800E+02  0.7818609E-02  0.1379984E+01
      -11   -1    0    0    0    0  0.00000000000E+00  0.00000000000E+00  0.35740347158E-01  0.35744000000E-01  0.51099999109E-03 0.  1.
       11   -1    0    0    0    0 -0.00000000000E+00 -0.00000000000E+00 -0.35740347158E-01  0.35744000000E-01  0.51099999109E-03 0. -1.
       22    1    1    2    0    0 -0.43792286512E-02  0.15649421885E-01  0.83242118744E-02  0.18258547375E-01  0.00000000000E+00 0.  1.
  9000001    1    1    2    0    0  0.43792286512E-02 -0.15649421885E-01 -0.83242118744E-02  0.53229452625E-01  0.50000000745E-01 0. -1.
</event>
<event>
 4   0  0.6886900E-01  0.9118800E+02  0.7818609E-02  0.1379984E+01
      -11   -1    0    0    0    0  0.00000000000E+00  0.00000000000E+00  0.35740347158E-01  0.35744000000E-01  0.51099999109E-03 0. -1.
       11   -1    0    0    0    0 -0.00000000000E+00 -0.00000000000E+00 -0.35740347158E-01  0.35744000000E-01  0.51099999109E-03 0.  1.
       22    1    1    2    0    0 -0.10627394316E-01 -0.99122260642E-02  0.11053543176E-01  0.18258547375E-01  0.00000000000E+00 0. -1.
  9000001    1    1    2    0    0  0.10627394316E-01  0.99122260642E-02 -0.11053543176E-01  0.53229452625E-01  0.50000000745E-01 0.  0.
</event>
<event>
 4   0  0.6886900E-01  0.9118800E+02  0.7818609E-02  0.1379984E+01
      -11   -1    0    0    0    0  0.00000000000E+00  0.00000000000E+00  0.35740347158E-01  0.35744000000E-01  0.51099999109E-03 0. -1.
       11   -1    0    0    0    0 -0.00000000000E+00 -0.00000000000E+00 -0.35740347158E-01  0.35744000000E-01  0.51099999109E-03 0.  1.
       22    1    1    2    0    0 -0.12182448088E-01  0.75327232381E-02 -0.11323453159E-01  0.18258547375E-01  0.00000000000E+00 0.  1.
  9000001    1    1    2    0    0  0.12182448088E-01 -0.75327232381E-02  0.11323453159E-01  0.53229452625E-01  0.50000000745E-01 0. -1.
</event>
<event>
 4   0  0.6886900E-01  0.9118800E+02  0.7818609E-02  0.1379984E+01
      -11   -1    0    0    0    0  0.00000000000E+00  0.00000000000E+00  0.35740347158E-01  0.35744000000E-01  0.51099999109E-03 0. -1.
       11   -1    0    0    0    0 -0.00000000000E+00 -0.00000000000E+00 -0.35740347158E-01  0.35744000000E-01  0.51099999109E-03 0.  1.
       22    1    1    2    0    0 -0.51445293761E-02  0.17483272378E-04 -0.17518791741E-01  0.18258547375E-01  0.00000000000E+00 0.  1.
  9000001    1    1    2    0    0  0.51445293761E-02 -0.17483272378E-04  0.17518791741E-01  0.53229452625E-01  0.50000000745E-01 0. -1.
</event>
<event>
 4   0  0.6886900E-01  0.9118800E+02  0.7818609E-02  0.1379984E+01
      -11   -1    0    0    0    0  0.00000000000E+00  0.00000000000E+00  0.35740347158E-01  0.35744000000E-01  0.51099999109E-03 0. -1.
       11   -1    0    0    0    0 -0.00000000000E+00 -0.00000000000E+00 -0.35740347158E-01  0.35744000000E-01  0.51099999109E-03 0.  1.
       22    1    1    2    0    0  0.42167424257E-02 -0.62422287998E-03  0.17753984943E-01  0.18258547375E-01  0.00000000000E+00 0. -1.
  9000001    1    1    2    0    0 -0.42167424257E-02  0.62422287998E-03 -0.17753984943E-01  0.53229452625E-01  0.50000000745E-01 0.  1.
</event>
<event>
 4   0  0.6886900E-01  0.9118800E+02  0.7818609E-02  0.1379984E+01
      -11   -1    0    0    0    0  0.00000000000E+00  0.00000000000E+00  0.35740347158E-01  0.35744000000E-01  0.51099999109E-03 0.  1.
       11   -1    0    0    0    0 -0.00000000000E+00 -0.00000000000E+00 -0.35740347158E-01  0.35744000000E-01  0.51099999109E-03 0. -1.
       22    1    1    2    0    0  0.24236484333E-02 -0.11707670312E-01  0.13799671604E-01  0.18258547375E-01  0.00000000000E+00 0. -1.
  9000001    1    1    2    0    0 -0.24236484333E-02  0.11707670312E-01 -0.13799671604E-01  0.53229452625E-01  0.50000000745E-01 0. -1.
</event>
<event>
 4   0  0.6886900E-01  0.9118800E+02  0.7818609E-02  0.1379984E+01
      -11   -1    0    0    0    0  0.00000000000E+00  0.00000000000E+00  0.35740347158E-01  0.35744000000E-01  0.51099999109E-03 0.  1.
       11   -1    0    0    0    0 -0.00000000000E+00 -0.00000000000E+00 -0.35740347158E-01  0.35744000000E-01  0.51099999109E-03 0. -1.
       22    1    1    2    0    0 -0.12290542395E-02  0.14108767788E-01  0.11524176735E-01  0.18258547375E-01  0.00000000000E+00 0.  1.
  9000001    1    1    2    0    0  0.12290542395E-02 -0.14108767788E-01 -0.11524176735E-01  0.53229452625E-01  0.50000000745E-01 0. -1.
</event>
<event>
 4   0  0.6886900E-01  0.9118800E+02  0.7818609E-02  0.1379984E+01
      -11   -1    0    0    0    0  0.00000000000E+00  0.00000000000E+00  0.35740347158E-01  0.35744000000E-01  0.51099999109E-03 0. -1.
       11   -1    0    0    0    0 -0.00000000000E+00 -0.00000000000E+00 -0.35740347158E-01  0.35744000000E-01  0.51099999109E-03 0.  1.
       22    1    1    2    0    0  0.39631303054E-02  0.14580805871E-02  0.17763506169E-01  0.18258547375E-01  0.00000000000E+00 0.  1.
  9000001    1    1    2    0    0 -0.39631303054E-02 -0.14580805871E-02 -0.17763506169E-01  0.53229452625E-01  0.50000000745E-01 0.  1.
</event>
<event>
 4   0  0.6886900E-01  0.9118800E+02  0.7818609E-02  0.1379984E+01
      -11   -1    0    0    0    0  0.00000000000E+00  0.00000000000E+00  0.35740347158E-01  0.35744000000E-01  0.51099999109E-03 0.  1.
       11   -1    0    0    0    0 -0.00000000000E+00 -0.00000000000E+00 -0.35740347158E-01  0.35744000000E-01  0.51099999109E-03 0. -1.
       22    1    1    2    0    0  0.17772951591E-02  0.54937137396E-02 -0.17321515047E-01  0.18258547375E-01  0.00000000000E+00 0. -1.
  9000001    1    1    2    0    0 -0.17772951591E-02 -0.54937137396E-02  0.17321515047E-01  0.53229452625E-01  0.50000000745E-01 0.  1.
</event>
<event>
 4   0  0.6886900E-01  0.9118800E+02  0.7818609E-02  0.1379984E+01
      -11   -1    0    0    0    0  0.00000000000E+00  0.00000000000E+00  0.35740347158E-01  0.35744000000E-01  0.51099999109E-03 0. -1.
       11   -1    0    0    0    0 -0.00000000000E+00 -0.00000000000E+00 -0.35740347158E-01  0.35744000000E-01  0.51099999109E-03 0.  1.
       22    1    1    2    0    0 -0.10861300606E-02  0.39551565421E-02 -0.17791897326E-01  0.18258547375E-01  0.00000000000E+00 0.  1.
  9000001    1    1    2    0    0  0.10861300606E-02 -0.39551565421E-02  0.17791897326E-01  0.53229452625E-01  0.50000000745E-01 0. -1.
</event>
<event>
 4   0  0.6886900E-01  0.9118800E+02  0.7818609E-02  0.1379984E+01
      -11   -1    0    0    0    0  0.00000000000E+00  0.00000000000E+00  0.35740347158E-01  0.35744000000E-01  0.51099999109E-03 0. -1.
       11   -1    0    0    0    0 -0.00000000000E+00 -0.00000000000E+00 -0.35740347158E-01  0.35744000000E-01  0.51099999109E-03 0.  1.
       22    1    1    2    0    0 -0.68536754939E-02 -0.55448434799E-02  0.15989258746E-01  0.18258547375E-01  0.00000000000E+00 0. -1.
  9000001    1    1    2    0    0  0.68536754939E-02  0.55448434799E-02 -0.15989258746E-01  0.53229452625E-01  0.50000000745E-01 0.  1.
</event>
<event>
 4   0  0.6886900E-01  0.9118800E+02  0.7818609E-02  0.1379984E+01
      -11   -1    0    0    0    0  0.00000000000E+00  0.00000000000E+00  0.35740347158E-01  0.35744000000E-01  0.51099999109E-03 0.  1.
       11   -1    0    0    0    0 -0.00000000000E+00 -0.00000000000E+00 -0.35740347158E-01  0.35744000000E-01  0.51099999109E-03 0. -1.
       22    1    1    2    0    0 -0.20105026878E-02 -0.56857595397E-02 -0.17233820518E-01  0.18258547375E-01  0.00000000000E+00 0. -1.
  9000001    1    1    2    0    0  0.20105026878E-02  0.56857595397E-02  0.17233820518E-01  0.53229452625E-01  0.50000000745E-01 0.  1.
</event>
<event>
 4   0  0.6886900E-01  0.9118800E+02  0.7818609E-02  0.1379984E+01
      -11   -1    0    0    0    0  0.00000000000E+00  0.00000000000E+00  0.35740347158E-01  0.35744000000E-01  0.51099999109E-03 0. -1.
       11   -1    0    0    0    0 -0.00000000000E+00 -0.00000000000E+00 -0.35740347158E-01  0.35744000000E-01  0.51099999109E-03 0.  1.
       22    1    1    2    0    0 -0.54381996246E-02  0.65330173911E-02  0.16159214735E-01  0.18258547375E-01  0.00000000000E+00 0. -1.
  9000001    1    1    2    0    0  0.54381996246E-02 -0.65330173911E-02 -0.16159214735E-01  0.53229452625E-01  0.50000000745E-01 0.  1.
</event>
<event>
 4   0  0.6886900E-01  0.9118800E+02  0.7818609E-02  0.1379984E+01
      -11   -1    0    0    0    0  0.00000000000E+00  0.00000000000E+00  0.35740347158E-01  0.35744000000E-01  0.51099999109E-03 0.  1.
       11   -1    0    0    0    0 -0.00000000000E+00 -0.00000000000E+00 -0.35740347158E-01  0.35744000000E-01  0.51099999109E-03 0. -1.
       22    1    1    2    0    0  0.44826632885E-02 -0.91230848885E-02 -0.15167386202E-01  0.18258547375E-01  0.00000000000E+00 0. -1.
  9000001    1    1    2    0    0 -0.44826632885E-02  0.91230848885E-02  0.15167386202E-01  0.53229452625E-01  0.50000000745E-01 0.  1.
</event>
<event>
 4   0  0.6886900E-01  0.9118800E+02  0.7818609E-02  0.1379984E+01
      -11   -1    0    0    0    0  0.00000000000E+00  0.00000000000E+00  0.35740347158E-01  0.35744000000E-01  0.51099999109E-03 0. -1.
       11   -1    0    0    0    0 -0.00000000000E+00 -0.00000000000E+00 -0.35740347158E-01  0.35744000000E-01  0.51099999109E-03 0.  1.
       22    1    1    2    0    0  0.24988415400E-02 -0.14264499352E-01 -0.11120000065E-01  0.18258547375E-01  0.00000000000E+00 0.  1.
  9000001    1    1    2    0    0 -0.24988415400E-02  0.14264499352E-01  0.11120000065E-01  0.53229452625E-01  0.50000000745E-01 0.  0.
</event>
<event>
 4   0  0.6886900E-01  0.9118800E+02  0.7818609E-02  0.1379984E+01
      -11   -1    0    0    0    0  0.00000000000E+00  0.00000000000E+00  0.35740347158E-01  0.35744000000E-01  0.51099999109E-03 0. -1.
       11   -1    0    0    0    0 -0.00000000000E+00 -0.00000000000E+00 -0.35740347158E-01  0.35744000000E-01  0.51099999109E-03 0.  1.
       22    1    1    2    0    0  0.74881719929E-02  0.13528975868E-01 -0.97092041080E-02  0.18258547375E-01  0.00000000000E+00 0.  1.
  9000001    1    1    2    0    0 -0.74881719929E-02 -0.13528975868E-01  0.97092041080E-02  0.53229452625E-01  0.50000000745E-01 0. -1.
</event>
<event>
 4   0  0.6886900E-01  0.9118800E+02  0.7818609E-02  0.1379984E+01
      -11   -1    0    0    0    0  0.00000000000E+00  0.00000000000E+00  0.35740347158E-01  0.35744000000E-01  0.51099999109E-03 0. -1.
       11   -1    0    0    0    0 -0.00000000000E+00 -0.00000000000E+00 -0.35740347158E-01  0.35744000000E-01  0.51099999109E-03 0.  1.
       22    1    1    2    0    0  0.10191323626E-01  0.14535057642E-01 -0.42712497416E-02  0.18258547375E-01  0.00000000000E+00 0.  1.
  9000001    1    1    2    0    0 -0.10191323626E-01 -0.14535057642E-01  0.42712497416E-02  0.53229452625E-01  0.50000000745E-01 0. -1.
</event>
<event>
 4   0  0.6886900E-01  0.9118800E+02  0.7818609E-02  0.1379984E+01
      -11   -1    0    0    0    0  0.00000000000E+00  0.00000000000E+00  0.35740347158E-01  0.35744000000E-01  0.51099999109E-03 0. -1.
       11   -1    0    0    0    0 -0.00000000000E+00 -0.00000000000E+00 -0.35740347158E-01  0.35744000000E-01  0.51099999109E-03 0.  1.
       22    1    1    2    0    0  0.10092276708E-01 -0.78713257686E-02  0.13021625618E-01  0.18258547375E-01  0.00000000000E+00 0. -1.
  9000001    1    1    2    0    0 -0.10092276708E-01  0.78713257686E-02 -0.13021625618E-01  0.53229452625E-01  0.50000000745E-01 0.  1.
</event>
<event>
 4   0  0.6886900E-01  0.9118800E+02  0.7818609E-02  0.1379984E+01
      -11   -1    0    0    0    0  0.00000000000E+00  0.00000000000E+00  0.35740347158E-01  0.35744000000E-01  0.51099999109E-03 0. -1.
       11   -1    0    0    0    0 -0.00000000000E+00 -0.00000000000E+00 -0.35740347158E-01  0.35744000000E-01  0.51099999109E-03 0.  1.
       22    1    1    2    0    0  0.50345072469E-02 -0.10638776624E-01 -0.13958679056E-01  0.18258547375E-01  0.00000000000E+00 0.  1.
  9000001    1    1    2    0    0 -0.50345072469E-02  0.10638776624E-01  0.13958679056E-01  0.53229452625E-01  0.50000000745E-01 0. -1.
</event>
<event>
 4   0  0.6886900E-01  0.9118800E+02  0.7818609E-02  0.1379984E+01
      -11   -1    0    0    0    0  0.00000000000E+00  0.00000000000E+00  0.35740347158E-01  0.35744000000E-01  0.51099999109E-03 0. -1.
       11   -1    0    0    0    0 -0.00000000000E+00 -0.00000000000E+00 -0.35740347158E-01  0.35744000000E-01  0.51099999109E-03 0.  1.
       22    1    1    2    0    0  0.12547388043E-03 -0.37335226199E-02 -0.17872314271E-01  0.18258547375E-01  0.00000000000E+00 0. -1.
  9000001    1    1    2    0    0 -0.12547388043E-03  0.37335226199E-02  0.17872314271E-01  0.53229452625E-01  0.50000000745E-01 0. -1.
</event>
<event>
 4   0  0.6886900E-01  0.9118800E+02  0.7818609E-02  0.1379984E+01
      -11   -1    0    0    0    0  0.00000000000E+00  0.00000000000E+00  0.35740347158E-01  0.35744000000E-01  0.51099999109E-03 0.  1.
       11   -1    0    0    0    0 -0.00000000000E+00 -0.00000000000E+00 -0.35740347158E-01  0.35744000000E-01  0.51099999109E-03 0. -1.
       22    1    1    2    0    0 -0.53079294803E-02  0.61172685206E-02 -0.16363968428E-01  0.18258547375E-01  0.00000000000E+00 0. -1.
  9000001    1    1    2    0    0  0.53079294803E-02 -0.61172685206E-02  0.16363968428E-01  0.53229452625E-01  0.50000000745E-01 0.  1.
</event>
<event>
 4   0  0.6886900E-01  0.9118800E+02  0.7818609E-02  0.1379984E+01
      -11   -1    0    0    0    0  0.00000000000E+00  0.00000000000E+00  0.35740347158E-01  0.35744000000E-01  0.51099999109E-03 0. -1.
       11   -1    0    0    0    0 -0.00000000000E+00 -0.00000000000E+00 -0.35740347158E-01  0.35744000000E-01  0.51099999109E-03 0.  1.
       22    1    1    2    0    0  0.77422955312E-02  0.51994212806E-02 -0.15697051650E-01  0.18258547375E-01  0.00000000000E+00 0.  1.
  9000001    1    1    2    0    0 -0.77422955312E-02 -0.51994212806E-02  0.15697051650E-01  0.53229452625E-01  0.50000000745E-01 0. -1.
</event>
<event>
 4   0  0.6886900E-01  0.9118800E+02  0.7818609E-02  0.1379984E+01
      -11   -1    0    0    0    0  0.00000000000E+00  0.00000000000E+00  0.35740347158E-01  0.35744000000E-01  0.51099999109E-03 0. -1.
       11   -1    0    0    0    0 -0.00000000000E+00 -0.00000000000E+00 -0.35740347158E-01  0.35744000000E-01  0.51099999109E-03 0.  1.
       22    1    1    2    0    0 -0.93386913156E-02  0.17009520442E-02  0.15597120212E-01  0.18258547375E-01  0.00000000000E+00 0. -1.
  9000001    1    1    2    0    0  0.93386913156E-02 -0.17009520442E-02 -0.15597120212E-01  0.53229452625E-01  0.50000000745E-01 0.  1.
</event>
<event>
 4   0  0.6886900E-01  0.9118800E+02  0.7818609E-02  0.1379984E+01
      -11   -1    0    0    0    0  0.00000000000E+00  0.00000000000E+00  0.35740347158E-01  0.35744000000E-01  0.51099999109E-03 0.  1.
       11   -1    0    0    0    0 -0.00000000000E+00 -0.00000000000E+00 -0.35740347158E-01  0.35744000000E-01  0.51099999109E-03 0. -1.
       22    1    1    2    0    0  0.12840475797E-01  0.24402919207E-02 -0.12749184636E-01  0.18258547375E-01  0.00000000000E+00 0. -1.
  9000001    1    1    2    0    0 -0.12840475797E-01 -0.24402919207E-02  0.12749184636E-01  0.53229452625E-01  0.50000000745E-01 0.  1.
</event>
<event>
 4   0  0.6886900E-01  0.9118800E+02  0.7818609E-02  0.1379984E+01
      -11   -1    0    0    0    0  0.00000000000E+00  0.00000000000E+00  0.35740347158E-01  0.35744000000E-01  0.51099999109E-03 0.  1.
       11   -1    0    0    0    0 -0.00000000000E+00 -0.00000000000E+00 -0.35740347158E-01  0.35744000000E-01  0.51099999109E-03 0. -1.
       22    1    1    2    0    0 -0.92559878695E-02  0.79549116496E-02 -0.13580155428E-01  0.18258547375E-01  0.00000000000E+00 0. -1.
  9000001    1    1    2    0    0  0.92559878695E-02 -0.79549116496E-02  0.13580155428E-01  0.53229452625E-01  0.50000000745E-01 0.  1.
</event>
<event>
 4   0  0.6886900E-01  0.9118800E+02  0.7818609E-02  0.1379984E+01
      -11   -1    0    0    0    0  0.00000000000E+00  0.00000000000E+00  0.35740347158E-01  0.35744000000E-01  0.51099999109E-03 0.  1.
       11   -1    0    0    0    0 -0.00000000000E+00 -0.00000000000E+00 -0.35740347158E-01  0.35744000000E-01  0.51099999109E-03 0. -1.
       22    1    1    2    0    0 -0.81565229691E-02 -0.32834261072E-02 -0.16002024819E-01  0.18258547375E-01  0.00000000000E+00 0. -1.
  9000001    1    1    2    0    0  0.81565229691E-02  0.32834261072E-02  0.16002024819E-01  0.53229452625E-01  0.50000000745E-01 0.  1.
</event>
<event>
 4   0  0.6886900E-01  0.9118800E+02  0.7818609E-02  0.1379984E+01
      -11   -1    0    0    0    0  0.00000000000E+00  0.00000000000E+00  0.35740347158E-01  0.35744000000E-01  0.51099999109E-03 0. -1.
       11   -1    0    0    0    0 -0.00000000000E+00 -0.00000000000E+00 -0.35740347158E-01  0.35744000000E-01  0.51099999109E-03 0.  1.
       22    1    1    2    0    0 -0.16042502300E-02 -0.46240778883E-02 -0.17590305203E-01  0.18258547375E-01  0.00000000000E+00 0.  1.
  9000001    1    1    2    0    0  0.16042502300E-02  0.46240778883E-02  0.17590305203E-01  0.53229452625E-01  0.50000000745E-01 0. -1.
</event>
<event>
 4   0  0.6886900E-01  0.9118800E+02  0.7818609E-02  0.1379984E+01
      -11   -1    0    0    0    0  0.00000000000E+00  0.00000000000E+00  0.35740347158E-01  0.35744000000E-01  0.51099999109E-03 0. -1.
       11   -1    0    0    0    0 -0.00000000000E+00 -0.00000000000E+00 -0.35740347158E-01  0.35744000000E-01  0.51099999109E-03 0.  1.
       22    1    1    2    0    0  0.12529238549E-02  0.36464772559E-02 -0.17846790683E-01  0.18258547375E-01  0.00000000000E+00 0.  1.
  9000001    1    1    2    0    0 -0.12529238549E-02 -0.36464772559E-02  0.17846790683E-01  0.53229452625E-01  0.50000000745E-01 0. -1.
</event>
<event>
 4   0  0.6886900E-01  0.9118800E+02  0.7818609E-02  0.1379984E+01
      -11   -1    0    0    0    0  0.00000000000E+00  0.00000000000E+00  0.35740347158E-01  0.35744000000E-01  0.51099999109E-03 0. -1.
       11   -1    0    0    0    0 -0.00000000000E+00 -0.00000000000E+00 -0.35740347158E-01  0.35744000000E-01  0.51099999109E-03 0.  1.
       22    1    1    2    0    0 -0.25236526666E-02  0.98302525121E-02  0.15178005963E-01  0.18258547375E-01  0.00000000000E+00 0. -1.
  9000001    1    1    2    0    0  0.25236526666E-02 -0.98302525121E-02 -0.15178005963E-01  0.53229452625E-01  0.50000000745E-01 0.  1.
</event>
<event>
 4   0  0.6886900E-01  0.9118800E+02  0.7818609E-02  0.1379984E+01
      -11   -1    0    0    0    0  0.00000000000E+00  0.00000000000E+00  0.35740347158E-01  0.35744000000E-01  0.51099999109E-03 0.  1.
       11   -1    0    0    0    0 -0.00000000000E+00 -0.00000000000E+00 -0.35740347158E-01  0.35744000000E-01  0.51099999109E-03 0. -1.
       22    1    1    2    0    0  0.12606347929E-01  0.93293103886E-02  0.93497867252E-02  0.18258547375E-01  0.00000000000E+00 0. -1.
  9000001    1    1    2    0    0 -0.12606347929E-01 -0.93293103886E-02 -0.93497867252E-02  0.53229452625E-01  0.50000000745E-01 0.  1.
</event>
<event>
 4   0  0.6886900E-01  0.9118800E+02  0.7818609E-02  0.1379984E+01
      -11   -1    0    0    0    0  0.00000000000E+00  0.00000000000E+00  0.35740347158E-01  0.35744000000E-01  0.51099999109E-03 0.  1.
       11   -1    0    0    0    0 -0.00000000000E+00 -0.00000000000E+00 -0.35740347158E-01  0.35744000000E-01  0.51099999109E-03 0. -1.
       22    1    1    2    0    0 -0.11147315562E-01 -0.23069356099E-02 -0.14275501957E-01  0.18258547375E-01  0.00000000000E+00 0.  1.
  9000001    1    1    2    0    0  0.11147315562E-01  0.23069356099E-02  0.14275501957E-01  0.53229452625E-01  0.50000000745E-01 0.  1.
</event>
<event>
 4   0  0.6886900E-01  0.9118800E+02  0.7818609E-02  0.1379984E+01
      -11   -1    0    0    0    0  0.00000000000E+00  0.00000000000E+00  0.35740347158E-01  0.35744000000E-01  0.51099999109E-03 0. -1.
       11   -1    0    0    0    0 -0.00000000000E+00 -0.00000000000E+00 -0.35740347158E-01  0.35744000000E-01  0.51099999109E-03 0.  1.
       22    1    1    2    0    0  0.37941317475E-02 -0.23094720435E-02 -0.17710038267E-01  0.18258547375E-01  0.00000000000E+00 0.  1.
  9000001    1    1    2    0    0 -0.37941317475E-02  0.23094720435E-02  0.17710038267E-01  0.53229452625E-01  0.50000000745E-01 0. -1.
</event>
<event>
 4   0  0.6886900E-01  0.9118800E+02  0.7818609E-02  0.1379984E+01
      -11   -1    0    0    0    0  0.00000000000E+00  0.00000000000E+00  0.35740347158E-01  0.35744000000E-01  0.51099999109E-03 0.  1.
       11   -1    0    0    0    0 -0.00000000000E+00 -0.00000000000E+00 -0.35740347158E-01  0.35744000000E-01  0.51099999109E-03 0. -1.
       22    1    1    2    0    0  0.79324631378E-02  0.76959980759E-02  0.14533485282E-01  0.18258547375E-01  0.00000000000E+00 0.  1.
  9000001    1    1    2    0    0 -0.79324631378E-02 -0.76959980759E-02 -0.14533485282E-01  0.53229452625E-01  0.50000000745E-01 0. -1.
</event>
<event>
 4   0  0.6886900E-01  0.9118800E+02  0.7818609E-02  0.1379984E+01
      -11   -1    0    0    0    0  0.00000000000E+00  0.00000000000E+00  0.35740347158E-01  0.35744000000E-01  0.51099999109E-03 0.  1.
       11   -1    0    0    0    0 -0.00000000000E+00 -0.00000000000E+00 -0.35740347158E-01  0.35744000000E-01  0.51099999109E-03 0. -1.
       22    1    1    2    0    0  0.36381406880E-02  0.10494428499E-01  0.14491564962E-01  0.18258547375E-01  0.00000000000E+00 0.  1.
  9000001    1    1    2    0    0 -0.36381406880E-02 -0.10494428499E-01 -0.14491564962E-01  0.53229452625E-01  0.50000000745E-01 0. -1.
</event>
<event>
 4   0  0.6886900E-01  0.9118800E+02  0.7818609E-02  0.1379984E+01
      -11   -1    0    0    0    0  0.00000000000E+00  0.00000000000E+00  0.35740347158E-01  0.35744000000E-01  0.51099999109E-03 0.  1.
       11   -1    0    0    0    0 -0.00000000000E+00 -0.00000000000E+00 -0.35740347158E-01  0.35744000000E-01  0.51099999109E-03 0. -1.
       22    1    1    2    0    0  0.45439381194E-02 -0.33900368670E-02  0.17356117903E-01  0.18258547375E-01  0.00000000000E+00 0.  1.
  9000001    1    1    2    0    0 -0.45439381194E-02  0.33900368670E-02 -0.17356117903E-01  0.53229452625E-01  0.50000000745E-01 0. -1.
</event>
<event>
 4   0  0.6886900E-01  0.9118800E+02  0.7818609E-02  0.1379984E+01
      -11   -1    0    0    0    0  0.00000000000E+00  0.00000000000E+00  0.35740347158E-01  0.35744000000E-01  0.51099999109E-03 0.  1.
       11   -1    0    0    0    0 -0.00000000000E+00 -0.00000000000E+00 -0.35740347158E-01  0.35744000000E-01  0.51099999109E-03 0. -1.
       22    1    1    2    0    0  0.72634115170E-02 -0.14312000132E-01  0.87054039316E-02  0.18258547375E-01  0.00000000000E+00 0. -1.
  9000001    1    1    2    0    0 -0.72634115170E-02  0.14312000132E-01 -0.87054039316E-02  0.53229452625E-01  0.50000000745E-01 0.  0.
</event>
<event>
 4   0  0.6886900E-01  0.9118800E+02  0.7818609E-02  0.1379984E+01
      -11   -1    0    0    0    0  0.00000000000E+00  0.00000000000E+00  0.35740347158E-01  0.35744000000E-01  0.51099999109E-03 0. -1.
       11   -1    0    0    0    0 -0.00000000000E+00 -0.00000000000E+00 -0.35740347158E-01  0.35744000000E-01  0.51099999109E-03 0.  1.
       22    1    1    2    0    0 -0.54438575139E-02  0.98399369916E-02  0.14384526673E-01  0.18258547375E-01  0.00000000000E+00 0. -1.
  9000001    1    1    2    0    0  0.54438575139E-02 -0.98399369916E-02 -0.14384526673E-01  0.53229452625E-01  0.50000000745E-01 0.  1.
</event>
<event>
 4   0  0.6886900E-01  0.9118800E+02  0.7818609E-02  0.1379984E+01
      -11   -1    0    0    0    0  0.00000000000E+00  0.00000000000E+00  0.35740347158E-01  0.35744000000E-01  0.51099999109E-03 0. -1.
       11   -1    0    0    0    0 -0.00000000000E+00 -0.00000000000E+00 -0.35740347158E-01  0.35744000000E-01  0.51099999109E-03 0.  1.
       22    1    1    2    0    0 -0.26565180083E-02 -0.89120158642E-02 -0.15712843077E-01  0.18258547375E-01  0.00000000000E+00 0. -1.
  9000001    1    1    2    0    0  0.26565180083E-02  0.89120158642E-02  0.15712843077E-01  0.53229452625E-01  0.50000000745E-01 0. -1.
</event>
<event>
 4   0  0.6886900E-01  0.9118800E+02  0.7818609E-02  0.1379984E+01
      -11   -1    0    0    0    0  0.00000000000E+00  0.00000000000E+00  0.35740347158E-01  0.35744000000E-01  0.51099999109E-03 0.  1.
       11   -1    0    0    0    0 -0.00000000000E+00 -0.00000000000E+00 -0.35740347158E-01  0.35744000000E-01  0.51099999109E-03 0. -1.
       22    1    1    2    0    0 -0.77190350173E-02 -0.16000367887E-01  0.42165481284E-02  0.18258547375E-01  0.00000000000E+00 0. -1.
  9000001    1    1    2    0    0  0.77190350173E-02  0.16000367887E-01 -0.42165481284E-02  0.53229452625E-01  0.50000000745E-01 0.  0.
</event>
<event>
 4   0  0.6886900E-01  0.9118800E+02  0.7818609E-02  0.1379984E+01
      -11   -1    0    0    0    0  0.00000000000E+00  0.00000000000E+00  0.35740347158E-01  0.35744000000E-01  0.51099999109E-03 0.  1.
       11   -1    0    0    0    0 -0.00000000000E+00 -0.00000000000E+00 -0.35740347158E-01  0.35744000000E-01  0.51099999109E-03 0. -1.
       22    1    1    2    0    0  0.16162187364E-02  0.31429156066E-02 -0.17913248470E-01  0.18258547375E-01  0.00000000000E+00 0. -1.
  9000001    1    1    2    0    0 -0.16162187364E-02 -0.31429156066E-02  0.17913248470E-01  0.53229452625E-01  0.50000000745E-01 0.  1.
</event>
<event>
 4   0  0.6886900E-01  0.9118800E+02  0.7818609E-02  0.1379984E+01
      -11   -1    0    0    0    0  0.00000000000E+00  0.00000000000E+00  0.35740347158E-01  0.35744000000E-01  0.51099999109E-03 0. -1.
       11   -1    0    0    0    0 -0.00000000000E+00 -0.00000000000E+00 -0.35740347158E-01  0.35744000000E-01  0.51099999109E-03 0.  1.
       22    1    1    2    0    0 -0.60755858876E-02  0.16509107423E-02  0.17138736887E-01  0.18258547375E-01  0.00000000000E+00 0.  1.
  9000001    1    1    2    0    0  0.60755858876E-02 -0.16509107423E-02 -0.17138736887E-01  0.53229452625E-01  0.50000000745E-01 0.  1.
</event>
<event>
 4   0  0.6886900E-01  0.9118800E+02  0.7818609E-02  0.1379984E+01
      -11   -1    0    0    0    0  0.00000000000E+00  0.00000000000E+00  0.35740347158E-01  0.35744000000E-01  0.51099999109E-03 0.  1.
       11   -1    0    0    0    0 -0.00000000000E+00 -0.00000000000E+00 -0.35740347158E-01  0.35744000000E-01  0.51099999109E-03 0. -1.
       22    1    1    2    0    0  0.12861315622E-02  0.44370768730E-02  0.17664449232E-01  0.18258547375E-01  0.00000000000E+00 0.  1.
  9000001    1    1    2    0    0 -0.12861315622E-02 -0.44370768730E-02 -0.17664449232E-01  0.53229452625E-01  0.50000000745E-01 0. -1.
</event>
<event>
 4   0  0.6886900E-01  0.9118800E+02  0.7818609E-02  0.1379984E+01
      -11   -1    0    0    0    0  0.00000000000E+00  0.00000000000E+00  0.35740347158E-01  0.35744000000E-01  0.51099999109E-03 0.  1.
       11   -1    0    0    0    0 -0.00000000000E+00 -0.00000000000E+00 -0.35740347158E-01  0.35744000000E-01  0.51099999109E-03 0. -1.
       22    1    1    2    0    0  0.30545430297E-02  0.23482561082E-03 -0.17999699332E-01  0.18258547375E-01  0.00000000000E+00 0. -1.
  9000001    1    1    2    0    0 -0.30545430297E-02 -0.23482561082E-03  0.17999699332E-01  0.53229452625E-01  0.50000000745E-01 0.  1.
</event>
<event>
 4   0  0.6886900E-01  0.9118800E+02  0.7818609E-02  0.1379984E+01
      -11   -1    0    0    0    0  0.00000000000E+00  0.00000000000E+00  0.35740347158E-01  0.35744000000E-01  0.51099999109E-03 0. -1.
       11   -1    0    0    0    0 -0.00000000000E+00 -0.00000000000E+00 -0.35740347158E-01  0.35744000000E-01  0.51099999109E-03 0.  1.
       22    1    1    2    0    0  0.13297557642E-01  0.10270059294E-01  0.71467051913E-02  0.18258547375E-01  0.00000000000E+00 0. -1.
  9000001    1    1    2    0    0 -0.13297557642E-01 -0.10270059294E-01 -0.71467051913E-02  0.53229452625E-01  0.50000000745E-01 0.  1.
</event>
<event>
 4   0  0.6886900E-01  0.9118800E+02  0.7818609E-02  0.1379984E+01
      -11   -1    0    0    0    0  0.00000000000E+00  0.00000000000E+00  0.35740347158E-01  0.35744000000E-01  0.51099999109E-03 0.  1.
       11   -1    0    0    0    0 -0.00000000000E+00 -0.00000000000E+00 -0.35740347158E-01  0.35744000000E-01  0.51099999109E-03 0. -1.
       22    1    1    2    0    0  0.47742981821E-02  0.19798047593E-03  0.17622185814E-01  0.18258547375E-01  0.00000000000E+00 0.  1.
  9000001    1    1    2    0    0 -0.47742981821E-02 -0.19798047593E-03 -0.17622185814E-01  0.53229452625E-01  0.50000000745E-01 0. -1.
</event>
<event>
 4   0  0.6886900E-01  0.9118800E+02  0.7818609E-02  0.1379984E+01
      -11   -1    0    0    0    0  0.00000000000E+00  0.00000000000E+00  0.35740347158E-01  0.35744000000E-01  0.51099999109E-03 0.  1.
       11   -1    0    0    0    0 -0.00000000000E+00 -0.00000000000E+00 -0.35740347158E-01  0.35744000000E-01  0.51099999109E-03 0. -1.
       22    1    1    2    0    0  0.42962722724E-02  0.80445179276E-02 -0.15817785184E-01  0.18258547375E-01  0.00000000000E+00 0. -1.
  9000001    1    1    2    0    0 -0.42962722724E-02 -0.80445179276E-02  0.15817785184E-01  0.53229452625E-01  0.50000000745E-01 0.  1.
</event>
<event>
 4   0  0.6886900E-01  0.9118800E+02  0.7818609E-02  0.1379984E+01
      -11   -1    0    0    0    0  0.00000000000E+00  0.00000000000E+00  0.35740347158E-01  0.35744000000E-01  0.51099999109E-03 0. -1.
       11   -1    0    0    0    0 -0.00000000000E+00 -0.00000000000E+00 -0.35740347158E-01  0.35744000000E-01  0.51099999109E-03 0.  1.
       22    1    1    2    0    0 -0.10158844643E-01  0.17937268162E-02 -0.15065024789E-01  0.18258547375E-01  0.00000000000E+00 0. -1.
  9000001    1    1    2    0    0  0.10158844643E-01 -0.17937268162E-02  0.15065024789E-01  0.53229452625E-01  0.50000000745E-01 0.  0.
</event>
<event>
 4   0  0.6886900E-01  0.9118800E+02  0.7818609E-02  0.1379984E+01
      -11   -1    0    0    0    0  0.00000000000E+00  0.00000000000E+00  0.35740347158E-01  0.35744000000E-01  0.51099999109E-03 0.  1.
       11   -1    0    0    0    0 -0.00000000000E+00 -0.00000000000E+00 -0.35740347158E-01  0.35744000000E-01  0.51099999109E-03 0. -1.
       22    1    1    2    0    0 -0.11310465317E-02 -0.43826956135E-02 -0.17688619651E-01  0.18258547375E-01  0.00000000000E+00 0.  1.
  9000001    1    1    2    0    0  0.11310465317E-02  0.43826956135E-02  0.17688619651E-01  0.53229452625E-01  0.50000000745E-01 0.  1.
</event>
<event>
 4   0  0.6886900E-01  0.9118800E+02  0.7818609E-02  0.1379984E+01
      -11   -1    0    0    0    0  0.00000000000E+00  0.00000000000E+00  0.35740347158E-01  0.35744000000E-01  0.51099999109E-03 0. -1.
       11   -1    0    0    0    0 -0.00000000000E+00 -0.00000000000E+00 -0.35740347158E-01  0.35744000000E-01  0.51099999109E-03 0.  1.
       22    1    1    2    0    0 -0.16974877377E-01  0.56342577760E-02  0.36719517441E-02  0.18258547375E-01  0.00000000000E+00 0. -1.
  9000001    1    1    2    0    0  0.16974877377E-01 -0.56342577760E-02 -0.36719517441E-02  0.53229452625E-01  0.50000000745E-01 0.  1.
</event>
<event>
 4   0  0.6886900E-01  0.9118800E+02  0.7818609E-02  0.1379984E+01
      -11   -1    0    0    0    0  0.00000000000E+00  0.00000000000E+00  0.35740347158E-01  0.35744000000E-01  0.51099999109E-03 0. -1.
       11   -1    0    0    0    0 -0.00000000000E+00 -0.00000000000E+00 -0.35740347158E-01  0.35744000000E-01  0.51099999109E-03 0.  1.
       22    1    1    2    0    0 -0.58428775572E-02 -0.12153283260E-01  0.12309875714E-01  0.18258547375E-01  0.00000000000E+00 0. -1.
  9000001    1    1    2    0    0  0.58428775572E-02  0.12153283260E-01 -0.12309875714E-01  0.53229452625E-01  0.50000000745E-01 0.  0.
</event>
<event>
 4   0  0.6886900E-01  0.9118800E+02  0.7818609E-02  0.1379984E+01
      -11   -1    0    0    0    0  0.00000000000E+00  0.00000000000E+00  0.35740347158E-01  0.35744000000E-01  0.51099999109E-03 0.  1.
       11   -1    0    0    0    0 -0.00000000000E+00 -0.00000000000E+00 -0.35740347158E-01  0.35744000000E-01  0.51099999109E-03 0. -1.
       22    1    1    2    0    0 -0.47649038711E-02 -0.44540329338E-03 -0.17620211669E-01  0.18258547375E-01  0.00000000000E+00 0. -1.
  9000001    1    1    2    0    0  0.47649038711E-02  0.44540329338E-03  0.17620211669E-01  0.53229452625E-01  0.50000000745E-01 0.  1.
</event>
<event>
 4   0  0.6886900E-01  0.9118800E+02  0.7818609E-02  0.1379984E+01
      -11   -1    0    0    0    0  0.00000000000E+00  0.00000000000E+00  0.35740347158E-01  0.35744000000E-01  0.51099999109E-03 0. -1.
       11   -1    0    0    0    0 -0.00000000000E+00 -0.00000000000E+00 -0.35740347158E-01  0.35744000000E-01  0.51099999109E-03 0.  1.
       22    1    1    2    0    0  0.39858622748E-02 -0.10391419572E-02 -0.17787850859E-01  0.18258547375E-01  0.00000000000E+00 0.  1.
  9000001    1    1    2    0    0 -0.39858622748E-02  0.10391419572E-02  0.17787850859E-01  0.53229452625E-01  0.50000000745E-01 0. -1.
</event>
<event>
 4   0  0.6886900E-01  0.9118800E+02  0.7818609E-02  0.1379984E+01
      -11   -1    0    0    0    0  0.00000000000E+00  0.00000000000E+00  0.35740347158E-01  0.35744000000E-01  0.51099999109E-03 0.  1.
       11   -1    0    0    0    0 -0.00000000000E+00 -0.00000000000E+00 -0.35740347158E-01  0.35744000000E-01  0.51099999109E-03 0. -1.
       22    1    1    2    0    0 -0.19350751719E-02  0.26083403623E-02 -0.17967375904E-01  0.18258547375E-01  0.00000000000E+00 0. -1.
  9000001    1    1    2    0    0  0.19350751719E-02 -0.26083403623E-02  0.17967375904E-01  0.53229452625E-01  0.50000000745E-01 0.  1.
</event>
<event>
 4   0  0.6886900E-01  0.9118800E+02  0.7818609E-02  0.1379984E+01
      -11   -1    0    0    0    0  0.00000000000E+00  0.00000000000E+00  0.35740347158E-01  0.35744000000E-01  0.51099999109E-03 0.  1.
       11   -1    0    0    0    0 -0.00000000000E+00 -0.00000000000E+00 -0.35740347158E-01  0.35744000000E-01  0.51099999109E-03 0. -1.
       22    1    1    2    0    0  0.27668538759E-02  0.14685777343E-02 -0.17987838984E-01  0.18258547375E-01  0.00000000000E+00 0. -1.
  9000001    1    1    2    0    0 -0.27668538759E-02 -0.14685777343E-02  0.17987838984E-01  0.53229452625E-01  0.50000000745E-01 0.  1.
</event>
<event>
 4   0  0.6886900E-01  0.9118800E+02  0.7818609E-02  0.1379984E+01
      -11   -1    0    0    0    0  0.00000000000E+00  0.00000000000E+00  0.35740347158E-01  0.35744000000E-01  0.51099999109E-03 0. -1.
       11   -1    0    0    0    0 -0.00000000000E+00 -0.00000000000E+00 -0.35740347158E-01  0.35744000000E-01  0.51099999109E-03 0.  1.
       22    1    1    2    0    0 -0.97712436908E-02 -0.19325012979E-03 -0.15422710636E-01  0.18258547375E-01  0.00000000000E+00 0.  1.
  9000001    1    1    2    0    0  0.97712436908E-02  0.19325012979E-03  0.15422710636E-01  0.53229452625E-01  0.50000000745E-01 0. -1.
</event>
<event>
 4   0  0.6886900E-01  0.9118800E+02  0.7818609E-02  0.1379984E+01
      -11   -1    0    0    0    0  0.00000000000E+00  0.00000000000E+00  0.35740347158E-01  0.35744000000E-01  0.51099999109E-03 0.  1.
       11   -1    0    0    0    0 -0.00000000000E+00 -0.00000000000E+00 -0.35740347158E-01  0.35744000000E-01  0.51099999109E-03 0. -1.
       22    1    1    2    0    0  0.16901602754E-02 -0.25459977129E-02  0.18000994587E-01  0.18258547375E-01  0.00000000000E+00 0.  1.
  9000001    1    1    2    0    0 -0.16901602754E-02  0.25459977129E-02 -0.18000994587E-01  0.53229452625E-01  0.50000000745E-01 0. -1.
</event>
</LesHouchesEvents>
