<LesHouchesEvents version="3.0">
<header>
<!--
#*********************************************************************
#                                                                    *
#                        MadGraph5_aMC@NLO                           *
#                                                                    *
#                           Going Beyond                             *
#                                                                    *
#                   http://madgraph.hep.uiuc.edu                     *
#                   http://madgraph.phys.ucl.ac.be                   *
#                   http://amcatnlo.cern.ch                          *
#                                                                    *
#                     The MadGraph5_aMC@NLO team                     *
#                                                                    *
#....................................................................*
#                                                                    *
# This file contains all the information necessary to reproduce      *
# the events generated:                                              *
#                                                                    *
# 1. software version                                                *
# 2. proc_card          : code generation info including model       *
# 3. param_card         : model primary parameters in the LH format  *
# 4. run_card           : running parameters (collider and cuts)     *
# 5. pythia_card        : present only if pythia has been run        *
# 6. pgs_card           : present only if pgs has been run           *
# 7. delphes_cards      : present only if delphes has been run       *
#                                                                    *
#                                                                    *
#*********************************************************************
-->
<MGVersion>
#5.2.1.2
</MGVersion>
<MG5ProcCard>
#************************************************************
#*                     MadGraph5_aMC@NLO                    *
#*                                                          *
#*                *                       *                 *
#*                  *        * *        *                   *
#*                    * * * * 5 * * * *                     *
#*                  *        * *        *                   *
#*                *                       *                 *
#*                                                          *
#*                                                          *
#*         VERSION 2.1.2                 2014-07-03         *
#*                                                          *
#*    The MadGraph5_aMC@NLO Development Team - Find us at   *
#*    https://server06.fynu.ucl.ac.be/projects/madgraph     *
#*                                                          *
#************************************************************
#*                                                          *
#*               Command File for MadGraph5_aMC@NLO         *
#*                                                          *
#*     run as ./bin/mg5_aMC  filename                       *
#*                                                          *
#************************************************************
set group_subprocesses Auto
set ignore_six_quark_processes False
set gauge unitary
set complex_mass_scheme False
import model sm-lepton_masses
define p = g u c d s u~ c~ d~ s~
define j = g u c d s u~ c~ d~ s~
define l+ = e+ mu+
define l- = e- mu-
define vl = ve vm vt
define vl~ = ve~ vm~ vt~
generate e+ e- > e+ e-
output ../../e+e-2e+e-
</MG5ProcCard>
<MGProcCard>
#*********************************************************************
#                        MadGraph/MadEvent                           *
#                   http://madgraph.hep.uiuc.edu                     *
#                                                                    *
#                          proc_card.dat                             *
#*********************************************************************
#                                                                    *
#            This Files is generated by MADGRAPH 5                   *
#                                                                    *
# WARNING: This Files is generated for MADEVENT (compatibility issue)*
#          This files is NOT a valid MG4 proc_card.dat               *
#          Running this in MG4 will NEVER reproduce the result of MG5*
#                                                                    *
#*********************************************************************
#*********************************************************************
# Process(es) requested : mg2 input                                  *
#*********************************************************************
# Begin PROCESS # This is TAG. Do not modify this line
e+ e- > e+ e-           #Process
# Be carefull the coupling are here in MG5 convention
          
end_coup           # End the couplings input

done               # this tells MG there are no more procs
# End PROCESS  # This is TAG. Do not modify this line
#*********************************************************************
# Model information                                                  *
#*********************************************************************
# Begin MODEL  # This is TAG. Do not modify this line
sm-lepton_masses
# End   MODEL  # This is TAG. Do not modify this line
#*********************************************************************
# Start multiparticle definitions                                    *
#*********************************************************************
# Begin MULTIPARTICLES # This is TAG. Do not modify this line

# End  MULTIPARTICLES # This is TAG. Do not modify this line
</MGProcCard>
<MGRunCard>
#*********************************************************************
#                       MadGraph5_aMC@NLO                            *
#                                                                    *
#                     run_card.dat MadEvent                          *
#                                                                    *
#  This file is used to set the parameters of the run.               *
#                                                                    *
#  Some notation/conventions:                                        *
#                                                                    *
#   Lines starting with a '# ' are info or comments                  *
#                                                                    *
#   mind the format:   value    = variable     ! comment             *
#*********************************************************************
#
#*******************                                                 
# Running parameters
#*******************                                                 
#                                                                    
#*********************************************************************
# Tag name for the run (one word)                                    *
#*********************************************************************
  tag_1     = run_tag ! name of the run 
#*********************************************************************
# Run to generate the grid pack                                      *
#*********************************************************************
  .false.     = gridpack  !True = setting up the grid pack
#*********************************************************************
# Number of events and rnd seed                                      *
# Warning: Do not generate more than 1M events in a single run       *
# If you want to run Pythia, avoid more than 50k events in a run.    *
#*********************************************************************
  10000 = nevents ! Number of unweighted events requested 
 165 = iseed   ! rnd seed (0=assigned automatically=default))
#*********************************************************************
# Collider type and energy                                           *
# lpp: 0=No PDF, 1=proton, -1=antiproton, 2=photon from proton,      *
#                                         3=photon from electron     *
#*********************************************************************
        0     = lpp1    ! beam 1 type 
        -0     = lpp2    ! beam 2 type
     0.035744     = ebeam1  ! beam 1 total energy in GeV
     0.035744     = ebeam2  ! beam 2 total energy in GeV
#*********************************************************************
# Beam polarization from -100 (left-handed) to 100 (right-handed)    *
#*********************************************************************
        0     = polbeam1 ! beam polarization for beam 1
        0     = polbeam2 ! beam polarization for beam 2
#*********************************************************************
# PDF CHOICE: this automatically fixes also alpha_s and its evol.    *
#*********************************************************************
 'nn23lo1'    = pdlabel     ! PDF set                                     
#*********************************************************************
# Renormalization and factorization scales                           *
#*********************************************************************
 T        = fixed_ren_scale  ! if .true. use fixed ren scale
 T        = fixed_fac_scale  ! if .true. use fixed fac scale
 91.1880  = scale            ! fixed ren scale
 91.1880  = dsqrt_q2fact1    ! fixed fact scale for pdf1
 91.1880  = dsqrt_q2fact2    ! fixed fact scale for pdf2
 1        = scalefact        ! scale factor for event-by-event scales
#*********************************************************************
# Matching - Warning! ickkw > 1 is still beta
#*********************************************************************
 0        = ickkw            ! 0 no matching, 1 MLM, 2 CKKW matching
 1        = highestmult      ! for ickkw=2, highest mult group
 1        = ktscheme         ! for ickkw=1, 1 Durham kT, 2 Pythia pTE
 1        = alpsfact         ! scale factor for QCD emission vx
 F        = chcluster        ! cluster only according to channel diag
 T        = pdfwgt           ! for ickkw=1, perform pdf reweighting
 5        = asrwgtflavor     ! highest quark flavor for a_s reweight
 T        = clusinfo         ! include clustering tag in output
 3.0      = lhe_version       ! Change the way clustering information pass to shower.        
#*********************************************************************
#**********************************************************
#
#**********************************************************
# Automatic ptj and mjj cuts if xqcut > 0
# (turn off for VBF and single top processes)
#**********************************************************
   T  = auto_ptj_mjj  ! Automatic setting of ptj and mjj
#**********************************************************
#                                                                    
#**********************************
# BW cutoff (M+/-bwcutoff*Gamma)
#**********************************
  15  = bwcutoff      ! (M+/-bwcutoff*Gamma)
#**********************************************************
# Apply pt/E/eta/dr/mij cuts on decay products or not
# (note that etmiss/ptll/ptheavy/ht/sorted cuts always apply)
#**********************************************************
   T  = cut_decays    ! Cut decay products 
#*************************************************************
# Number of helicities to sum per event (0 = all helicities)
# 0 gives more stable result, but longer run time (needed for
# long decay chains e.g.).
# Use >=2 if most helicities contribute, e.g. pure QCD.
#*************************************************************
   0  = nhel          ! Number of helicities used per event
#*******************                                                 
# Standard Cuts
#*******************                                                 
#                                                                    
#*********************************************************************
# Minimum and maximum pt's (for max, -1 means no cut)                *
#*********************************************************************
 20  = ptj       ! minimum pt for the jets 
  0  = ptb       ! minimum pt for the b 
 0  = pta       ! minimum pt for the photons 
 0.003  = ptl       ! minimum pt for the charged leptons 
  0  = misset    ! minimum missing Et (sum of neutrino's momenta)
  0  = ptheavy   ! minimum pt for one heavy final state
 1.0 = ptonium   ! minimum pt for the quarkonium states
 -1  = ptjmax    ! maximum pt for the jets
 -1  = ptbmax    ! maximum pt for the b
 -1  = ptamax    ! maximum pt for the photons
 -1  = ptlmax    ! maximum pt for the charged leptons
 -1  = missetmax ! maximum missing Et (sum of neutrino's momenta)
#*********************************************************************
# Minimum and maximum E's (in the center of mass frame)              *
#*********************************************************************
  0  = ej     ! minimum E for the jets 
  0  = eb     ! minimum E for the b 
  0  = ea     ! minimum E for the photons 
  0  = el     ! minimum E for the charged leptons 
 -1   = ejmax ! maximum E for the jets
 -1   = ebmax ! maximum E for the b
 -1   = eamax ! maximum E for the photons
 -1   = elmax ! maximum E for the charged leptons
#*********************************************************************
# Maximum and minimum absolute rapidity (for max, -1 means no cut)   *
#*********************************************************************
   5  = etaj    ! max rap for the jets 
  -1  = etab    ! max rap for the b
  -1 = etaa
#  1.58619 = etaa    ! max rap for the photons 
 -1  = etal    ! max rap for the charged leptons 
 0.6  = etaonium ! max rap for the quarkonium states
   0  = etajmin ! min rap for the jets
   0  = etabmin ! min rap for the b
   0 = etaamin 
#   1.29833  = etaamin ! min rap for the photons
   0  = etalmin ! main rap for the charged leptons
#*********************************************************************
# Minimum and maximum DeltaR distance                                *
#*********************************************************************
 0.4 = drjj    ! min distance between jets 
 0   = drbb    ! min distance between b's 
 0.4 = drll    ! min distance between leptons 
 0 = draa    ! min distance between gammas 
 0   = drbj    ! min distance between b and jet 
 0.4 = draj    ! min distance between gamma and jet 
 0.4 = drjl    ! min distance between jet and lepton 
 0   = drab    ! min distance between gamma and b 
 0   = drbl    ! min distance between b and lepton 
 0 = dral    ! min distance between gamma and lepton 
 -1  = drjjmax ! max distance between jets
 -1  = drbbmax ! max distance between b's
 -1  = drllmax ! max distance between leptons
 -1  = draamax ! max distance between gammas
 -1  = drbjmax ! max distance between b and jet
 -1  = drajmax ! max distance between gamma and jet
 -1  = drjlmax ! max distance between jet and lepton
 -1  = drabmax ! max distance between gamma and b
 -1  = drblmax ! max distance between b and lepton
 -1  = dralmax ! maxdistance between gamma and lepton
#*********************************************************************
# Minimum and maximum invariant mass for pairs                       *
# WARNING: for four lepton final state mmll cut require to have      *
#          different lepton masses for each flavor!                  *           
#*********************************************************************
 0   = mmjj    ! min invariant mass of a jet pair 
 0   = mmbb    ! min invariant mass of a b pair 
 0   = mmaa    ! min invariant mass of gamma gamma pair
 0   = mmll    ! min invariant mass of l+l- (same flavour) lepton pair
 -1  = mmjjmax ! max invariant mass of a jet pair
 -1  = mmbbmax ! max invariant mass of a b pair
 -1  = mmaamax ! max invariant mass of gamma gamma pair
 -1  = mmllmax ! max invariant mass of l+l- (same flavour) lepton pair
#*********************************************************************
# Minimum and maximum invariant mass for all letpons                 *
#*********************************************************************
 0   = mmnl    ! min invariant mass for all letpons (l+- and vl) 
 -1  = mmnlmax ! max invariant mass for all letpons (l+- and vl) 
#*********************************************************************
# Minimum and maximum pt for 4-momenta sum of leptons                *
#*********************************************************************
 0   = ptllmin  ! Minimum pt for 4-momenta sum of leptons(l and vl)
 -1  = ptllmax  ! Maximum pt for 4-momenta sum of leptons(l and vl)
#*********************************************************************
# Inclusive cuts                                                     *
#*********************************************************************
 0  = xptj ! minimum pt for at least one jet  
 0  = xptb ! minimum pt for at least one b 
 0  = xpta ! minimum pt for at least one photon 
 0  = xptl ! minimum pt for at least one charged lepton 
#*********************************************************************
# Control the pt's of the jets sorted by pt                          *
#*********************************************************************
 0   = ptj1min ! minimum pt for the leading jet in pt
 0   = ptj2min ! minimum pt for the second jet in pt
 0   = ptj3min ! minimum pt for the third jet in pt
 0   = ptj4min ! minimum pt for the fourth jet in pt
 -1  = ptj1max ! maximum pt for the leading jet in pt 
 -1  = ptj2max ! maximum pt for the second jet in pt
 -1  = ptj3max ! maximum pt for the third jet in pt
 -1  = ptj4max ! maximum pt for the fourth jet in pt
 0   = cutuse  ! reject event if fails any (0) / all (1) jet pt cuts
#*********************************************************************
# Control the pt's of leptons sorted by pt                           *
#*********************************************************************
 0   = ptl1min ! minimum pt for the leading lepton in pt
 0   = ptl2min ! minimum pt for the second lepton in pt
 0   = ptl3min ! minimum pt for the third lepton in pt
 0   = ptl4min ! minimum pt for the fourth lepton in pt
 -1  = ptl1max ! maximum pt for the leading lepton in pt 
 -1  = ptl2max ! maximum pt for the second lepton in pt
 -1  = ptl3max ! maximum pt for the third lepton in pt
 -1  = ptl4max ! maximum pt for the fourth lepton in pt
#*********************************************************************
# Control the Ht(k)=Sum of k leading jets                            *
#*********************************************************************
 0   = htjmin ! minimum jet HT=Sum(jet pt)
 -1  = htjmax ! maximum jet HT=Sum(jet pt)
 0   = ihtmin  !inclusive Ht for all partons (including b)
 -1  = ihtmax  !inclusive Ht for all partons (including b)
 0   = ht2min ! minimum Ht for the two leading jets
 0   = ht3min ! minimum Ht for the three leading jets
 0   = ht4min ! minimum Ht for the four leading jets
 -1  = ht2max ! maximum Ht for the two leading jets
 -1  = ht3max ! maximum Ht for the three leading jets
 -1  = ht4max ! maximum Ht for the four leading jets
#***********************************************************************
# Photon-isolation cuts, according to hep-ph/9801442                   *
# When ptgmin=0, all the other parameters are ignored                  *
# When ptgmin>0, pta and draj are not going to be used                 *
#***********************************************************************
   0 = ptgmin ! Min photon transverse momentum
 0.0 = R0gamma ! Radius of isolation code
 1.0 = xn ! n parameter of eq.(3.4) in hep-ph/9801442
 1.0 = epsgamma ! epsilon_gamma parameter of eq.(3.4) in hep-ph/9801442
 .true. = isoEM ! isolate photons from EM energy (photons and leptons)
#*********************************************************************
# WBF cuts                                                           *
#*********************************************************************
 0   = xetamin ! minimum rapidity for two jets in the WBF case  
 0   = deltaeta ! minimum rapidity for two jets in the WBF case 
#*********************************************************************
# KT DURHAM CUT                                                      *
#*********************************************************************
 -1    =  ktdurham        
 0.4  =  dparameter 
#*********************************************************************
# maximal pdg code for quark to be considered as a light jet         *
# (otherwise b cuts are applied)                                     *
#*********************************************************************
 4 = maxjetflavor    ! Maximum jet pdg code
#*********************************************************************
# Jet measure cuts                                                   *
#*********************************************************************
 0   = xqcut   ! minimum kt jet measure between partons
#*********************************************************************
#
#*********************************************************************
# Store info for systematics studies                                 *
# WARNING: If use_syst is T, matched Pythia output is                *
#          meaningful ONLY if plotted taking matchscale              *
#          reweighting into account!                                 *
#*********************************************************************
   F  = use_syst      ! Enable systematics studies
#
#**************************************
# Parameter of the systematics study
#  will be used by SysCalc (if installed)
#**************************************                                  
#
0.5 1 2 = sys_scalefact  # factorization/renormalization scale factor
0.5 1 2 = sys_alpsfact  # \alpha_s emission scale factors
30 50 = sys_matchscale # variation of merging scale
# PDF sets and number of members (0 or none for all members).
CT10nlo.LHgrid = sys_pdf # matching scales
# MSTW2008nlo68cl.LHgrid 1  = sys_pdf
</MGRunCard>
<slha>
######################################################################
## PARAM_CARD AUTOMATICALY GENERATED BY MG5 FOLLOWING UFO MODEL   ####
######################################################################
##                                                                  ##
##  Width set on Auto will be computed following the information    ##
##        present in the decay.py files of the model.               ##
##        See  arXiv:1402.1178 for more details.                    ##
##                                                                  ##
######################################################################

###################################
## INFORMATION FOR MASS
###################################
Block mass 
    5 4.700000e+00 # MB 
    6 1.730000e+02 # MT 
   11 5.110000e-04 # Me 
   13 1.056600e-01 # MM 
   15 1.777000e+00 # MTA 
   23 9.118800e+01 # MZ 
   25 1.250000e+02 # MH 
## Dependent parameters, given by model restrictions.
## Those values should be edited following the 
## analytical expression. MG5 ignores those values 
## but they are important for interfacing the output of MG5
## to external program such as Pythia.
  1 0.000000 # d : 0.0 
  2 0.000000 # u : 0.0 
  3 0.000000 # s : 0.0 
  4 0.000000 # c : 0.0 
  12 0.000000 # ve : 0.0 
  14 0.000000 # vm : 0.0 
  16 0.000000 # vt : 0.0 
  21 0.000000 # g : 0.0 
  22 0.000000 # a : 0.0 
  24 80.419002 # w+ : cmath.sqrt(MZ__exp__2/2. + cmath.sqrt(MZ__exp__4/4. - (aEW*cmath.pi*MZ__exp__2)/(Gf*sqrt__2))) 

###################################
## INFORMATION FOR SMINPUTS
###################################
Block sminputs 
    1 1.325070e+02 # aEWM1 
    2 1.166390e-05 # Gf 
    3 1.180000e-01 # aS 

###################################
## INFORMATION FOR YUKAWA
###################################
Block yukawa 
    5 4.700000e+00 # ymb 
    6 1.730000e+02 # ymt 
   11 5.110000e-04 # yme 
   13 1.056600e-01 # ymm 
   15 1.777000e+00 # ymtau 

###################################
## INFORMATION FOR DECAY
###################################
DECAY   6 1.491500e+00 # WT 
DECAY  15 2.270000e-12 # WTau 
DECAY  23 2.441404e+00 # WZ 
DECAY  24 2.047600e+00 # WW 
DECAY  25 6.382339e-03 # WH 
## Dependent parameters, given by model restrictions.
## Those values should be edited following the 
## analytical expression. MG5 ignores those values 
## but they are important for interfacing the output of MG5
## to external program such as Pythia.
DECAY  1 0.000000 # d : 0.0 
DECAY  2 0.000000 # u : 0.0 
DECAY  3 0.000000 # s : 0.0 
DECAY  4 0.000000 # c : 0.0 
DECAY  5 0.000000 # b : 0.0 
DECAY  11 0.000000 # e- : 0.0 
DECAY  12 0.000000 # ve : 0.0 
DECAY  13 0.000000 # mu- : 0.0 
DECAY  14 0.000000 # vm : 0.0 
DECAY  16 0.000000 # vt : 0.0 
DECAY  21 0.000000 # g : 0.0 
DECAY  22 0.000000 # a : 0.0
</slha>
## END BANNER##
<MGGenerationInfo>
#  Number of Events        :        10000
#  Integrated weight (pb)  :  0.30282E+11
#  Truncated wgt (pb)      :  0.00000E+00
#  Unit wgt                :  0.30282E+07
</MGGenerationInfo>
</header>
<init>
      -11       11  0.35744000000E-01  0.35744000000E-01 0 0       0       0 3   1
  0.30279206228E+11  0.28643357163E+08  0.30282000000E+07   0
<generator name='MadGraph5_aMC@NLO' version='#5.2.1.2'>please cite 1405.0301 </generator>
</init>
<event>
 4   0  0.3028200E+07  0.9118800E+02  0.7546771E-02  0.1180000E+00
      -11   -1    0    0    0    0  0.00000000000E+00  0.00000000000E+00  0.35740347158E-01  0.35744000000E-01  0.51099999109E-03 0.  1.
       11   -1    0    0    0    0 -0.00000000000E+00 -0.00000000000E+00 -0.35740347158E-01  0.35744000000E-01  0.51099999109E-03 0.  1.
      -11    1    1    2    0    0 -0.11535778732E-01 -0.11470886588E-01  0.31823214560E-01  0.35744000000E-01  0.51099999109E-03 0.  1.
       11    1    1    2    0    0  0.11535778732E-01  0.11470886588E-01 -0.31823214560E-01  0.35744000000E-01  0.51099999109E-03 0.  1.
</event>
<event>
 4   0  0.3028200E+07  0.9118800E+02  0.7546771E-02  0.1180000E+00
      -11   -1    0    0    0    0  0.00000000000E+00  0.00000000000E+00  0.35740347158E-01  0.35744000000E-01  0.51099999109E-03 0. -1.
       11   -1    0    0    0    0 -0.00000000000E+00 -0.00000000000E+00 -0.35740347158E-01  0.35744000000E-01  0.51099999109E-03 0.  1.
      -11    1    1    2    0    0  0.73483585930E-02  0.23879381135E-01  0.25556783788E-01  0.35744000000E-01  0.51099999109E-03 0. -1.
       11    1    1    2    0    0 -0.73483585930E-02 -0.23879381135E-01 -0.25556783788E-01  0.35744000000E-01  0.51099999109E-03 0.  1.
</event>
<event>
 4   0  0.3028200E+07  0.9118800E+02  0.7546771E-02  0.1180000E+00
      -11   -1    0    0    0    0  0.00000000000E+00  0.00000000000E+00  0.35740347158E-01  0.35744000000E-01  0.51099999109E-03 0. -1.
       11   -1    0    0    0    0 -0.00000000000E+00 -0.00000000000E+00 -0.35740347158E-01  0.35744000000E-01  0.51099999109E-03 0. -1.
      -11    1    1    2    0    0  0.48581452330E-02 -0.11094691612E-01  0.33625565541E-01  0.35744000000E-01  0.51099999109E-03 0. -1.
       11    1    1    2    0    0 -0.48581452330E-02  0.11094691612E-01 -0.33625565541E-01  0.35744000000E-01  0.51099999109E-03 0. -1.
</event>
<event>
 4   0  0.3028200E+07  0.9118800E+02  0.7546771E-02  0.1180000E+00
      -11   -1    0    0    0    0  0.00000000000E+00  0.00000000000E+00  0.35740347158E-01  0.35744000000E-01  0.51099999109E-03 0.  1.
       11   -1    0    0    0    0 -0.00000000000E+00 -0.00000000000E+00 -0.35740347158E-01  0.35744000000E-01  0.51099999109E-03 0. -1.
      -11    1    1    2    0    0  0.47936195295E-02  0.11278121006E-01  0.33573763766E-01  0.35744000000E-01  0.51099999109E-03 0.  1.
       11    1    1    2    0    0 -0.47936195295E-02 -0.11278121006E-01 -0.33573763766E-01  0.35744000000E-01  0.51099999109E-03 0. -1.
</event>
<event>
 4   0  0.3028200E+07  0.9118800E+02  0.7546771E-02  0.1180000E+00
      -11   -1    0    0    0    0  0.00000000000E+00  0.00000000000E+00  0.35740347158E-01  0.35744000000E-01  0.51099999109E-03 0.  1.
       11   -1    0    0    0    0 -0.00000000000E+00 -0.00000000000E+00 -0.35740347158E-01  0.35744000000E-01  0.51099999109E-03 0. -1.
      -11    1    1    2    0    0 -0.34866924586E-02  0.11245412868E-01  0.33745460141E-01  0.35744000000E-01  0.51099999109E-03 0.  1.
       11    1    1    2    0    0  0.34866924586E-02 -0.11245412868E-01 -0.33745460141E-01  0.35744000000E-01  0.51099999109E-03 0. -1.
</event>
<event>
 4   0  0.3028200E+07  0.9118800E+02  0.7546771E-02  0.1180000E+00
      -11   -1    0    0    0    0  0.00000000000E+00  0.00000000000E+00  0.35740347158E-01  0.35744000000E-01  0.51099999109E-03 0. -1.
       11   -1    0    0    0    0 -0.00000000000E+00 -0.00000000000E+00 -0.35740347158E-01  0.35744000000E-01  0.51099999109E-03 0. -1.
      -11    1    1    2    0    0  0.14168018187E-01 -0.14583159369E-01  0.29393385965E-01  0.35744000000E-01  0.51099999109E-03 0. -1.
       11    1    1    2    0    0 -0.14168018187E-01  0.14583159369E-01 -0.29393385965E-01  0.35744000000E-01  0.51099999109E-03 0. -1.
</event>
<event>
 4   0  0.3028200E+07  0.9118800E+02  0.7546771E-02  0.1180000E+00
      -11   -1    0    0    0    0  0.00000000000E+00  0.00000000000E+00  0.35740347158E-01  0.35744000000E-01  0.51099999109E-03 0.  1.
       11   -1    0    0    0    0 -0.00000000000E+00 -0.00000000000E+00 -0.35740347158E-01  0.35744000000E-01  0.51099999109E-03 0.  1.
      -11    1    1    2    0    0  0.42756248268E-02 -0.17118607821E-01  0.31081259846E-01  0.35744000000E-01  0.51099999109E-03 0.  1.
       11    1    1    2    0    0 -0.42756248268E-02  0.17118607821E-01 -0.31081259846E-01  0.35744000000E-01  0.51099999109E-03 0.  1.
</event>
<event>
 4   0  0.3028200E+07  0.9118800E+02  0.7546771E-02  0.1180000E+00
      -11   -1    0    0    0    0  0.00000000000E+00  0.00000000000E+00  0.35740347158E-01  0.35744000000E-01  0.51099999109E-03 0.  1.
       11   -1    0    0    0    0 -0.00000000000E+00 -0.00000000000E+00 -0.35740347158E-01  0.35744000000E-01  0.51099999109E-03 0.  1.
      -11    1    1    2    0    0  0.46815217443E-02  0.18976570249E-01  0.29922325290E-01  0.35744000000E-01  0.51099999109E-03 0.  1.
       11    1    1    2    0    0 -0.46815217443E-02 -0.18976570249E-01 -0.29922325290E-01  0.35744000000E-01  0.51099999109E-03 0.  1.
</event>
<event>
 4   0  0.3028200E+07  0.9118800E+02  0.7546771E-02  0.1180000E+00
      -11   -1    0    0    0    0  0.00000000000E+00  0.00000000000E+00  0.35740347158E-01  0.35744000000E-01  0.51099999109E-03 0.  1.
       11   -1    0    0    0    0 -0.00000000000E+00 -0.00000000000E+00 -0.35740347158E-01  0.35744000000E-01  0.51099999109E-03 0.  1.
      -11    1    1    2    0    0 -0.10029548924E-01 -0.11816388363E-01  0.32204868102E-01  0.35744000000E-01  0.51099999109E-03 0.  1.
       11    1    1    2    0    0  0.10029548924E-01  0.11816388363E-01 -0.32204868102E-01  0.35744000000E-01  0.51099999109E-03 0.  1.
</event>
<event>
 4   0  0.3028200E+07  0.9118800E+02  0.7546771E-02  0.1180000E+00
      -11   -1    0    0    0    0  0.00000000000E+00  0.00000000000E+00  0.35740347158E-01  0.35744000000E-01  0.51099999109E-03 0. -1.
       11   -1    0    0    0    0 -0.00000000000E+00 -0.00000000000E+00 -0.35740347158E-01  0.35744000000E-01  0.51099999109E-03 0. -1.
      -11    1    1    2    0    0  0.12001752367E-01  0.46566313810E-02  0.33341357790E-01  0.35744000000E-01  0.51099999109E-03 0. -1.
       11    1    1    2    0    0 -0.12001752367E-01 -0.46566313810E-02 -0.33341357790E-01  0.35744000000E-01  0.51099999109E-03 0. -1.
</event>
<event>
 4   0  0.3028200E+07  0.9118800E+02  0.7546771E-02  0.1180000E+00
      -11   -1    0    0    0    0  0.00000000000E+00  0.00000000000E+00  0.35740347158E-01  0.35744000000E-01  0.51099999109E-03 0.  1.
       11   -1    0    0    0    0 -0.00000000000E+00 -0.00000000000E+00 -0.35740347158E-01  0.35744000000E-01  0.51099999109E-03 0. -1.
      -11    1    1    2    0    0  0.19001926258E-01 -0.10077887175E-01  0.28543570267E-01  0.35744000000E-01  0.51099999109E-03 0.  1.
       11    1    1    2    0    0 -0.19001926258E-01  0.10077887175E-01 -0.28543570267E-01  0.35744000000E-01  0.51099999109E-03 0. -1.
</event>
<event>
 4   0  0.3028200E+07  0.9118800E+02  0.7546771E-02  0.1180000E+00
      -11   -1    0    0    0    0  0.00000000000E+00  0.00000000000E+00  0.35740347158E-01  0.35744000000E-01  0.51099999109E-03 0. -1.
       11   -1    0    0    0    0 -0.00000000000E+00 -0.00000000000E+00 -0.35740347158E-01  0.35744000000E-01  0.51099999109E-03 0.  1.
      -11    1    1    2    0    0  0.11453318540E-01  0.13483517637E-01  0.31054607735E-01  0.35744000000E-01  0.51099999109E-03 0. -1.
       11    1    1    2    0    0 -0.11453318540E-01 -0.13483517637E-01 -0.31054607735E-01  0.35744000000E-01  0.51099999109E-03 0.  1.
</event>
<event>
 4   0  0.3028200E+07  0.9118800E+02  0.7546771E-02  0.1180000E+00
      -11   -1    0    0    0    0  0.00000000000E+00  0.00000000000E+00  0.35740347158E-01  0.35744000000E-01  0.51099999109E-03 0. -1.
       11   -1    0    0    0    0 -0.00000000000E+00 -0.00000000000E+00 -0.35740347158E-01  0.35744000000E-01  0.51099999109E-03 0.  1.
      -11    1    1    2    0    0  0.14266977447E-01 -0.18212994973E-01  0.27241743403E-01  0.35744000000E-01  0.51099999109E-03 0. -1.
       11    1    1    2    0    0 -0.14266977447E-01  0.18212994973E-01 -0.27241743403E-01  0.35744000000E-01  0.51099999109E-03 0.  1.
</event>
<event>
 4   0  0.3028200E+07  0.9118800E+02  0.7546771E-02  0.1180000E+00
      -11   -1    0    0    0    0  0.00000000000E+00  0.00000000000E+00  0.35740347158E-01  0.35744000000E-01  0.51099999109E-03 0.  1.
       11   -1    0    0    0    0 -0.00000000000E+00 -0.00000000000E+00 -0.35740347158E-01  0.35744000000E-01  0.51099999109E-03 0.  1.
      -11    1    1    2    0    0 -0.20905528332E-02  0.11842004984E-01  0.33656632657E-01  0.35744000000E-01  0.51099999109E-03 0.  1.
       11    1    1    2    0    0  0.20905528332E-02 -0.11842004984E-01 -0.33656632657E-01  0.35744000000E-01  0.51099999109E-03 0.  1.
</event>
<event>
 4   0  0.3028200E+07  0.9118800E+02  0.7546771E-02  0.1180000E+00
      -11   -1    0    0    0    0  0.00000000000E+00  0.00000000000E+00  0.35740347158E-01  0.35744000000E-01  0.51099999109E-03 0.  1.
       11   -1    0    0    0    0 -0.00000000000E+00 -0.00000000000E+00 -0.35740347158E-01  0.35744000000E-01  0.51099999109E-03 0.  1.
      -11    1    1    2    0    0  0.48385196573E-02 -0.11755915034E-01  0.33402987954E-01  0.35744000000E-01  0.51099999109E-03 0.  1.
       11    1    1    2    0    0 -0.48385196573E-02  0.11755915034E-01 -0.33402987954E-01  0.35744000000E-01  0.51099999109E-03 0.  1.
</event>
<event>
 4   0  0.3028200E+07  0.9118800E+02  0.7546771E-02  0.1180000E+00
      -11   -1    0    0    0    0  0.00000000000E+00  0.00000000000E+00  0.35740347158E-01  0.35744000000E-01  0.51099999109E-03 0. -1.
       11   -1    0    0    0    0 -0.00000000000E+00 -0.00000000000E+00 -0.35740347158E-01  0.35744000000E-01  0.51099999109E-03 0. -1.
      -11    1    1    2    0    0  0.13612825440E-01 -0.83267302672E-02  0.31980133858E-01  0.35744000000E-01  0.51099999109E-03 0. -1.
       11    1    1    2    0    0 -0.13612825440E-01  0.83267302672E-02 -0.31980133858E-01  0.35744000000E-01  0.51099999109E-03 0. -1.
</event>
<event>
 4   0  0.3028200E+07  0.9118800E+02  0.7546771E-02  0.1180000E+00
      -11   -1    0    0    0    0  0.00000000000E+00  0.00000000000E+00  0.35740347158E-01  0.35744000000E-01  0.51099999109E-03 0. -1.
       11   -1    0    0    0    0 -0.00000000000E+00 -0.00000000000E+00 -0.35740347158E-01  0.35744000000E-01  0.51099999109E-03 0. -1.
      -11    1    1    2    0    0  0.23986722102E-01  0.69867134551E-02  0.25557687942E-01  0.35744000000E-01  0.51099999109E-03 0. -1.
       11    1    1    2    0    0 -0.23986722102E-01 -0.69867134551E-02 -0.25557687942E-01  0.35744000000E-01  0.51099999109E-03 0. -1.
</event>
<event>
 4   0  0.3028200E+07  0.9118800E+02  0.7546771E-02  0.1180000E+00
      -11   -1    0    0    0    0  0.00000000000E+00  0.00000000000E+00  0.35740347158E-01  0.35744000000E-01  0.51099999109E-03 0.  1.
       11   -1    0    0    0    0 -0.00000000000E+00 -0.00000000000E+00 -0.35740347158E-01  0.35744000000E-01  0.51099999109E-03 0.  1.
      -11    1    1    2    0    0  0.53867855754E-02 -0.16279269081E-01  0.31358258153E-01  0.35744000000E-01  0.51099999109E-03 0.  1.
       11    1    1    2    0    0 -0.53867855754E-02  0.16279269081E-01 -0.31358258153E-01  0.35744000000E-01  0.51099999109E-03 0.  1.
</event>
<event>
 4   0  0.3028200E+07  0.9118800E+02  0.7546771E-02  0.1180000E+00
      -11   -1    0    0    0    0  0.00000000000E+00  0.00000000000E+00  0.35740347158E-01  0.35744000000E-01  0.51099999109E-03 0.  1.
       11   -1    0    0    0    0 -0.00000000000E+00 -0.00000000000E+00 -0.35740347158E-01  0.35744000000E-01  0.51099999109E-03 0. -1.
      -11    1    1    2    0    0  0.93181314984E-02 -0.12298416394E-01  0.32238079884E-01  0.35744000000E-01  0.51099999109E-03 0.  1.
       11    1    1    2    0    0 -0.93181314984E-02  0.12298416394E-01 -0.32238079884E-01  0.35744000000E-01  0.51099999109E-03 0. -1.
</event>
<event>
 4   0  0.3028200E+07  0.9118800E+02  0.7546771E-02  0.1180000E+00
      -11   -1    0    0    0    0  0.00000000000E+00  0.00000000000E+00  0.35740347158E-01  0.35744000000E-01  0.51099999109E-03 0.  1.
       11   -1    0    0    0    0 -0.00000000000E+00 -0.00000000000E+00 -0.35740347158E-01  0.35744000000E-01  0.51099999109E-03 0.  1.
      -11    1    1    2    0    0  0.16182102974E-01 -0.49225467924E-03  0.31863296184E-01  0.35744000000E-01  0.51099999109E-03 0.  1.
       11    1    1    2    0    0 -0.16182102974E-01  0.49225467924E-03 -0.31863296184E-01  0.35744000000E-01  0.51099999109E-03 0.  1.
</event>
<event>
 4   0  0.3028200E+07  0.9118800E+02  0.7546771E-02  0.1180000E+00
      -11   -1    0    0    0    0  0.00000000000E+00  0.00000000000E+00  0.35740347158E-01  0.35744000000E-01  0.51099999109E-03 0. -1.
       11   -1    0    0    0    0 -0.00000000000E+00 -0.00000000000E+00 -0.35740347158E-01  0.35744000000E-01  0.51099999109E-03 0. -1.
      -11    1    1    2    0    0  0.74909798072E-02  0.95983344145E-02  0.33602523908E-01  0.35744000000E-01  0.51099999109E-03 0. -1.
       11    1    1    2    0    0 -0.74909798072E-02 -0.95983344145E-02 -0.33602523908E-01  0.35744000000E-01  0.51099999109E-03 0. -1.
</event>
<event>
 4   0  0.3028200E+07  0.9118800E+02  0.7546771E-02  0.1180000E+00
      -11   -1    0    0    0    0  0.00000000000E+00  0.00000000000E+00  0.35740347158E-01  0.35744000000E-01  0.51099999109E-03 0. -1.
       11   -1    0    0    0    0 -0.00000000000E+00 -0.00000000000E+00 -0.35740347158E-01  0.35744000000E-01  0.51099999109E-03 0. -1.
      -11    1    1    2    0    0 -0.30842069778E-02 -0.12209093357E-01  0.33448439750E-01  0.35744000000E-01  0.51099999109E-03 0. -1.
       11    1    1    2    0    0  0.30842069778E-02  0.12209093357E-01 -0.33448439750E-01  0.35744000000E-01  0.51099999109E-03 0. -1.
</event>
<event>
 4   0  0.3028200E+07  0.9118800E+02  0.7546771E-02  0.1180000E+00
      -11   -1    0    0    0    0  0.00000000000E+00  0.00000000000E+00  0.35740347158E-01  0.35744000000E-01  0.51099999109E-03 0. -1.
       11   -1    0    0    0    0 -0.00000000000E+00 -0.00000000000E+00 -0.35740347158E-01  0.35744000000E-01  0.51099999109E-03 0.  1.
      -11    1    1    2    0    0  0.16793702021E-01 -0.41013209723E-03  0.31546406754E-01  0.35744000000E-01  0.51099999109E-03 0. -1.
       11    1    1    2    0    0 -0.16793702021E-01  0.41013209723E-03 -0.31546406754E-01  0.35744000000E-01  0.51099999109E-03 0.  1.
</event>
<event>
 4   0  0.3028200E+07  0.9118800E+02  0.7546771E-02  0.1180000E+00
      -11   -1    0    0    0    0  0.00000000000E+00  0.00000000000E+00  0.35740347158E-01  0.35744000000E-01  0.51099999109E-03 0.  1.
       11   -1    0    0    0    0 -0.00000000000E+00 -0.00000000000E+00 -0.35740347158E-01  0.35744000000E-01  0.51099999109E-03 0.  1.
      -11    1    1    2    0    0 -0.14593152413E-02 -0.12979165737E-01  0.33268364414E-01  0.35744000000E-01  0.51099999109E-03 0.  1.
       11    1    1    2    0    0  0.14593152413E-02  0.12979165737E-01 -0.33268364414E-01  0.35744000000E-01  0.51099999109E-03 0.  1.
</event>
<event>
 4   0  0.3028200E+07  0.9118800E+02  0.7546771E-02  0.1180000E+00
      -11   -1    0    0    0    0  0.00000000000E+00  0.00000000000E+00  0.35740347158E-01  0.35744000000E-01  0.51099999109E-03 0.  1.
       11   -1    0    0    0    0 -0.00000000000E+00 -0.00000000000E+00 -0.35740347158E-01  0.35744000000E-01  0.51099999109E-03 0.  1.
      -11    1    1    2    0    0  0.59644862494E-02 -0.11728344521E-01  0.33230155786E-01  0.35744000000E-01  0.51099999109E-03 0.  1.
       11    1    1    2    0    0 -0.59644862494E-02  0.11728344521E-01 -0.33230155786E-01  0.35744000000E-01  0.51099999109E-03 0.  1.
</event>
<event>
 4   0  0.3028200E+07  0.9118800E+02  0.7546771E-02  0.1180000E+00
      -11   -1    0    0    0    0  0.00000000000E+00  0.00000000000E+00  0.35740347158E-01  0.35744000000E-01  0.51099999109E-03 0. -1.
       11   -1    0    0    0    0 -0.00000000000E+00 -0.00000000000E+00 -0.35740347158E-01  0.35744000000E-01  0.51099999109E-03 0.  1.
      -11    1    1    2    0    0  0.61023462573E-02  0.12338366451E-01  0.32983306361E-01  0.35744000000E-01  0.51099999109E-03 0. -1.
       11    1    1    2    0    0 -0.61023462573E-02 -0.12338366451E-01 -0.32983306361E-01  0.35744000000E-01  0.51099999109E-03 0.  1.
</event>
<event>
 4   0  0.3028200E+07  0.9118800E+02  0.7546771E-02  0.1180000E+00
      -11   -1    0    0    0    0  0.00000000000E+00  0.00000000000E+00  0.35740347158E-01  0.35744000000E-01  0.51099999109E-03 0. -1.
       11   -1    0    0    0    0 -0.00000000000E+00 -0.00000000000E+00 -0.35740347158E-01  0.35744000000E-01  0.51099999109E-03 0. -1.
      -11    1    1    2    0    0 -0.12457156002E-01  0.44827240713E-02  0.33197844271E-01  0.35744000000E-01  0.51099999109E-03 0. -1.
       11    1    1    2    0    0  0.12457156002E-01 -0.44827240713E-02 -0.33197844271E-01  0.35744000000E-01  0.51099999109E-03 0. -1.
</event>
<event>
 4   0  0.3028200E+07  0.9118800E+02  0.7546771E-02  0.1180000E+00
      -11   -1    0    0    0    0  0.00000000000E+00  0.00000000000E+00  0.35740347158E-01  0.35744000000E-01  0.51099999109E-03 0.  1.
       11   -1    0    0    0    0 -0.00000000000E+00 -0.00000000000E+00 -0.35740347158E-01  0.35744000000E-01  0.51099999109E-03 0. -1.
      -11    1    1    2    0    0  0.14329735639E-02  0.18762126818E-01  0.30385878283E-01  0.35744000000E-01  0.51099999109E-03 0.  1.
       11    1    1    2    0    0 -0.14329735639E-02 -0.18762126818E-01 -0.30385878283E-01  0.35744000000E-01  0.51099999109E-03 0. -1.
</event>
<event>
 4   0  0.3028200E+07  0.9118800E+02  0.7546771E-02  0.1180000E+00
      -11   -1    0    0    0    0  0.00000000000E+00  0.00000000000E+00  0.35740347158E-01  0.35744000000E-01  0.51099999109E-03 0.  1.
       11   -1    0    0    0    0 -0.00000000000E+00 -0.00000000000E+00 -0.35740347158E-01  0.35744000000E-01  0.51099999109E-03 0. -1.
      -11    1    1    2    0    0 -0.17816403261E-02 -0.14985628395E-01  0.32397980097E-01  0.35744000000E-01  0.51099999109E-03 0.  1.
       11    1    1    2    0    0  0.17816403261E-02  0.14985628395E-01 -0.32397980097E-01  0.35744000000E-01  0.51099999109E-03 0. -1.
</event>
<event>
 4   0  0.3028200E+07  0.9118800E+02  0.7546771E-02  0.1180000E+00
      -11   -1    0    0    0    0  0.00000000000E+00  0.00000000000E+00  0.35740347158E-01  0.35744000000E-01  0.51099999109E-03 0. -1.
       11   -1    0    0    0    0 -0.00000000000E+00 -0.00000000000E+00 -0.35740347158E-01  0.35744000000E-01  0.51099999109E-03 0.  1.
      -11    1    1    2    0    0  0.10437423976E-01  0.58276683027E-02  0.33681907278E-01  0.35744000000E-01  0.51099999109E-03 0. -1.
       11    1    1    2    0    0 -0.10437423976E-01 -0.58276683027E-02 -0.33681907278E-01  0.35744000000E-01  0.51099999109E-03 0.  1.
</event>
<event>
 4   0  0.3028200E+07  0.9118800E+02  0.7546771E-02  0.1180000E+00
      -11   -1    0    0    0    0  0.00000000000E+00  0.00000000000E+00  0.35740347158E-01  0.35744000000E-01  0.51099999109E-03 0. -1.
       11   -1    0    0    0    0 -0.00000000000E+00 -0.00000000000E+00 -0.35740347158E-01  0.35744000000E-01  0.51099999109E-03 0. -1.
      -11    1    1    2    0    0  0.14231808846E-01  0.81039811499E-02  0.31767176794E-01  0.35744000000E-01  0.51099999109E-03 0. -1.
       11    1    1    2    0    0 -0.14231808846E-01 -0.81039811499E-02 -0.31767176794E-01  0.35744000000E-01  0.51099999109E-03 0. -1.
</event>
<event>
 4   0  0.3028200E+07  0.9118800E+02  0.7546771E-02  0.1180000E+00
      -11   -1    0    0    0    0  0.00000000000E+00  0.00000000000E+00  0.35740347158E-01  0.35744000000E-01  0.51099999109E-03 0.  1.
       11   -1    0    0    0    0 -0.00000000000E+00 -0.00000000000E+00 -0.35740347158E-01  0.35744000000E-01  0.51099999109E-03 0.  1.
      -11    1    1    2    0    0  0.13475799146E-01 -0.29601441685E-02  0.32969877144E-01  0.35744000000E-01  0.51099999109E-03 0.  1.
       11    1    1    2    0    0 -0.13475799146E-01  0.29601441685E-02 -0.32969877144E-01  0.35744000000E-01  0.51099999109E-03 0.  1.
</event>
<event>
 4   0  0.3028200E+07  0.9118800E+02  0.7546771E-02  0.1180000E+00
      -11   -1    0    0    0    0  0.00000000000E+00  0.00000000000E+00  0.35740347158E-01  0.35744000000E-01  0.51099999109E-03 0. -1.
       11   -1    0    0    0    0 -0.00000000000E+00 -0.00000000000E+00 -0.35740347158E-01  0.35744000000E-01  0.51099999109E-03 0.  1.
      -11    1    1    2    0    0  0.35342577296E-02 -0.14872312237E-01  0.32306280597E-01  0.35744000000E-01  0.51099999109E-03 0. -1.
       11    1    1    2    0    0 -0.35342577296E-02  0.14872312237E-01 -0.32306280597E-01  0.35744000000E-01  0.51099999109E-03 0.  1.
</event>
<event>
 4   0  0.3028200E+07  0.9118800E+02  0.7546771E-02  0.1180000E+00
      -11   -1    0    0    0    0  0.00000000000E+00  0.00000000000E+00  0.35740347158E-01  0.35744000000E-01  0.51099999109E-03 0.  1.
       11   -1    0    0    0    0 -0.00000000000E+00 -0.00000000000E+00 -0.35740347158E-01  0.35744000000E-01  0.51099999109E-03 0. -1.
      -11    1    1    2    0    0 -0.25936318683E-02  0.12294861581E-01  0.33458659080E-01  0.35744000000E-01  0.51099999109E-03 0.  1.
       11    1    1    2    0    0  0.25936318683E-02 -0.12294861581E-01 -0.33458659080E-01  0.35744000000E-01  0.51099999109E-03 0. -1.
</event>
<event>
 4   0  0.3028200E+07  0.9118800E+02  0.7546771E-02  0.1180000E+00
      -11   -1    0    0    0    0  0.00000000000E+00  0.00000000000E+00  0.35740347158E-01  0.35744000000E-01  0.51099999109E-03 0. -1.
       11   -1    0    0    0    0 -0.00000000000E+00 -0.00000000000E+00 -0.35740347158E-01  0.35744000000E-01  0.51099999109E-03 0. -1.
      -11    1    1    2    0    0  0.49831247937E-02  0.20838876725E-01  0.28605630550E-01  0.35744000000E-01  0.51099999109E-03 0. -1.
       11    1    1    2    0    0 -0.49831247937E-02 -0.20838876725E-01 -0.28605630550E-01  0.35744000000E-01  0.51099999109E-03 0. -1.
</event>
<event>
 4   0  0.3028200E+07  0.9118800E+02  0.7546771E-02  0.1180000E+00
      -11   -1    0    0    0    0  0.00000000000E+00  0.00000000000E+00  0.35740347158E-01  0.35744000000E-01  0.51099999109E-03 0.  1.
       11   -1    0    0    0    0 -0.00000000000E+00 -0.00000000000E+00 -0.35740347158E-01  0.35744000000E-01  0.51099999109E-03 0.  1.
      -11    1    1    2    0    0 -0.29378719416E-02  0.14129884294E-01  0.32696906479E-01  0.35744000000E-01  0.51099999109E-03 0.  1.
       11    1    1    2    0    0  0.29378719416E-02 -0.14129884294E-01 -0.32696906479E-01  0.35744000000E-01  0.51099999109E-03 0.  1.
</event>
<event>
 4   0  0.3028200E+07  0.9118800E+02  0.7546771E-02  0.1180000E+00
      -11   -1    0    0    0    0  0.00000000000E+00  0.00000000000E+00  0.35740347158E-01  0.35744000000E-01  0.51099999109E-03 0.  1.
       11   -1    0    0    0    0 -0.00000000000E+00 -0.00000000000E+00 -0.35740347158E-01  0.35744000000E-01  0.51099999109E-03 0.  1.
      -11    1    1    2    0    0  0.12861685932E-01  0.37995918521E-02  0.33128726987E-01  0.35744000000E-01  0.51099999109E-03 0.  1.
       11    1    1    2    0    0 -0.12861685932E-01 -0.37995918521E-02 -0.33128726987E-01  0.35744000000E-01  0.51099999109E-03 0.  1.
</event>
<event>
 4   0  0.3028200E+07  0.9118800E+02  0.7546771E-02  0.1180000E+00
      -11   -1    0    0    0    0  0.00000000000E+00  0.00000000000E+00  0.35740347158E-01  0.35744000000E-01  0.51099999109E-03 0. -1.
       11   -1    0    0    0    0 -0.00000000000E+00 -0.00000000000E+00 -0.35740347158E-01  0.35744000000E-01  0.51099999109E-03 0.  1.
      -11    1    1    2    0    0 -0.85667412548E-02  0.16027444136E-01  0.30775061231E-01  0.35744000000E-01  0.51099999109E-03 0. -1.
       11    1    1    2    0    0  0.85667412548E-02 -0.16027444136E-01 -0.30775061231E-01  0.35744000000E-01  0.51099999109E-03 0.  1.
</event>
<event>
 4   0  0.3028200E+07  0.9118800E+02  0.7546771E-02  0.1180000E+00
      -11   -1    0    0    0    0  0.00000000000E+00  0.00000000000E+00  0.35740347158E-01  0.35744000000E-01  0.51099999109E-03 0.  1.
       11   -1    0    0    0    0 -0.00000000000E+00 -0.00000000000E+00 -0.35740347158E-01  0.35744000000E-01  0.51099999109E-03 0. -1.
      -11    1    1    2    0    0 -0.70902113316E-02 -0.10197430817E-01  0.33512888909E-01  0.35744000000E-01  0.51099999109E-03 0.  1.
       11    1    1    2    0    0  0.70902113316E-02  0.10197430817E-01 -0.33512888909E-01  0.35744000000E-01  0.51099999109E-03 0. -1.
</event>
<event>
 4   0  0.3028200E+07  0.9118800E+02  0.7546771E-02  0.1180000E+00
      -11   -1    0    0    0    0  0.00000000000E+00  0.00000000000E+00  0.35740347158E-01  0.35744000000E-01  0.51099999109E-03 0. -1.
       11   -1    0    0    0    0 -0.00000000000E+00 -0.00000000000E+00 -0.35740347158E-01  0.35744000000E-01  0.51099999109E-03 0.  1.
      -11    1    1    2    0    0  0.11631405157E-01 -0.19004379042E-02  0.33741238342E-01  0.35744000000E-01  0.51099999109E-03 0. -1.
       11    1    1    2    0    0 -0.11631405157E-01  0.19004379042E-02 -0.33741238342E-01  0.35744000000E-01  0.51099999109E-03 0.  1.
</event>
<event>
 4   0  0.3028200E+07  0.9118800E+02  0.7546771E-02  0.1180000E+00
      -11   -1    0    0    0    0  0.00000000000E+00  0.00000000000E+00  0.35740347158E-01  0.35744000000E-01  0.51099999109E-03 0. -1.
       11   -1    0    0    0    0 -0.00000000000E+00 -0.00000000000E+00 -0.35740347158E-01  0.35744000000E-01  0.51099999109E-03 0. -1.
      -11    1    1    2    0    0  0.15458481527E-01  0.54856574615E-03  0.32219665416E-01  0.35744000000E-01  0.51099999109E-03 0. -1.
       11    1    1    2    0    0 -0.15458481527E-01 -0.54856574615E-03 -0.32219665416E-01  0.35744000000E-01  0.51099999109E-03 0. -1.
</event>
<event>
 4   0  0.3028200E+07  0.9118800E+02  0.7546771E-02  0.1180000E+00
      -11   -1    0    0    0    0  0.00000000000E+00  0.00000000000E+00  0.35740347158E-01  0.35744000000E-01  0.51099999109E-03 0.  1.
       11   -1    0    0    0    0 -0.00000000000E+00 -0.00000000000E+00 -0.35740347158E-01  0.35744000000E-01  0.51099999109E-03 0.  1.
      -11    1    1    2    0    0  0.57403167173E-03  0.22448645105E-01  0.27804698085E-01  0.35744000000E-01  0.51099999109E-03 0.  1.
       11    1    1    2    0    0 -0.57403167173E-03 -0.22448645105E-01 -0.27804698085E-01  0.35744000000E-01  0.51099999109E-03 0.  1.
</event>
<event>
 4   0  0.3028200E+07  0.9118800E+02  0.7546771E-02  0.1180000E+00
      -11   -1    0    0    0    0  0.00000000000E+00  0.00000000000E+00  0.35740347158E-01  0.35744000000E-01  0.51099999109E-03 0.  1.
       11   -1    0    0    0    0 -0.00000000000E+00 -0.00000000000E+00 -0.35740347158E-01  0.35744000000E-01  0.51099999109E-03 0.  1.
      -11    1    1    2    0    0  0.38652809487E-02 -0.23723564852E-01  0.26450415666E-01  0.35744000000E-01  0.51099999109E-03 0.  1.
       11    1    1    2    0    0 -0.38652809487E-02  0.23723564852E-01 -0.26450415666E-01  0.35744000000E-01  0.51099999109E-03 0.  1.
</event>
<event>
 4   0  0.3028200E+07  0.9118800E+02  0.7546771E-02  0.1180000E+00
      -11   -1    0    0    0    0  0.00000000000E+00  0.00000000000E+00  0.35740347158E-01  0.35744000000E-01  0.51099999109E-03 0. -1.
       11   -1    0    0    0    0 -0.00000000000E+00 -0.00000000000E+00 -0.35740347158E-01  0.35744000000E-01  0.51099999109E-03 0. -1.
      -11    1    1    2    0    0  0.14313191237E-01  0.26217651201E-02  0.32644008934E-01  0.35744000000E-01  0.51099999109E-03 0. -1.
       11    1    1    2    0    0 -0.14313191237E-01 -0.26217651201E-02 -0.32644008934E-01  0.35744000000E-01  0.51099999109E-03 0. -1.
</event>
<event>
 4   0  0.3028200E+07  0.9118800E+02  0.7546771E-02  0.1180000E+00
      -11   -1    0    0    0    0  0.00000000000E+00  0.00000000000E+00  0.35740347158E-01  0.35744000000E-01  0.51099999109E-03 0.  1.
       11   -1    0    0    0    0 -0.00000000000E+00 -0.00000000000E+00 -0.35740347158E-01  0.35744000000E-01  0.51099999109E-03 0. -1.
      -11    1    1    2    0    0 -0.12707496859E-01  0.17394288613E-02  0.33359651164E-01  0.35744000000E-01  0.51099999109E-03 0.  1.
       11    1    1    2    0    0  0.12707496859E-01 -0.17394288613E-02 -0.33359651164E-01  0.35744000000E-01  0.51099999109E-03 0. -1.
</event>
<event>
 4   0  0.3028200E+07  0.9118800E+02  0.7546771E-02  0.1180000E+00
      -11   -1    0    0    0    0  0.00000000000E+00  0.00000000000E+00  0.35740347158E-01  0.35744000000E-01  0.51099999109E-03 0. -1.
       11   -1    0    0    0    0 -0.00000000000E+00 -0.00000000000E+00 -0.35740347158E-01  0.35744000000E-01  0.51099999109E-03 0. -1.
      -11    1    1    2    0    0 -0.18722603704E-03  0.15336804599E-01  0.32281880151E-01  0.35744000000E-01  0.51099999109E-03 0. -1.
       11    1    1    2    0    0  0.18722603704E-03 -0.15336804599E-01 -0.32281880151E-01  0.35744000000E-01  0.51099999109E-03 0. -1.
</event>
<event>
 4   0  0.3028200E+07  0.9118800E+02  0.7546771E-02  0.1180000E+00
      -11   -1    0    0    0    0  0.00000000000E+00  0.00000000000E+00  0.35740347158E-01  0.35744000000E-01  0.51099999109E-03 0. -1.
       11   -1    0    0    0    0 -0.00000000000E+00 -0.00000000000E+00 -0.35740347158E-01  0.35744000000E-01  0.51099999109E-03 0. -1.
      -11    1    1    2    0    0 -0.11382960730E-01 -0.56869116728E-02  0.33398497805E-01  0.35744000000E-01  0.51099999109E-03 0. -1.
       11    1    1    2    0    0  0.11382960730E-01  0.56869116728E-02 -0.33398497805E-01  0.35744000000E-01  0.51099999109E-03 0. -1.
</event>
<event>
 4   0  0.3028200E+07  0.9118800E+02  0.7546771E-02  0.1180000E+00
      -11   -1    0    0    0    0  0.00000000000E+00  0.00000000000E+00  0.35740347158E-01  0.35744000000E-01  0.51099999109E-03 0.  1.
       11   -1    0    0    0    0 -0.00000000000E+00 -0.00000000000E+00 -0.35740347158E-01  0.35744000000E-01  0.51099999109E-03 0.  1.
      -11    1    1    2    0    0  0.11777248813E-01 -0.32890658353E-02  0.33583491053E-01  0.35744000000E-01  0.51099999109E-03 0.  1.
       11    1    1    2    0    0 -0.11777248813E-01  0.32890658353E-02 -0.33583491053E-01  0.35744000000E-01  0.51099999109E-03 0.  1.
</event>
<event>
 4   0  0.3028200E+07  0.9118800E+02  0.7546771E-02  0.1180000E+00
      -11   -1    0    0    0    0  0.00000000000E+00  0.00000000000E+00  0.35740347158E-01  0.35744000000E-01  0.51099999109E-03 0.  1.
       11   -1    0    0    0    0 -0.00000000000E+00 -0.00000000000E+00 -0.35740347158E-01  0.35744000000E-01  0.51099999109E-03 0. -1.
      -11    1    1    2    0    0  0.86326672556E-02 -0.90467613538E-02  0.33481421417E-01  0.35744000000E-01  0.51099999109E-03 0.  1.
       11    1    1    2    0    0 -0.86326672556E-02  0.90467613538E-02 -0.33481421417E-01  0.35744000000E-01  0.51099999109E-03 0. -1.
</event>
<event>
 4   0  0.3028200E+07  0.9118800E+02  0.7546771E-02  0.1180000E+00
      -11   -1    0    0    0    0  0.00000000000E+00  0.00000000000E+00  0.35740347158E-01  0.35744000000E-01  0.51099999109E-03 0.  1.
       11   -1    0    0    0    0 -0.00000000000E+00 -0.00000000000E+00 -0.35740347158E-01  0.35744000000E-01  0.51099999109E-03 0. -1.
      -11    1    1    2    0    0  0.10358635465E-01 -0.57149589647E-02  0.33725514531E-01  0.35744000000E-01  0.51099999109E-03 0.  1.
       11    1    1    2    0    0 -0.10358635465E-01  0.57149589647E-02 -0.33725514531E-01  0.35744000000E-01  0.51099999109E-03 0. -1.
</event>
<event>
 4   0  0.3028200E+07  0.9118800E+02  0.7546771E-02  0.1180000E+00
      -11   -1    0    0    0    0  0.00000000000E+00  0.00000000000E+00  0.35740347158E-01  0.35744000000E-01  0.51099999109E-03 0.  1.
       11   -1    0    0    0    0 -0.00000000000E+00 -0.00000000000E+00 -0.35740347158E-01  0.35744000000E-01  0.51099999109E-03 0. -1.
      -11    1    1    2    0    0 -0.58463935018E-02 -0.11142381488E-01  0.33452046766E-01  0.35744000000E-01  0.51099999109E-03 0.  1.
       11    1    1    2    0    0  0.58463935018E-02  0.11142381488E-01 -0.33452046766E-01  0.35744000000E-01  0.51099999109E-03 0. -1.
</event>
<event>
 4   0  0.3028200E+07  0.9118800E+02  0.7546771E-02  0.1180000E+00
      -11   -1    0    0    0    0  0.00000000000E+00  0.00000000000E+00  0.35740347158E-01  0.35744000000E-01  0.51099999109E-03 0.  1.
       11   -1    0    0    0    0 -0.00000000000E+00 -0.00000000000E+00 -0.35740347158E-01  0.35744000000E-01  0.51099999109E-03 0. -1.
      -11    1    1    2    0    0  0.28401877862E-02  0.12911193277E-01  0.33205524187E-01  0.35744000000E-01  0.51099999109E-03 0.  1.
       11    1    1    2    0    0 -0.28401877862E-02 -0.12911193277E-01 -0.33205524187E-01  0.35744000000E-01  0.51099999109E-03 0. -1.
</event>
<event>
 4   0  0.3028200E+07  0.9118800E+02  0.7546771E-02  0.1180000E+00
      -11   -1    0    0    0    0  0.00000000000E+00  0.00000000000E+00  0.35740347158E-01  0.35744000000E-01  0.51099999109E-03 0. -1.
       11   -1    0    0    0    0 -0.00000000000E+00 -0.00000000000E+00 -0.35740347158E-01  0.35744000000E-01  0.51099999109E-03 0. -1.
      -11    1    1    2    0    0 -0.59899697070E-02  0.14030420047E-01  0.32320890941E-01  0.35744000000E-01  0.51099999109E-03 0. -1.
       11    1    1    2    0    0  0.59899697070E-02 -0.14030420047E-01 -0.32320890941E-01  0.35744000000E-01  0.51099999109E-03 0. -1.
</event>
<event>
 4   0  0.3028200E+07  0.9118800E+02  0.7546771E-02  0.1180000E+00
      -11   -1    0    0    0    0  0.00000000000E+00  0.00000000000E+00  0.35740347158E-01  0.35744000000E-01  0.51099999109E-03 0. -1.
       11   -1    0    0    0    0 -0.00000000000E+00 -0.00000000000E+00 -0.35740347158E-01  0.35744000000E-01  0.51099999109E-03 0.  1.
      -11    1    1    2    0    0  0.36671423240E-02  0.22802743049E-01  0.27275618996E-01  0.35744000000E-01  0.51099999109E-03 0. -1.
       11    1    1    2    0    0 -0.36671423240E-02 -0.22802743049E-01 -0.27275618996E-01  0.35744000000E-01  0.51099999109E-03 0.  1.
</event>
<event>
 4   0  0.3028200E+07  0.9118800E+02  0.7546771E-02  0.1180000E+00
      -11   -1    0    0    0    0  0.00000000000E+00  0.00000000000E+00  0.35740347158E-01  0.35744000000E-01  0.51099999109E-03 0. -1.
       11   -1    0    0    0    0 -0.00000000000E+00 -0.00000000000E+00 -0.35740347158E-01  0.35744000000E-01  0.51099999109E-03 0. -1.
      -11    1    1    2    0    0  0.71771200867E-02 -0.16515219218E-01  0.30872461782E-01  0.35744000000E-01  0.51099999109E-03 0. -1.
       11    1    1    2    0    0 -0.71771200867E-02  0.16515219218E-01 -0.30872461782E-01  0.35744000000E-01  0.51099999109E-03 0. -1.
</event>
<event>
 4   0  0.3028200E+07  0.9118800E+02  0.7546771E-02  0.1180000E+00
      -11   -1    0    0    0    0  0.00000000000E+00  0.00000000000E+00  0.35740347158E-01  0.35744000000E-01  0.51099999109E-03 0. -1.
       11   -1    0    0    0    0 -0.00000000000E+00 -0.00000000000E+00 -0.35740347158E-01  0.35744000000E-01  0.51099999109E-03 0. -1.
      -11    1    1    2    0    0  0.56751024801E-02 -0.12815990748E-01  0.32877287114E-01  0.35744000000E-01  0.51099999109E-03 0. -1.
       11    1    1    2    0    0 -0.56751024801E-02  0.12815990748E-01 -0.32877287114E-01  0.35744000000E-01  0.51099999109E-03 0. -1.
</event>
<event>
 4   0  0.3028200E+07  0.9118800E+02  0.7546771E-02  0.1180000E+00
      -11   -1    0    0    0    0  0.00000000000E+00  0.00000000000E+00  0.35740347158E-01  0.35744000000E-01  0.51099999109E-03 0.  1.
       11   -1    0    0    0    0 -0.00000000000E+00 -0.00000000000E+00 -0.35740347158E-01  0.35744000000E-01  0.51099999109E-03 0.  1.
      -11    1    1    2    0    0  0.86521717263E-02 -0.14968748890E-01  0.31280167776E-01  0.35744000000E-01  0.51099999109E-03 0.  1.
       11    1    1    2    0    0 -0.86521717263E-02  0.14968748890E-01 -0.31280167776E-01  0.35744000000E-01  0.51099999109E-03 0.  1.
</event>
<event>
 4   0  0.3028200E+07  0.9118800E+02  0.7546771E-02  0.1180000E+00
      -11   -1    0    0    0    0  0.00000000000E+00  0.00000000000E+00  0.35740347158E-01  0.35744000000E-01  0.51099999109E-03 0. -1.
       11   -1    0    0    0    0 -0.00000000000E+00 -0.00000000000E+00 -0.35740347158E-01  0.35744000000E-01  0.51099999109E-03 0. -1.
      -11    1    1    2    0    0 -0.38797151313E-02  0.12307032828E-01  0.33329523976E-01  0.35744000000E-01  0.51099999109E-03 0. -1.
       11    1    1    2    0    0  0.38797151313E-02 -0.12307032828E-01 -0.33329523976E-01  0.35744000000E-01  0.51099999109E-03 0. -1.
</event>
<event>
 4   0  0.3028200E+07  0.9118800E+02  0.7546771E-02  0.1180000E+00
      -11   -1    0    0    0    0  0.00000000000E+00  0.00000000000E+00  0.35740347158E-01  0.35744000000E-01  0.51099999109E-03 0. -1.
       11   -1    0    0    0    0 -0.00000000000E+00 -0.00000000000E+00 -0.35740347158E-01  0.35744000000E-01  0.51099999109E-03 0.  1.
      -11    1    1    2    0    0  0.24599066294E-01  0.48427584855E-02  0.25471671376E-01  0.35744000000E-01  0.51099999109E-03 0. -1.
       11    1    1    2    0    0 -0.24599066294E-01 -0.48427584855E-02 -0.25471671376E-01  0.35744000000E-01  0.51099999109E-03 0.  1.
</event>
<event>
 4   0  0.3028200E+07  0.9118800E+02  0.7546771E-02  0.1180000E+00
      -11   -1    0    0    0    0  0.00000000000E+00  0.00000000000E+00  0.35740347158E-01  0.35744000000E-01  0.51099999109E-03 0.  1.
       11   -1    0    0    0    0 -0.00000000000E+00 -0.00000000000E+00 -0.35740347158E-01  0.35744000000E-01  0.51099999109E-03 0. -1.
      -11    1    1    2    0    0 -0.14716511822E-01 -0.66435807771E-03  0.32563097567E-01  0.35744000000E-01  0.51099999109E-03 0.  1.
       11    1    1    2    0    0  0.14716511822E-01  0.66435807771E-03 -0.32563097567E-01  0.35744000000E-01  0.51099999109E-03 0. -1.
</event>
<event>
 4   0  0.3028200E+07  0.9118800E+02  0.7546771E-02  0.1180000E+00
      -11   -1    0    0    0    0  0.00000000000E+00  0.00000000000E+00  0.35740347158E-01  0.35744000000E-01  0.51099999109E-03 0. -1.
       11   -1    0    0    0    0 -0.00000000000E+00 -0.00000000000E+00 -0.35740347158E-01  0.35744000000E-01  0.51099999109E-03 0. -1.
      -11    1    1    2    0    0 -0.15560404670E-01 -0.33215239972E-02  0.32003338886E-01  0.35744000000E-01  0.51099999109E-03 0. -1.
       11    1    1    2    0    0  0.15560404670E-01  0.33215239972E-02 -0.32003338886E-01  0.35744000000E-01  0.51099999109E-03 0. -1.
</event>
<event>
 4   0  0.3028200E+07  0.9118800E+02  0.7546771E-02  0.1180000E+00
      -11   -1    0    0    0    0  0.00000000000E+00  0.00000000000E+00  0.35740347158E-01  0.35744000000E-01  0.51099999109E-03 0. -1.
       11   -1    0    0    0    0 -0.00000000000E+00 -0.00000000000E+00 -0.35740347158E-01  0.35744000000E-01  0.51099999109E-03 0. -1.
      -11    1    1    2    0    0 -0.13663568742E-01 -0.10579914179E-01  0.31284896039E-01  0.35744000000E-01  0.51099999109E-03 0. -1.
       11    1    1    2    0    0  0.13663568742E-01  0.10579914179E-01 -0.31284896039E-01  0.35744000000E-01  0.51099999109E-03 0. -1.
</event>
<event>
 4   0  0.3028200E+07  0.9118800E+02  0.7546771E-02  0.1180000E+00
      -11   -1    0    0    0    0  0.00000000000E+00  0.00000000000E+00  0.35740347158E-01  0.35744000000E-01  0.51099999109E-03 0.  1.
       11   -1    0    0    0    0 -0.00000000000E+00 -0.00000000000E+00 -0.35740347158E-01  0.35744000000E-01  0.51099999109E-03 0. -1.
      -11    1    1    2    0    0 -0.22292534314E-02  0.12994242007E-01  0.33219760969E-01  0.35744000000E-01  0.51099999109E-03 0.  1.
       11    1    1    2    0    0  0.22292534314E-02 -0.12994242007E-01 -0.33219760969E-01  0.35744000000E-01  0.51099999109E-03 0. -1.
</event>
<event>
 4   0  0.3028200E+07  0.9118800E+02  0.7546771E-02  0.1180000E+00
      -11   -1    0    0    0    0  0.00000000000E+00  0.00000000000E+00  0.35740347158E-01  0.35744000000E-01  0.51099999109E-03 0.  1.
       11   -1    0    0    0    0 -0.00000000000E+00 -0.00000000000E+00 -0.35740347158E-01  0.35744000000E-01  0.51099999109E-03 0. -1.
      -11    1    1    2    0    0 -0.18678079340E-01 -0.37519207952E-02  0.30239458619E-01  0.35744000000E-01  0.51099999109E-03 0.  1.
       11    1    1    2    0    0  0.18678079340E-01  0.37519207952E-02 -0.30239458619E-01  0.35744000000E-01  0.51099999109E-03 0. -1.
</event>
<event>
 4   0  0.3028200E+07  0.9118800E+02  0.7546771E-02  0.1180000E+00
      -11   -1    0    0    0    0  0.00000000000E+00  0.00000000000E+00  0.35740347158E-01  0.35744000000E-01  0.51099999109E-03 0. -1.
       11   -1    0    0    0    0 -0.00000000000E+00 -0.00000000000E+00 -0.35740347158E-01  0.35744000000E-01  0.51099999109E-03 0.  1.
      -11    1    1    2    0    0  0.12813228022E-02  0.15199500442E-01  0.32321909182E-01  0.35744000000E-01  0.51099999109E-03 0. -1.
       11    1    1    2    0    0 -0.12813228022E-02 -0.15199500442E-01 -0.32321909182E-01  0.35744000000E-01  0.51099999109E-03 0.  1.
</event>
<event>
 4   0  0.3028200E+07  0.9118800E+02  0.7546771E-02  0.1180000E+00
      -11   -1    0    0    0    0  0.00000000000E+00  0.00000000000E+00  0.35740347158E-01  0.35744000000E-01  0.51099999109E-03 0. -1.
       11   -1    0    0    0    0 -0.00000000000E+00 -0.00000000000E+00 -0.35740347158E-01  0.35744000000E-01  0.51099999109E-03 0. -1.
      -11    1    1    2    0    0  0.45414177142E-02  0.14734720723E-01  0.32243386072E-01  0.35744000000E-01  0.51099999109E-03 0. -1.
       11    1    1    2    0    0 -0.45414177142E-02 -0.14734720723E-01 -0.32243386072E-01  0.35744000000E-01  0.51099999109E-03 0. -1.
</event>
<event>
 4   0  0.3028200E+07  0.9118800E+02  0.7546771E-02  0.1180000E+00
      -11   -1    0    0    0    0  0.00000000000E+00  0.00000000000E+00  0.35740347158E-01  0.35744000000E-01  0.51099999109E-03 0. -1.
       11   -1    0    0    0    0 -0.00000000000E+00 -0.00000000000E+00 -0.35740347158E-01  0.35744000000E-01  0.51099999109E-03 0.  1.
      -11    1    1    2    0    0 -0.34356335815E-02 -0.11776704917E-01  0.33569004427E-01  0.35744000000E-01  0.51099999109E-03 0. -1.
       11    1    1    2    0    0  0.34356335815E-02  0.11776704917E-01 -0.33569004427E-01  0.35744000000E-01  0.51099999109E-03 0.  1.
</event>
<event>
 4   0  0.3028200E+07  0.9118800E+02  0.7546771E-02  0.1180000E+00
      -11   -1    0    0    0    0  0.00000000000E+00  0.00000000000E+00  0.35740347158E-01  0.35744000000E-01  0.51099999109E-03 0.  1.
       11   -1    0    0    0    0 -0.00000000000E+00 -0.00000000000E+00 -0.35740347158E-01  0.35744000000E-01  0.51099999109E-03 0.  1.
      -11    1    1    2    0    0 -0.43190027640E-02  0.11294181338E-01  0.33632723619E-01  0.35744000000E-01  0.51099999109E-03 0.  1.
       11    1    1    2    0    0  0.43190027640E-02 -0.11294181338E-01 -0.33632723619E-01  0.35744000000E-01  0.51099999109E-03 0.  1.
</event>
<event>
 4   0  0.3028200E+07  0.9118800E+02  0.7546771E-02  0.1180000E+00
      -11   -1    0    0    0    0  0.00000000000E+00  0.00000000000E+00  0.35740347158E-01  0.35744000000E-01  0.51099999109E-03 0. -1.
       11   -1    0    0    0    0 -0.00000000000E+00 -0.00000000000E+00 -0.35740347158E-01  0.35744000000E-01  0.51099999109E-03 0.  1.
      -11    1    1    2    0    0 -0.15955277064E-01 -0.30093460461E-02  0.31839368480E-01  0.35744000000E-01  0.51099999109E-03 0. -1.
       11    1    1    2    0    0  0.15955277064E-01  0.30093460461E-02 -0.31839368480E-01  0.35744000000E-01  0.51099999109E-03 0.  1.
</event>
<event>
 4   0  0.3028200E+07  0.9118800E+02  0.7546771E-02  0.1180000E+00
      -11   -1    0    0    0    0  0.00000000000E+00  0.00000000000E+00  0.35740347158E-01  0.35744000000E-01  0.51099999109E-03 0. -1.
       11   -1    0    0    0    0 -0.00000000000E+00 -0.00000000000E+00 -0.35740347158E-01  0.35744000000E-01  0.51099999109E-03 0.  1.
      -11    1    1    2    0    0 -0.18143602744E-01 -0.97107145076E-03  0.30777249954E-01  0.35744000000E-01  0.51099999109E-03 0. -1.
       11    1    1    2    0    0  0.18143602744E-01  0.97107145076E-03 -0.30777249954E-01  0.35744000000E-01  0.51099999109E-03 0.  1.
</event>
<event>
 4   0  0.3028200E+07  0.9118800E+02  0.7546771E-02  0.1180000E+00
      -11   -1    0    0    0    0  0.00000000000E+00  0.00000000000E+00  0.35740347158E-01  0.35744000000E-01  0.51099999109E-03 0.  1.
       11   -1    0    0    0    0 -0.00000000000E+00 -0.00000000000E+00 -0.35740347158E-01  0.35744000000E-01  0.51099999109E-03 0.  1.
      -11    1    1    2    0    0  0.56966578949E-02 -0.11047749610E-01  0.33509218618E-01  0.35744000000E-01  0.51099999109E-03 0.  1.
       11    1    1    2    0    0 -0.56966578949E-02  0.11047749610E-01 -0.33509218618E-01  0.35744000000E-01  0.51099999109E-03 0.  1.
</event>
<event>
 4   0  0.3028200E+07  0.9118800E+02  0.7546771E-02  0.1180000E+00
      -11   -1    0    0    0    0  0.00000000000E+00  0.00000000000E+00  0.35740347158E-01  0.35744000000E-01  0.51099999109E-03 0. -1.
       11   -1    0    0    0    0 -0.00000000000E+00 -0.00000000000E+00 -0.35740347158E-01  0.35744000000E-01  0.51099999109E-03 0. -1.
      -11    1    1    2    0    0  0.12237551671E-01  0.10431076838E-01  0.31918762196E-01  0.35744000000E-01  0.51099999109E-03 0. -1.
       11    1    1    2    0    0 -0.12237551671E-01 -0.10431076838E-01 -0.31918762196E-01  0.35744000000E-01  0.51099999109E-03 0. -1.
</event>
<event>
 4   0  0.3028200E+07  0.9118800E+02  0.7546771E-02  0.1180000E+00
      -11   -1    0    0    0    0  0.00000000000E+00  0.00000000000E+00  0.35740347158E-01  0.35744000000E-01  0.51099999109E-03 0.  1.
       11   -1    0    0    0    0 -0.00000000000E+00 -0.00000000000E+00 -0.35740347158E-01  0.35744000000E-01  0.51099999109E-03 0.  1.
      -11    1    1    2    0    0 -0.14821053736E-01  0.71358855018E-02  0.31729921514E-01  0.35744000000E-01  0.51099999109E-03 0.  1.
       11    1    1    2    0    0  0.14821053736E-01 -0.71358855018E-02 -0.31729921514E-01  0.35744000000E-01  0.51099999109E-03 0.  1.
</event>
<event>
 4   0  0.3028200E+07  0.9118800E+02  0.7546771E-02  0.1180000E+00
      -11   -1    0    0    0    0  0.00000000000E+00  0.00000000000E+00  0.35740347158E-01  0.35744000000E-01  0.51099999109E-03 0. -1.
       11   -1    0    0    0    0 -0.00000000000E+00 -0.00000000000E+00 -0.35740347158E-01  0.35744000000E-01  0.51099999109E-03 0. -1.
      -11    1    1    2    0    0 -0.13456184518E-01 -0.10584277273E-01  0.31373182622E-01  0.35744000000E-01  0.51099999109E-03 0. -1.
       11    1    1    2    0    0  0.13456184518E-01  0.10584277273E-01 -0.31373182622E-01  0.35744000000E-01  0.51099999109E-03 0. -1.
</event>
<event>
 4   0  0.3028200E+07  0.9118800E+02  0.7546771E-02  0.1180000E+00
      -11   -1    0    0    0    0  0.00000000000E+00  0.00000000000E+00  0.35740347158E-01  0.35744000000E-01  0.51099999109E-03 0. -1.
       11   -1    0    0    0    0 -0.00000000000E+00 -0.00000000000E+00 -0.35740347158E-01  0.35744000000E-01  0.51099999109E-03 0. -1.
      -11    1    1    2    0    0 -0.21815013592E-02 -0.21885083965E-01  0.28171910952E-01  0.35744000000E-01  0.51099999109E-03 0. -1.
       11    1    1    2    0    0  0.21815013592E-02  0.21885083965E-01 -0.28171910952E-01  0.35744000000E-01  0.51099999109E-03 0. -1.
</event>
<event>
 4   0  0.3028200E+07  0.9118800E+02  0.7546771E-02  0.1180000E+00
      -11   -1    0    0    0    0  0.00000000000E+00  0.00000000000E+00  0.35740347158E-01  0.35744000000E-01  0.51099999109E-03 0. -1.
       11   -1    0    0    0    0 -0.00000000000E+00 -0.00000000000E+00 -0.35740347158E-01  0.35744000000E-01  0.51099999109E-03 0. -1.
      -11    1    1    2    0    0 -0.11408410121E-01  0.65544965457E-02  0.33230395251E-01  0.35744000000E-01  0.51099999109E-03 0. -1.
       11    1    1    2    0    0  0.11408410121E-01 -0.65544965457E-02 -0.33230395251E-01  0.35744000000E-01  0.51099999109E-03 0. -1.
</event>
<event>
 4   0  0.3028200E+07  0.9118800E+02  0.7546771E-02  0.1180000E+00
      -11   -1    0    0    0    0  0.00000000000E+00  0.00000000000E+00  0.35740347158E-01  0.35744000000E-01  0.51099999109E-03 0. -1.
       11   -1    0    0    0    0 -0.00000000000E+00 -0.00000000000E+00 -0.35740347158E-01  0.35744000000E-01  0.51099999109E-03 0.  1.
      -11    1    1    2    0    0 -0.18574726343E-01  0.83496963285E-02  0.29370640570E-01  0.35744000000E-01  0.51099999109E-03 0. -1.
       11    1    1    2    0    0  0.18574726343E-01 -0.83496963285E-02 -0.29370640570E-01  0.35744000000E-01  0.51099999109E-03 0.  1.
</event>
<event>
 4   0  0.3028200E+07  0.9118800E+02  0.7546771E-02  0.1180000E+00
      -11   -1    0    0    0    0  0.00000000000E+00  0.00000000000E+00  0.35740347158E-01  0.35744000000E-01  0.51099999109E-03 0. -1.
       11   -1    0    0    0    0 -0.00000000000E+00 -0.00000000000E+00 -0.35740347158E-01  0.35744000000E-01  0.51099999109E-03 0.  1.
      -11    1    1    2    0    0  0.95425569357E-02  0.84743056707E-02  0.33384100490E-01  0.35744000000E-01  0.51099999109E-03 0. -1.
       11    1    1    2    0    0 -0.95425569357E-02 -0.84743056707E-02 -0.33384100490E-01  0.35744000000E-01  0.51099999109E-03 0.  1.
</event>
<event>
 4   0  0.3028200E+07  0.9118800E+02  0.7546771E-02  0.1180000E+00
      -11   -1    0    0    0    0  0.00000000000E+00  0.00000000000E+00  0.35740347158E-01  0.35744000000E-01  0.51099999109E-03 0.  1.
       11   -1    0    0    0    0 -0.00000000000E+00 -0.00000000000E+00 -0.35740347158E-01  0.35744000000E-01  0.51099999109E-03 0. -1.
      -11    1    1    2    0    0 -0.12307086950E-01  0.95383137033E-02  0.32170306146E-01  0.35744000000E-01  0.51099999109E-03 0.  1.
       11    1    1    2    0    0  0.12307086950E-01 -0.95383137033E-02 -0.32170306146E-01  0.35744000000E-01  0.51099999109E-03 0. -1.
</event>
<event>
 4   0  0.3028200E+07  0.9118800E+02  0.7546771E-02  0.1180000E+00
      -11   -1    0    0    0    0  0.00000000000E+00  0.00000000000E+00  0.35740347158E-01  0.35744000000E-01  0.51099999109E-03 0. -1.
       11   -1    0    0    0    0 -0.00000000000E+00 -0.00000000000E+00 -0.35740347158E-01  0.35744000000E-01  0.51099999109E-03 0. -1.
      -11    1    1    2    0    0  0.28423818329E-03  0.18482771774E-01  0.30588866785E-01  0.35744000000E-01  0.51099999109E-03 0. -1.
       11    1    1    2    0    0 -0.28423818329E-03 -0.18482771774E-01 -0.30588866785E-01  0.35744000000E-01  0.51099999109E-03 0. -1.
</event>
<event>
 4   0  0.3028200E+07  0.9118800E+02  0.7546771E-02  0.1180000E+00
      -11   -1    0    0    0    0  0.00000000000E+00  0.00000000000E+00  0.35740347158E-01  0.35744000000E-01  0.51099999109E-03 0.  1.
       11   -1    0    0    0    0 -0.00000000000E+00 -0.00000000000E+00 -0.35740347158E-01  0.35744000000E-01  0.51099999109E-03 0. -1.
      -11    1    1    2    0    0 -0.11945647616E-01 -0.15966807316E-01  0.29660326737E-01  0.35744000000E-01  0.51099999109E-03 0.  1.
       11    1    1    2    0    0  0.11945647616E-01  0.15966807316E-01 -0.29660326737E-01  0.35744000000E-01  0.51099999109E-03 0. -1.
</event>
<event>
 4   0  0.3028200E+07  0.9118800E+02  0.7546771E-02  0.1180000E+00
      -11   -1    0    0    0    0  0.00000000000E+00  0.00000000000E+00  0.35740347158E-01  0.35744000000E-01  0.51099999109E-03 0. -1.
       11   -1    0    0    0    0 -0.00000000000E+00 -0.00000000000E+00 -0.35740347158E-01  0.35744000000E-01  0.51099999109E-03 0. -1.
      -11    1    1    2    0    0  0.15784164907E-02  0.17657004012E-01  0.31034033346E-01  0.35744000000E-01  0.51099999109E-03 0. -1.
       11    1    1    2    0    0 -0.15784164907E-02 -0.17657004012E-01 -0.31034033346E-01  0.35744000000E-01  0.51099999109E-03 0. -1.
</event>
<event>
 4   0  0.3028200E+07  0.9118800E+02  0.7546771E-02  0.1180000E+00
      -11   -1    0    0    0    0  0.00000000000E+00  0.00000000000E+00  0.35740347158E-01  0.35744000000E-01  0.51099999109E-03 0.  1.
       11   -1    0    0    0    0 -0.00000000000E+00 -0.00000000000E+00 -0.35740347158E-01  0.35744000000E-01  0.51099999109E-03 0. -1.
      -11    1    1    2    0    0 -0.62418491861E-02  0.20028906957E-01  0.28935352423E-01  0.35744000000E-01  0.51099999109E-03 0.  1.
       11    1    1    2    0    0  0.62418491861E-02 -0.20028906957E-01 -0.28935352423E-01  0.35744000000E-01  0.51099999109E-03 0. -1.
</event>
<event>
 4   0  0.3028200E+07  0.9118800E+02  0.7546771E-02  0.1180000E+00
      -11   -1    0    0    0    0  0.00000000000E+00  0.00000000000E+00  0.35740347158E-01  0.35744000000E-01  0.51099999109E-03 0. -1.
       11   -1    0    0    0    0 -0.00000000000E+00 -0.00000000000E+00 -0.35740347158E-01  0.35744000000E-01  0.51099999109E-03 0. -1.
      -11    1    1    2    0    0  0.64215565814E-02 -0.10011099285E-01  0.33703322050E-01  0.35744000000E-01  0.51099999109E-03 0. -1.
       11    1    1    2    0    0 -0.64215565814E-02  0.10011099285E-01 -0.33703322050E-01  0.35744000000E-01  0.51099999109E-03 0. -1.
</event>
<event>
 4   0  0.3028200E+07  0.9118800E+02  0.7546771E-02  0.1180000E+00
      -11   -1    0    0    0    0  0.00000000000E+00  0.00000000000E+00  0.35740347158E-01  0.35744000000E-01  0.51099999109E-03 0.  1.
       11   -1    0    0    0    0 -0.00000000000E+00 -0.00000000000E+00 -0.35740347158E-01  0.35744000000E-01  0.51099999109E-03 0.  1.
      -11    1    1    2    0    0 -0.42554788956E-02  0.12736794767E-01  0.33121554514E-01  0.35744000000E-01  0.51099999109E-03 0.  1.
       11    1    1    2    0    0  0.42554788956E-02 -0.12736794767E-01 -0.33121554514E-01  0.35744000000E-01  0.51099999109E-03 0.  1.
</event>
<event>
 4   0  0.3028200E+07  0.9118800E+02  0.7546771E-02  0.1180000E+00
      -11   -1    0    0    0    0  0.00000000000E+00  0.00000000000E+00  0.35740347158E-01  0.35744000000E-01  0.51099999109E-03 0.  1.
       11   -1    0    0    0    0 -0.00000000000E+00 -0.00000000000E+00 -0.35740347158E-01  0.35744000000E-01  0.51099999109E-03 0. -1.
      -11    1    1    2    0    0  0.10082249285E-01  0.63925996653E-02  0.33687613954E-01  0.35744000000E-01  0.51099999109E-03 0.  1.
       11    1    1    2    0    0 -0.10082249285E-01 -0.63925996653E-02 -0.33687613954E-01  0.35744000000E-01  0.51099999109E-03 0. -1.
</event>
<event>
 4   0  0.3028200E+07  0.9118800E+02  0.7546771E-02  0.1180000E+00
      -11   -1    0    0    0    0  0.00000000000E+00  0.00000000000E+00  0.35740347158E-01  0.35744000000E-01  0.51099999109E-03 0.  1.
       11   -1    0    0    0    0 -0.00000000000E+00 -0.00000000000E+00 -0.35740347158E-01  0.35744000000E-01  0.51099999109E-03 0.  1.
      -11    1    1    2    0    0 -0.19275764066E-01 -0.61244306733E-02  0.29467077962E-01  0.35744000000E-01  0.51099999109E-03 0.  1.
       11    1    1    2    0    0  0.19275764066E-01  0.61244306733E-02 -0.29467077962E-01  0.35744000000E-01  0.51099999109E-03 0.  1.
</event>
<event>
 4   0  0.3028200E+07  0.9118800E+02  0.7546771E-02  0.1180000E+00
      -11   -1    0    0    0    0  0.00000000000E+00  0.00000000000E+00  0.35740347158E-01  0.35744000000E-01  0.51099999109E-03 0. -1.
       11   -1    0    0    0    0 -0.00000000000E+00 -0.00000000000E+00 -0.35740347158E-01  0.35744000000E-01  0.51099999109E-03 0. -1.
      -11    1    1    2    0    0 -0.48250110227E-02  0.11541146373E-01  0.33479749462E-01  0.35744000000E-01  0.51099999109E-03 0. -1.
       11    1    1    2    0    0  0.48250110227E-02 -0.11541146373E-01 -0.33479749462E-01  0.35744000000E-01  0.51099999109E-03 0. -1.
</event>
<event>
 4   0  0.3028200E+07  0.9118800E+02  0.7546771E-02  0.1180000E+00
      -11   -1    0    0    0    0  0.00000000000E+00  0.00000000000E+00  0.35740347158E-01  0.35744000000E-01  0.51099999109E-03 0.  1.
       11   -1    0    0    0    0 -0.00000000000E+00 -0.00000000000E+00 -0.35740347158E-01  0.35744000000E-01  0.51099999109E-03 0. -1.
      -11    1    1    2    0    0 -0.49949125718E-02 -0.18347757680E-01  0.30261907599E-01  0.35744000000E-01  0.51099999109E-03 0.  1.
       11    1    1    2    0    0  0.49949125718E-02  0.18347757680E-01 -0.30261907599E-01  0.35744000000E-01  0.51099999109E-03 0. -1.
</event>
<event>
 4   0  0.3028200E+07  0.9118800E+02  0.7546771E-02  0.1180000E+00
      -11   -1    0    0    0    0  0.00000000000E+00  0.00000000000E+00  0.35740347158E-01  0.35744000000E-01  0.51099999109E-03 0. -1.
       11   -1    0    0    0    0 -0.00000000000E+00 -0.00000000000E+00 -0.35740347158E-01  0.35744000000E-01  0.51099999109E-03 0.  1.
      -11    1    1    2    0    0 -0.41569176938E-02  0.18541247992E-01  0.30270688350E-01  0.35744000000E-01  0.51099999109E-03 0. -1.
       11    1    1    2    0    0  0.41569176938E-02 -0.18541247992E-01 -0.30270688350E-01  0.35744000000E-01  0.51099999109E-03 0.  1.
</event>
<event>
 4   0  0.3028200E+07  0.9118800E+02  0.7546771E-02  0.1180000E+00
      -11   -1    0    0    0    0  0.00000000000E+00  0.00000000000E+00  0.35740347158E-01  0.35744000000E-01  0.51099999109E-03 0.  1.
       11   -1    0    0    0    0 -0.00000000000E+00 -0.00000000000E+00 -0.35740347158E-01  0.35744000000E-01  0.51099999109E-03 0.  1.
      -11    1    1    2    0    0  0.55327256159E-02 -0.16289433405E-01  0.31327555309E-01  0.35744000000E-01  0.51099999109E-03 0.  1.
       11    1    1    2    0    0 -0.55327256159E-02  0.16289433405E-01 -0.31327555309E-01  0.35744000000E-01  0.51099999109E-03 0.  1.
</event>
<event>
 4   0  0.3028200E+07  0.9118800E+02  0.7546771E-02  0.1180000E+00
      -11   -1    0    0    0    0  0.00000000000E+00  0.00000000000E+00  0.35740347158E-01  0.35744000000E-01  0.51099999109E-03 0. -1.
       11   -1    0    0    0    0 -0.00000000000E+00 -0.00000000000E+00 -0.35740347158E-01  0.35744000000E-01  0.51099999109E-03 0.  1.
      -11    1    1    2    0    0 -0.50658095476E-02  0.17828671642E-01  0.30558934146E-01  0.35744000000E-01  0.51099999109E-03 0. -1.
       11    1    1    2    0    0  0.50658095476E-02 -0.17828671642E-01 -0.30558934146E-01  0.35744000000E-01  0.51099999109E-03 0.  1.
</event>
<event>
 4   0  0.3028200E+07  0.9118800E+02  0.7546771E-02  0.1180000E+00
      -11   -1    0    0    0    0  0.00000000000E+00  0.00000000000E+00  0.35740347158E-01  0.35744000000E-01  0.51099999109E-03 0. -1.
       11   -1    0    0    0    0 -0.00000000000E+00 -0.00000000000E+00 -0.35740347158E-01  0.35744000000E-01  0.51099999109E-03 0. -1.
      -11    1    1    2    0    0 -0.11099748850E-01 -0.73672642101E-02  0.33164610785E-01  0.35744000000E-01  0.51099999109E-03 0. -1.
       11    1    1    2    0    0  0.11099748850E-01  0.73672642101E-02 -0.33164610785E-01  0.35744000000E-01  0.51099999109E-03 0. -1.
</event>
<event>
 4   0  0.3028200E+07  0.9118800E+02  0.7546771E-02  0.1180000E+00
      -11   -1    0    0    0    0  0.00000000000E+00  0.00000000000E+00  0.35740347158E-01  0.35744000000E-01  0.51099999109E-03 0. -1.
       11   -1    0    0    0    0 -0.00000000000E+00 -0.00000000000E+00 -0.35740347158E-01  0.35744000000E-01  0.51099999109E-03 0.  1.
      -11    1    1    2    0    0  0.35116475960E-02 -0.11746964253E-01  0.33571559049E-01  0.35744000000E-01  0.51099999109E-03 0. -1.
       11    1    1    2    0    0 -0.35116475960E-02  0.11746964253E-01 -0.33571559049E-01  0.35744000000E-01  0.51099999109E-03 0.  1.
</event>
<event>
 4   0  0.3028200E+07  0.9118800E+02  0.7546771E-02  0.1180000E+00
      -11   -1    0    0    0    0  0.00000000000E+00  0.00000000000E+00  0.35740347158E-01  0.35744000000E-01  0.51099999109E-03 0. -1.
       11   -1    0    0    0    0 -0.00000000000E+00 -0.00000000000E+00 -0.35740347158E-01  0.35744000000E-01  0.51099999109E-03 0.  1.
      -11    1    1    2    0    0 -0.39716507139E-02 -0.11957973631E-01  0.33445556839E-01  0.35744000000E-01  0.51099999109E-03 0. -1.
       11    1    1    2    0    0  0.39716507139E-02  0.11957973631E-01 -0.33445556839E-01  0.35744000000E-01  0.51099999109E-03 0.  1.
</event>
<event>
 4   0  0.3028200E+07  0.9118800E+02  0.7546771E-02  0.1180000E+00
      -11   -1    0    0    0    0  0.00000000000E+00  0.00000000000E+00  0.35740347158E-01  0.35744000000E-01  0.51099999109E-03 0. -1.
       11   -1    0    0    0    0 -0.00000000000E+00 -0.00000000000E+00 -0.35740347158E-01  0.35744000000E-01  0.51099999109E-03 0.  1.
      -11    1    1    2    0    0  0.19163763784E-01 -0.28981833862E-02  0.30028704696E-01  0.35744000000E-01  0.51099999109E-03 0. -1.
       11    1    1    2    0    0 -0.19163763784E-01  0.28981833862E-02 -0.30028704696E-01  0.35744000000E-01  0.51099999109E-03 0.  1.
</event>
<event>
 4   0  0.3028200E+07  0.9118800E+02  0.7546771E-02  0.1180000E+00
      -11   -1    0    0    0    0  0.00000000000E+00  0.00000000000E+00  0.35740347158E-01  0.35744000000E-01  0.51099999109E-03 0.  1.
       11   -1    0    0    0    0 -0.00000000000E+00 -0.00000000000E+00 -0.35740347158E-01  0.35744000000E-01  0.51099999109E-03 0.  1.
      -11    1    1    2    0    0 -0.85143541475E-02  0.22693224920E-01  0.26265866275E-01  0.35744000000E-01  0.51099999109E-03 0.  1.
       11    1    1    2    0    0  0.85143541475E-02 -0.22693224920E-01 -0.26265866275E-01  0.35744000000E-01  0.51099999109E-03 0.  1.
</event>
<event>
 4   0  0.3028200E+07  0.9118800E+02  0.7546771E-02  0.1180000E+00
      -11   -1    0    0    0    0  0.00000000000E+00  0.00000000000E+00  0.35740347158E-01  0.35744000000E-01  0.51099999109E-03 0.  1.
       11   -1    0    0    0    0 -0.00000000000E+00 -0.00000000000E+00 -0.35740347158E-01  0.35744000000E-01  0.51099999109E-03 0. -1.
      -11    1    1    2    0    0  0.19364875239E-01  0.16664969026E-02  0.29993279415E-01  0.35744000000E-01  0.51099999109E-03 0.  1.
       11    1    1    2    0    0 -0.19364875239E-01 -0.16664969026E-02 -0.29993279415E-01  0.35744000000E-01  0.51099999109E-03 0. -1.
</event>
<event>
 4   0  0.3028200E+07  0.9118800E+02  0.7546771E-02  0.1180000E+00
      -11   -1    0    0    0    0  0.00000000000E+00  0.00000000000E+00  0.35740347158E-01  0.35744000000E-01  0.51099999109E-03 0. -1.
       11   -1    0    0    0    0 -0.00000000000E+00 -0.00000000000E+00 -0.35740347158E-01  0.35744000000E-01  0.51099999109E-03 0. -1.
      -11    1    1    2    0    0 -0.98404212504E-02 -0.70945277682E-02  0.33618539534E-01  0.35744000000E-01  0.51099999109E-03 0. -1.
       11    1    1    2    0    0  0.98404212504E-02  0.70945277682E-02 -0.33618539534E-01  0.35744000000E-01  0.51099999109E-03 0. -1.
</event>
<event>
 4   0  0.3028200E+07  0.9118800E+02  0.7546771E-02  0.1180000E+00
      -11   -1    0    0    0    0  0.00000000000E+00  0.00000000000E+00  0.35740347158E-01  0.35744000000E-01  0.51099999109E-03 0. -1.
       11   -1    0    0    0    0 -0.00000000000E+00 -0.00000000000E+00 -0.35740347158E-01  0.35744000000E-01  0.51099999109E-03 0. -1.
      -11    1    1    2    0    0 -0.40209071698E-02  0.16202409246E-01  0.31602003974E-01  0.35744000000E-01  0.51099999109E-03 0. -1.
       11    1    1    2    0    0  0.40209071698E-02 -0.16202409246E-01 -0.31602003974E-01  0.35744000000E-01  0.51099999109E-03 0. -1.
</event>
<event>
 4   0  0.3028200E+07  0.9118800E+02  0.7546771E-02  0.1180000E+00
      -11   -1    0    0    0    0  0.00000000000E+00  0.00000000000E+00  0.35740347158E-01  0.35744000000E-01  0.51099999109E-03 0. -1.
       11   -1    0    0    0    0 -0.00000000000E+00 -0.00000000000E+00 -0.35740347158E-01  0.35744000000E-01  0.51099999109E-03 0.  1.
      -11    1    1    2    0    0 -0.70211401928E-02  0.10801718477E-01  0.33337649637E-01  0.35744000000E-01  0.51099999109E-03 0. -1.
       11    1    1    2    0    0  0.70211401928E-02 -0.10801718477E-01 -0.33337649637E-01  0.35744000000E-01  0.51099999109E-03 0.  1.
</event>
<event>
 4   0  0.3028200E+07  0.9118800E+02  0.7546771E-02  0.1180000E+00
      -11   -1    0    0    0    0  0.00000000000E+00  0.00000000000E+00  0.35740347158E-01  0.35744000000E-01  0.51099999109E-03 0.  1.
       11   -1    0    0    0    0 -0.00000000000E+00 -0.00000000000E+00 -0.35740347158E-01  0.35744000000E-01  0.51099999109E-03 0. -1.
      -11    1    1    2    0    0  0.11871434849E-02  0.20540309415E-01  0.29224284328E-01  0.35744000000E-01  0.51099999109E-03 0.  1.
       11    1    1    2    0    0 -0.11871434849E-02 -0.20540309415E-01 -0.29224284328E-01  0.35744000000E-01  0.51099999109E-03 0. -1.
</event>
<event>
 4   0  0.3028200E+07  0.9118800E+02  0.7546771E-02  0.1180000E+00
      -11   -1    0    0    0    0  0.00000000000E+00  0.00000000000E+00  0.35740347158E-01  0.35744000000E-01  0.51099999109E-03 0.  1.
       11   -1    0    0    0    0 -0.00000000000E+00 -0.00000000000E+00 -0.35740347158E-01  0.35744000000E-01  0.51099999109E-03 0.  1.
      -11    1    1    2    0    0 -0.32027144374E-02 -0.18367076101E-01  0.30492057174E-01  0.35744000000E-01  0.51099999109E-03 0.  1.
       11    1    1    2    0    0  0.32027144374E-02  0.18367076101E-01 -0.30492057174E-01  0.35744000000E-01  0.51099999109E-03 0.  1.
</event>
<event>
 4   0  0.3028200E+07  0.9118800E+02  0.7546771E-02  0.1180000E+00
      -11   -1    0    0    0    0  0.00000000000E+00  0.00000000000E+00  0.35740347158E-01  0.35744000000E-01  0.51099999109E-03 0.  1.
       11   -1    0    0    0    0 -0.00000000000E+00 -0.00000000000E+00 -0.35740347158E-01  0.35744000000E-01  0.51099999109E-03 0. -1.
      -11    1    1    2    0    0 -0.12082799258E-01 -0.19557876624E-03  0.33635399894E-01  0.35744000000E-01  0.51099999109E-03 0.  1.
       11    1    1    2    0    0  0.12082799258E-01  0.19557876624E-03 -0.33635399894E-01  0.35744000000E-01  0.51099999109E-03 0. -1.
</event>
<event>
 4   0  0.3028200E+07  0.9118800E+02  0.7546771E-02  0.1180000E+00
      -11   -1    0    0    0    0  0.00000000000E+00  0.00000000000E+00  0.35740347158E-01  0.35744000000E-01  0.51099999109E-03 0.  1.
       11   -1    0    0    0    0 -0.00000000000E+00 -0.00000000000E+00 -0.35740347158E-01  0.35744000000E-01  0.51099999109E-03 0.  1.
      -11    1    1    2    0    0  0.16893061857E-02  0.12352807351E-01  0.33495175924E-01  0.35744000000E-01  0.51099999109E-03 0.  1.
       11    1    1    2    0    0 -0.16893061857E-02 -0.12352807351E-01 -0.33495175924E-01  0.35744000000E-01  0.51099999109E-03 0.  1.
</event>
<event>
 4   0  0.3028200E+07  0.9118800E+02  0.7546771E-02  0.1180000E+00
      -11   -1    0    0    0    0  0.00000000000E+00  0.00000000000E+00  0.35740347158E-01  0.35744000000E-01  0.51099999109E-03 0.  1.
       11   -1    0    0    0    0 -0.00000000000E+00 -0.00000000000E+00 -0.35740347158E-01  0.35744000000E-01  0.51099999109E-03 0.  1.
      -11    1    1    2    0    0  0.52615652048E-02  0.12176524061E-01  0.33187657471E-01  0.35744000000E-01  0.51099999109E-03 0.  1.
       11    1    1    2    0    0 -0.52615652048E-02 -0.12176524061E-01 -0.33187657471E-01  0.35744000000E-01  0.51099999109E-03 0.  1.
</event>
<event>
 4   0  0.3028200E+07  0.9118800E+02  0.7546771E-02  0.1180000E+00
      -11   -1    0    0    0    0  0.00000000000E+00  0.00000000000E+00  0.35740347158E-01  0.35744000000E-01  0.51099999109E-03 0. -1.
       11   -1    0    0    0    0 -0.00000000000E+00 -0.00000000000E+00 -0.35740347158E-01  0.35744000000E-01  0.51099999109E-03 0. -1.
      -11    1    1    2    0    0  0.17288815568E-01  0.45818578544E-02  0.30943106662E-01  0.35744000000E-01  0.51099999109E-03 0. -1.
       11    1    1    2    0    0 -0.17288815568E-01 -0.45818578544E-02 -0.30943106662E-01  0.35744000000E-01  0.51099999109E-03 0. -1.
</event>
<event>
 4   0  0.3028200E+07  0.9118800E+02  0.7546771E-02  0.1180000E+00
      -11   -1    0    0    0    0  0.00000000000E+00  0.00000000000E+00  0.35740347158E-01  0.35744000000E-01  0.51099999109E-03 0. -1.
       11   -1    0    0    0    0 -0.00000000000E+00 -0.00000000000E+00 -0.35740347158E-01  0.35744000000E-01  0.51099999109E-03 0.  1.
      -11    1    1    2    0    0 -0.14692821892E-01  0.17124542949E-01  0.27717204561E-01  0.35744000000E-01  0.51099999109E-03 0. -1.
       11    1    1    2    0    0  0.14692821892E-01 -0.17124542949E-01 -0.27717204561E-01  0.35744000000E-01  0.51099999109E-03 0.  1.
</event>
<event>
 4   0  0.3028200E+07  0.9118800E+02  0.7546771E-02  0.1180000E+00
      -11   -1    0    0    0    0  0.00000000000E+00  0.00000000000E+00  0.35740347158E-01  0.35744000000E-01  0.51099999109E-03 0. -1.
       11   -1    0    0    0    0 -0.00000000000E+00 -0.00000000000E+00 -0.35740347158E-01  0.35744000000E-01  0.51099999109E-03 0.  1.
      -11    1    1    2    0    0  0.71326384557E-02  0.21748370351E-01  0.27450068684E-01  0.35744000000E-01  0.51099999109E-03 0. -1.
       11    1    1    2    0    0 -0.71326384557E-02 -0.21748370351E-01 -0.27450068684E-01  0.35744000000E-01  0.51099999109E-03 0.  1.
</event>
<event>
 4   0  0.3028200E+07  0.9118800E+02  0.7546771E-02  0.1180000E+00
      -11   -1    0    0    0    0  0.00000000000E+00  0.00000000000E+00  0.35740347158E-01  0.35744000000E-01  0.51099999109E-03 0. -1.
       11   -1    0    0    0    0 -0.00000000000E+00 -0.00000000000E+00 -0.35740347158E-01  0.35744000000E-01  0.51099999109E-03 0.  1.
      -11    1    1    2    0    0  0.12930068029E-01  0.26371173361E-02  0.33214926884E-01  0.35744000000E-01  0.51099999109E-03 0. -1.
       11    1    1    2    0    0 -0.12930068029E-01 -0.26371173361E-02 -0.33214926884E-01  0.35744000000E-01  0.51099999109E-03 0.  1.
</event>
<event>
 4   0  0.3028200E+07  0.9118800E+02  0.7546771E-02  0.1180000E+00
      -11   -1    0    0    0    0  0.00000000000E+00  0.00000000000E+00  0.35740347158E-01  0.35744000000E-01  0.51099999109E-03 0. -1.
       11   -1    0    0    0    0 -0.00000000000E+00 -0.00000000000E+00 -0.35740347158E-01  0.35744000000E-01  0.51099999109E-03 0.  1.
      -11    1    1    2    0    0  0.60028536761E-02 -0.12080449343E-01  0.33096841336E-01  0.35744000000E-01  0.51099999109E-03 0. -1.
       11    1    1    2    0    0 -0.60028536761E-02  0.12080449343E-01 -0.33096841336E-01  0.35744000000E-01  0.51099999109E-03 0.  1.
</event>
<event>
 4   0  0.3028200E+07  0.9118800E+02  0.7546771E-02  0.1180000E+00
      -11   -1    0    0    0    0  0.00000000000E+00  0.00000000000E+00  0.35740347158E-01  0.35744000000E-01  0.51099999109E-03 0. -1.
       11   -1    0    0    0    0 -0.00000000000E+00 -0.00000000000E+00 -0.35740347158E-01  0.35744000000E-01  0.51099999109E-03 0. -1.
      -11    1    1    2    0    0 -0.12545973715E-01 -0.13869813041E-01  0.30456513996E-01  0.35744000000E-01  0.51099999109E-03 0. -1.
       11    1    1    2    0    0  0.12545973715E-01  0.13869813041E-01 -0.30456513996E-01  0.35744000000E-01  0.51099999109E-03 0. -1.
</event>
<event>
 4   0  0.3028200E+07  0.9118800E+02  0.7546771E-02  0.1180000E+00
      -11   -1    0    0    0    0  0.00000000000E+00  0.00000000000E+00  0.35740347158E-01  0.35744000000E-01  0.51099999109E-03 0. -1.
       11   -1    0    0    0    0 -0.00000000000E+00 -0.00000000000E+00 -0.35740347158E-01  0.35744000000E-01  0.51099999109E-03 0. -1.
      -11    1    1    2    0    0  0.95222744067E-02 -0.99724607565E-02  0.32973454954E-01  0.35744000000E-01  0.51099999109E-03 0. -1.
       11    1    1    2    0    0 -0.95222744067E-02  0.99724607565E-02 -0.32973454954E-01  0.35744000000E-01  0.51099999109E-03 0. -1.
</event>
<event>
 4   0  0.3028200E+07  0.9118800E+02  0.7546771E-02  0.1180000E+00
      -11   -1    0    0    0    0  0.00000000000E+00  0.00000000000E+00  0.35740347158E-01  0.35744000000E-01  0.51099999109E-03 0. -1.
       11   -1    0    0    0    0 -0.00000000000E+00 -0.00000000000E+00 -0.35740347158E-01  0.35744000000E-01  0.51099999109E-03 0. -1.
      -11    1    1    2    0    0  0.87527277226E-02 -0.77545229983E-02  0.33773207510E-01  0.35744000000E-01  0.51099999109E-03 0. -1.
       11    1    1    2    0    0 -0.87527277226E-02  0.77545229983E-02 -0.33773207510E-01  0.35744000000E-01  0.51099999109E-03 0. -1.
</event>
<event>
 4   0  0.3028200E+07  0.9118800E+02  0.7546771E-02  0.1180000E+00
      -11   -1    0    0    0    0  0.00000000000E+00  0.00000000000E+00  0.35740347158E-01  0.35744000000E-01  0.51099999109E-03 0. -1.
       11   -1    0    0    0    0 -0.00000000000E+00 -0.00000000000E+00 -0.35740347158E-01  0.35744000000E-01  0.51099999109E-03 0. -1.
      -11    1    1    2    0    0 -0.14445358152E-01 -0.43572323500E-02  0.32399360628E-01  0.35744000000E-01  0.51099999109E-03 0. -1.
       11    1    1    2    0    0  0.14445358152E-01  0.43572323500E-02 -0.32399360628E-01  0.35744000000E-01  0.51099999109E-03 0. -1.
</event>
<event>
 4   0  0.3028200E+07  0.9118800E+02  0.7546771E-02  0.1180000E+00
      -11   -1    0    0    0    0  0.00000000000E+00  0.00000000000E+00  0.35740347158E-01  0.35744000000E-01  0.51099999109E-03 0.  1.
       11   -1    0    0    0    0 -0.00000000000E+00 -0.00000000000E+00 -0.35740347158E-01  0.35744000000E-01  0.51099999109E-03 0. -1.
      -11    1    1    2    0    0  0.49507906243E-02 -0.14775757246E-01  0.32164251663E-01  0.35744000000E-01  0.51099999109E-03 0.  1.
       11    1    1    2    0    0 -0.49507906243E-02  0.14775757246E-01 -0.32164251663E-01  0.35744000000E-01  0.51099999109E-03 0. -1.
</event>
<event>
 4   0  0.3028200E+07  0.9118800E+02  0.7546771E-02  0.1180000E+00
      -11   -1    0    0    0    0  0.00000000000E+00  0.00000000000E+00  0.35740347158E-01  0.35744000000E-01  0.51099999109E-03 0.  1.
       11   -1    0    0    0    0 -0.00000000000E+00 -0.00000000000E+00 -0.35740347158E-01  0.35744000000E-01  0.51099999109E-03 0. -1.
      -11    1    1    2    0    0 -0.16421760971E-01  0.50901421069E-02  0.31333506586E-01  0.35744000000E-01  0.51099999109E-03 0.  1.
       11    1    1    2    0    0  0.16421760971E-01 -0.50901421069E-02 -0.31333506586E-01  0.35744000000E-01  0.51099999109E-03 0. -1.
</event>
<event>
 4   0  0.3028200E+07  0.9118800E+02  0.7546771E-02  0.1180000E+00
      -11   -1    0    0    0    0  0.00000000000E+00  0.00000000000E+00  0.35740347158E-01  0.35744000000E-01  0.51099999109E-03 0.  1.
       11   -1    0    0    0    0 -0.00000000000E+00 -0.00000000000E+00 -0.35740347158E-01  0.35744000000E-01  0.51099999109E-03 0.  1.
      -11    1    1    2    0    0 -0.69399472951E-02  0.11232103831E-01  0.33212187373E-01  0.35744000000E-01  0.51099999109E-03 0.  1.
       11    1    1    2    0    0  0.69399472951E-02 -0.11232103831E-01 -0.33212187373E-01  0.35744000000E-01  0.51099999109E-03 0.  1.
</event>
<event>
 4   0  0.3028200E+07  0.9118800E+02  0.7546771E-02  0.1180000E+00
      -11   -1    0    0    0    0  0.00000000000E+00  0.00000000000E+00  0.35740347158E-01  0.35744000000E-01  0.51099999109E-03 0. -1.
       11   -1    0    0    0    0 -0.00000000000E+00 -0.00000000000E+00 -0.35740347158E-01  0.35744000000E-01  0.51099999109E-03 0. -1.
      -11    1    1    2    0    0  0.90746391111E-02  0.12284181268E-01  0.32312880258E-01  0.35744000000E-01  0.51099999109E-03 0. -1.
       11    1    1    2    0    0 -0.90746391111E-02 -0.12284181268E-01 -0.32312880258E-01  0.35744000000E-01  0.51099999109E-03 0. -1.
</event>
<event>
 4   0  0.3028200E+07  0.9118800E+02  0.7546771E-02  0.1180000E+00
      -11   -1    0    0    0    0  0.00000000000E+00  0.00000000000E+00  0.35740347158E-01  0.35744000000E-01  0.51099999109E-03 0.  1.
       11   -1    0    0    0    0 -0.00000000000E+00 -0.00000000000E+00 -0.35740347158E-01  0.35744000000E-01  0.51099999109E-03 0.  1.
      -11    1    1    2    0    0 -0.85076545513E-02 -0.11247386126E-01  0.32840349182E-01  0.35744000000E-01  0.51099999109E-03 0.  1.
       11    1    1    2    0    0  0.85076545513E-02  0.11247386126E-01 -0.32840349182E-01  0.35744000000E-01  0.51099999109E-03 0.  1.
</event>
<event>
 4   0  0.3028200E+07  0.9118800E+02  0.7546771E-02  0.1180000E+00
      -11   -1    0    0    0    0  0.00000000000E+00  0.00000000000E+00  0.35740347158E-01  0.35744000000E-01  0.51099999109E-03 0.  1.
       11   -1    0    0    0    0 -0.00000000000E+00 -0.00000000000E+00 -0.35740347158E-01  0.35744000000E-01  0.51099999109E-03 0.  1.
      -11    1    1    2    0    0  0.88928128965E-02  0.79379013557E-02  0.33693916600E-01  0.35744000000E-01  0.51099999109E-03 0.  1.
       11    1    1    2    0    0 -0.88928128965E-02 -0.79379013557E-02 -0.33693916600E-01  0.35744000000E-01  0.51099999109E-03 0.  1.
</event>
<event>
 4   0  0.3028200E+07  0.9118800E+02  0.7546771E-02  0.1180000E+00
      -11   -1    0    0    0    0  0.00000000000E+00  0.00000000000E+00  0.35740347158E-01  0.35744000000E-01  0.51099999109E-03 0. -1.
       11   -1    0    0    0    0 -0.00000000000E+00 -0.00000000000E+00 -0.35740347158E-01  0.35744000000E-01  0.51099999109E-03 0.  1.
      -11    1    1    2    0    0  0.14261244178E-01 -0.12538114105E-01  0.30278458088E-01  0.35744000000E-01  0.51099999109E-03 0. -1.
       11    1    1    2    0    0 -0.14261244178E-01  0.12538114105E-01 -0.30278458088E-01  0.35744000000E-01  0.51099999109E-03 0.  1.
</event>
<event>
 4   0  0.3028200E+07  0.9118800E+02  0.7546771E-02  0.1180000E+00
      -11   -1    0    0    0    0  0.00000000000E+00  0.00000000000E+00  0.35740347158E-01  0.35744000000E-01  0.51099999109E-03 0.  1.
       11   -1    0    0    0    0 -0.00000000000E+00 -0.00000000000E+00 -0.35740347158E-01  0.35744000000E-01  0.51099999109E-03 0. -1.
      -11    1    1    2    0    0 -0.12227518426E-01 -0.27623277512E-02  0.33469833485E-01  0.35744000000E-01  0.51099999109E-03 0.  1.
       11    1    1    2    0    0  0.12227518426E-01  0.27623277512E-02 -0.33469833485E-01  0.35744000000E-01  0.51099999109E-03 0. -1.
</event>
<event>
 4   0  0.3028200E+07  0.9118800E+02  0.7546771E-02  0.1180000E+00
      -11   -1    0    0    0    0  0.00000000000E+00  0.00000000000E+00  0.35740347158E-01  0.35744000000E-01  0.51099999109E-03 0. -1.
       11   -1    0    0    0    0 -0.00000000000E+00 -0.00000000000E+00 -0.35740347158E-01  0.35744000000E-01  0.51099999109E-03 0. -1.
      -11    1    1    2    0    0 -0.21151016262E-01 -0.10148258583E-01  0.26963304208E-01  0.35744000000E-01  0.51099999109E-03 0. -1.
       11    1    1    2    0    0  0.21151016262E-01  0.10148258583E-01 -0.26963304208E-01  0.35744000000E-01  0.51099999109E-03 0. -1.
</event>
<event>
 4   0  0.3028200E+07  0.9118800E+02  0.7546771E-02  0.1180000E+00
      -11   -1    0    0    0    0  0.00000000000E+00  0.00000000000E+00  0.35740347158E-01  0.35744000000E-01  0.51099999109E-03 0. -1.
       11   -1    0    0    0    0 -0.00000000000E+00 -0.00000000000E+00 -0.35740347158E-01  0.35744000000E-01  0.51099999109E-03 0. -1.
      -11    1    1    2    0    0 -0.11358192432E-01 -0.76953851763E-02  0.33002195786E-01  0.35744000000E-01  0.51099999109E-03 0. -1.
       11    1    1    2    0    0  0.11358192432E-01  0.76953851763E-02 -0.33002195786E-01  0.35744000000E-01  0.51099999109E-03 0. -1.
</event>
<event>
 4   0  0.3028200E+07  0.9118800E+02  0.7546771E-02  0.1180000E+00
      -11   -1    0    0    0    0  0.00000000000E+00  0.00000000000E+00  0.35740347158E-01  0.35744000000E-01  0.51099999109E-03 0. -1.
       11   -1    0    0    0    0 -0.00000000000E+00 -0.00000000000E+00 -0.35740347158E-01  0.35744000000E-01  0.51099999109E-03 0. -1.
      -11    1    1    2    0    0 -0.17366863278E-01  0.25640937212E-03  0.31236176609E-01  0.35744000000E-01  0.51099999109E-03 0. -1.
       11    1    1    2    0    0  0.17366863278E-01 -0.25640937212E-03 -0.31236176609E-01  0.35744000000E-01  0.51099999109E-03 0. -1.
</event>
<event>
 4   0  0.3028200E+07  0.9118800E+02  0.7546771E-02  0.1180000E+00
      -11   -1    0    0    0    0  0.00000000000E+00  0.00000000000E+00  0.35740347158E-01  0.35744000000E-01  0.51099999109E-03 0.  1.
       11   -1    0    0    0    0 -0.00000000000E+00 -0.00000000000E+00 -0.35740347158E-01  0.35744000000E-01  0.51099999109E-03 0. -1.
      -11    1    1    2    0    0  0.11312596138E-01 -0.35461248905E-02  0.33716799698E-01  0.35744000000E-01  0.51099999109E-03 0.  1.
       11    1    1    2    0    0 -0.11312596138E-01  0.35461248905E-02 -0.33716799698E-01  0.35744000000E-01  0.51099999109E-03 0. -1.
</event>
<event>
 4   0  0.3028200E+07  0.9118800E+02  0.7546771E-02  0.1180000E+00
      -11   -1    0    0    0    0  0.00000000000E+00  0.00000000000E+00  0.35740347158E-01  0.35744000000E-01  0.51099999109E-03 0. -1.
       11   -1    0    0    0    0 -0.00000000000E+00 -0.00000000000E+00 -0.35740347158E-01  0.35744000000E-01  0.51099999109E-03 0. -1.
      -11    1    1    2    0    0 -0.36870301787E-02  0.13770013513E-01  0.32774455775E-01  0.35744000000E-01  0.51099999109E-03 0. -1.
       11    1    1    2    0    0  0.36870301787E-02 -0.13770013513E-01 -0.32774455775E-01  0.35744000000E-01  0.51099999109E-03 0. -1.
</event>
<event>
 4   0  0.3028200E+07  0.9118800E+02  0.7546771E-02  0.1180000E+00
      -11   -1    0    0    0    0  0.00000000000E+00  0.00000000000E+00  0.35740347158E-01  0.35744000000E-01  0.51099999109E-03 0.  1.
       11   -1    0    0    0    0 -0.00000000000E+00 -0.00000000000E+00 -0.35740347158E-01  0.35744000000E-01  0.51099999109E-03 0.  1.
      -11    1    1    2    0    0 -0.13019220346E-01 -0.12121886140E-01  0.30998906320E-01  0.35744000000E-01  0.51099999109E-03 0.  1.
       11    1    1    2    0    0  0.13019220346E-01  0.12121886140E-01 -0.30998906320E-01  0.35744000000E-01  0.51099999109E-03 0.  1.
</event>
<event>
 4   0  0.3028200E+07  0.9118800E+02  0.7546771E-02  0.1180000E+00
      -11   -1    0    0    0    0  0.00000000000E+00  0.00000000000E+00  0.35740347158E-01  0.35744000000E-01  0.51099999109E-03 0.  1.
       11   -1    0    0    0    0 -0.00000000000E+00 -0.00000000000E+00 -0.35740347158E-01  0.35744000000E-01  0.51099999109E-03 0.  1.
      -11    1    1    2    0    0  0.12794276905E-01 -0.24198852525E-02  0.33283975857E-01  0.35744000000E-01  0.51099999109E-03 0.  1.
       11    1    1    2    0    0 -0.12794276905E-01  0.24198852525E-02 -0.33283975857E-01  0.35744000000E-01  0.51099999109E-03 0.  1.
</event>
<event>
 4   0  0.3028200E+07  0.9118800E+02  0.7546771E-02  0.1180000E+00
      -11   -1    0    0    0    0  0.00000000000E+00  0.00000000000E+00  0.35740347158E-01  0.35744000000E-01  0.51099999109E-03 0. -1.
       11   -1    0    0    0    0 -0.00000000000E+00 -0.00000000000E+00 -0.35740347158E-01  0.35744000000E-01  0.51099999109E-03 0. -1.
      -11    1    1    2    0    0  0.13395265993E-01  0.24245586409E-02  0.33046342905E-01  0.35744000000E-01  0.51099999109E-03 0. -1.
       11    1    1    2    0    0 -0.13395265993E-01 -0.24245586409E-02 -0.33046342905E-01  0.35744000000E-01  0.51099999109E-03 0. -1.
</event>
<event>
 4   0  0.3028200E+07  0.9118800E+02  0.7546771E-02  0.1180000E+00
      -11   -1    0    0    0    0  0.00000000000E+00  0.00000000000E+00  0.35740347158E-01  0.35744000000E-01  0.51099999109E-03 0. -1.
       11   -1    0    0    0    0 -0.00000000000E+00 -0.00000000000E+00 -0.35740347158E-01  0.35744000000E-01  0.51099999109E-03 0. -1.
      -11    1    1    2    0    0  0.14740231045E-01  0.38042337473E-02  0.32336137823E-01  0.35744000000E-01  0.51099999109E-03 0. -1.
       11    1    1    2    0    0 -0.14740231045E-01 -0.38042337473E-02 -0.32336137823E-01  0.35744000000E-01  0.51099999109E-03 0. -1.
</event>
<event>
 4   0  0.3028200E+07  0.9118800E+02  0.7546771E-02  0.1180000E+00
      -11   -1    0    0    0    0  0.00000000000E+00  0.00000000000E+00  0.35740347158E-01  0.35744000000E-01  0.51099999109E-03 0. -1.
       11   -1    0    0    0    0 -0.00000000000E+00 -0.00000000000E+00 -0.35740347158E-01  0.35744000000E-01  0.51099999109E-03 0. -1.
      -11    1    1    2    0    0 -0.10963367470E-01 -0.53668069473E-02  0.33591284166E-01  0.35744000000E-01  0.51099999109E-03 0. -1.
       11    1    1    2    0    0  0.10963367470E-01  0.53668069473E-02 -0.33591284166E-01  0.35744000000E-01  0.51099999109E-03 0. -1.
</event>
<event>
 4   0  0.3028200E+07  0.9118800E+02  0.7546771E-02  0.1180000E+00
      -11   -1    0    0    0    0  0.00000000000E+00  0.00000000000E+00  0.35740347158E-01  0.35744000000E-01  0.51099999109E-03 0.  1.
       11   -1    0    0    0    0 -0.00000000000E+00 -0.00000000000E+00 -0.35740347158E-01  0.35744000000E-01  0.51099999109E-03 0.  1.
      -11    1    1    2    0    0 -0.12409567342E-01 -0.61135389312E-03  0.33511211554E-01  0.35744000000E-01  0.51099999109E-03 0.  1.
       11    1    1    2    0    0  0.12409567342E-01  0.61135389312E-03 -0.33511211554E-01  0.35744000000E-01  0.51099999109E-03 0.  1.
</event>
<event>
 4   0  0.3028200E+07  0.9118800E+02  0.7546771E-02  0.1180000E+00
      -11   -1    0    0    0    0  0.00000000000E+00  0.00000000000E+00  0.35740347158E-01  0.35744000000E-01  0.51099999109E-03 0.  1.
       11   -1    0    0    0    0 -0.00000000000E+00 -0.00000000000E+00 -0.35740347158E-01  0.35744000000E-01  0.51099999109E-03 0. -1.
      -11    1    1    2    0    0  0.11473172621E-01  0.38637258106E-02  0.33627523666E-01  0.35744000000E-01  0.51099999109E-03 0.  1.
       11    1    1    2    0    0 -0.11473172621E-01 -0.38637258106E-02 -0.33627523666E-01  0.35744000000E-01  0.51099999109E-03 0. -1.
</event>
<event>
 4   0  0.3028200E+07  0.9118800E+02  0.7546771E-02  0.1180000E+00
      -11   -1    0    0    0    0  0.00000000000E+00  0.00000000000E+00  0.35740347158E-01  0.35744000000E-01  0.51099999109E-03 0.  1.
       11   -1    0    0    0    0 -0.00000000000E+00 -0.00000000000E+00 -0.35740347158E-01  0.35744000000E-01  0.51099999109E-03 0. -1.
      -11    1    1    2    0    0 -0.24099173500E-02  0.13582307439E-01  0.32970981757E-01  0.35744000000E-01  0.51099999109E-03 0.  1.
       11    1    1    2    0    0  0.24099173500E-02 -0.13582307439E-01 -0.32970981757E-01  0.35744000000E-01  0.51099999109E-03 0. -1.
</event>
<event>
 4   0  0.3028200E+07  0.9118800E+02  0.7546771E-02  0.1180000E+00
      -11   -1    0    0    0    0  0.00000000000E+00  0.00000000000E+00  0.35740347158E-01  0.35744000000E-01  0.51099999109E-03 0. -1.
       11   -1    0    0    0    0 -0.00000000000E+00 -0.00000000000E+00 -0.35740347158E-01  0.35744000000E-01  0.51099999109E-03 0. -1.
      -11    1    1    2    0    0 -0.65066555528E-03 -0.13126973671E-01  0.33235998730E-01  0.35744000000E-01  0.51099999109E-03 0. -1.
       11    1    1    2    0    0  0.65066555528E-03  0.13126973671E-01 -0.33235998730E-01  0.35744000000E-01  0.51099999109E-03 0. -1.
</event>
<event>
 4   0  0.3028200E+07  0.9118800E+02  0.7546771E-02  0.1180000E+00
      -11   -1    0    0    0    0  0.00000000000E+00  0.00000000000E+00  0.35740347158E-01  0.35744000000E-01  0.51099999109E-03 0.  1.
       11   -1    0    0    0    0 -0.00000000000E+00 -0.00000000000E+00 -0.35740347158E-01  0.35744000000E-01  0.51099999109E-03 0. -1.
      -11    1    1    2    0    0  0.16941664835E-01 -0.56065274486E-02  0.30966421453E-01  0.35744000000E-01  0.51099999109E-03 0.  1.
       11    1    1    2    0    0 -0.16941664835E-01  0.56065274486E-02 -0.30966421453E-01  0.35744000000E-01  0.51099999109E-03 0. -1.
</event>
<event>
 4   0  0.3028200E+07  0.9118800E+02  0.7546771E-02  0.1180000E+00
      -11   -1    0    0    0    0  0.00000000000E+00  0.00000000000E+00  0.35740347158E-01  0.35744000000E-01  0.51099999109E-03 0.  1.
       11   -1    0    0    0    0 -0.00000000000E+00 -0.00000000000E+00 -0.35740347158E-01  0.35744000000E-01  0.51099999109E-03 0.  1.
      -11    1    1    2    0    0  0.10332534114E-01  0.54991749904E-02  0.33769368194E-01  0.35744000000E-01  0.51099999109E-03 0.  1.
       11    1    1    2    0    0 -0.10332534114E-01 -0.54991749904E-02 -0.33769368194E-01  0.35744000000E-01  0.51099999109E-03 0.  1.
</event>
<event>
 4   0  0.3028200E+07  0.9118800E+02  0.7546771E-02  0.1180000E+00
      -11   -1    0    0    0    0  0.00000000000E+00  0.00000000000E+00  0.35740347158E-01  0.35744000000E-01  0.51099999109E-03 0. -1.
       11   -1    0    0    0    0 -0.00000000000E+00 -0.00000000000E+00 -0.35740347158E-01  0.35744000000E-01  0.51099999109E-03 0. -1.
      -11    1    1    2    0    0 -0.11747491638E-01 -0.51902779777E-02  0.33353108847E-01  0.35744000000E-01  0.51099999109E-03 0. -1.
       11    1    1    2    0    0  0.11747491638E-01  0.51902779777E-02 -0.33353108847E-01  0.35744000000E-01  0.51099999109E-03 0. -1.
</event>
<event>
 4   0  0.3028200E+07  0.9118800E+02  0.7546771E-02  0.1180000E+00
      -11   -1    0    0    0    0  0.00000000000E+00  0.00000000000E+00  0.35740347158E-01  0.35744000000E-01  0.51099999109E-03 0. -1.
       11   -1    0    0    0    0 -0.00000000000E+00 -0.00000000000E+00 -0.35740347158E-01  0.35744000000E-01  0.51099999109E-03 0. -1.
      -11    1    1    2    0    0 -0.40845675017E-03  0.13498985276E-01  0.33090526962E-01  0.35744000000E-01  0.51099999109E-03 0. -1.
       11    1    1    2    0    0  0.40845675017E-03 -0.13498985276E-01 -0.33090526962E-01  0.35744000000E-01  0.51099999109E-03 0. -1.
</event>
<event>
 4   0  0.3028200E+07  0.9118800E+02  0.7546771E-02  0.1180000E+00
      -11   -1    0    0    0    0  0.00000000000E+00  0.00000000000E+00  0.35740347158E-01  0.35744000000E-01  0.51099999109E-03 0. -1.
       11   -1    0    0    0    0 -0.00000000000E+00 -0.00000000000E+00 -0.35740347158E-01  0.35744000000E-01  0.51099999109E-03 0. -1.
      -11    1    1    2    0    0  0.19474094904E-01  0.62033408882E-02  0.29319798848E-01  0.35744000000E-01  0.51099999109E-03 0. -1.
       11    1    1    2    0    0 -0.19474094904E-01 -0.62033408882E-02 -0.29319798848E-01  0.35744000000E-01  0.51099999109E-03 0. -1.
</event>
<event>
 4   0  0.3028200E+07  0.9118800E+02  0.7546771E-02  0.1180000E+00
      -11   -1    0    0    0    0  0.00000000000E+00  0.00000000000E+00  0.35740347158E-01  0.35744000000E-01  0.51099999109E-03 0. -1.
       11   -1    0    0    0    0 -0.00000000000E+00 -0.00000000000E+00 -0.35740347158E-01  0.35744000000E-01  0.51099999109E-03 0. -1.
      -11    1    1    2    0    0  0.84779531661E-02 -0.12041243389E-01  0.32565398551E-01  0.35744000000E-01  0.51099999109E-03 0. -1.
       11    1    1    2    0    0 -0.84779531661E-02  0.12041243389E-01 -0.32565398551E-01  0.35744000000E-01  0.51099999109E-03 0. -1.
</event>
<event>
 4   0  0.3028200E+07  0.9118800E+02  0.7546771E-02  0.1180000E+00
      -11   -1    0    0    0    0  0.00000000000E+00  0.00000000000E+00  0.35740347158E-01  0.35744000000E-01  0.51099999109E-03 0. -1.
       11   -1    0    0    0    0 -0.00000000000E+00 -0.00000000000E+00 -0.35740347158E-01  0.35744000000E-01  0.51099999109E-03 0. -1.
      -11    1    1    2    0    0 -0.18759136907E-01  0.15269465692E-01  0.26311796118E-01  0.35744000000E-01  0.51099999109E-03 0. -1.
       11    1    1    2    0    0  0.18759136907E-01 -0.15269465692E-01 -0.26311796118E-01  0.35744000000E-01  0.51099999109E-03 0. -1.
</event>
<event>
 4   0  0.3028200E+07  0.9118800E+02  0.7546771E-02  0.1180000E+00
      -11   -1    0    0    0    0  0.00000000000E+00  0.00000000000E+00  0.35740347158E-01  0.35744000000E-01  0.51099999109E-03 0.  1.
       11   -1    0    0    0    0 -0.00000000000E+00 -0.00000000000E+00 -0.35740347158E-01  0.35744000000E-01  0.51099999109E-03 0.  1.
      -11    1    1    2    0    0  0.10205080995E-01 -0.15131659877E-01  0.30728839976E-01  0.35744000000E-01  0.51099999109E-03 0.  1.
       11    1    1    2    0    0 -0.10205080995E-01  0.15131659877E-01 -0.30728839976E-01  0.35744000000E-01  0.51099999109E-03 0.  1.
</event>
<event>
 4   0  0.3028200E+07  0.9118800E+02  0.7546771E-02  0.1180000E+00
      -11   -1    0    0    0    0  0.00000000000E+00  0.00000000000E+00  0.35740347158E-01  0.35744000000E-01  0.51099999109E-03 0. -1.
       11   -1    0    0    0    0 -0.00000000000E+00 -0.00000000000E+00 -0.35740347158E-01  0.35744000000E-01  0.51099999109E-03 0. -1.
      -11    1    1    2    0    0  0.51622770828E-02  0.17450145715E-01  0.30760619708E-01  0.35744000000E-01  0.51099999109E-03 0. -1.
       11    1    1    2    0    0 -0.51622770828E-02 -0.17450145715E-01 -0.30760619708E-01  0.35744000000E-01  0.51099999109E-03 0. -1.
</event>
<event>
 4   0  0.3028200E+07  0.9118800E+02  0.7546771E-02  0.1180000E+00
      -11   -1    0    0    0    0  0.00000000000E+00  0.00000000000E+00  0.35740347158E-01  0.35744000000E-01  0.51099999109E-03 0. -1.
       11   -1    0    0    0    0 -0.00000000000E+00 -0.00000000000E+00 -0.35740347158E-01  0.35744000000E-01  0.51099999109E-03 0. -1.
      -11    1    1    2    0    0  0.15777828878E-01  0.38152499483E-02  0.31841425828E-01  0.35744000000E-01  0.51099999109E-03 0. -1.
       11    1    1    2    0    0 -0.15777828878E-01 -0.38152499483E-02 -0.31841425828E-01  0.35744000000E-01  0.51099999109E-03 0. -1.
</event>
<event>
 4   0  0.3028200E+07  0.9118800E+02  0.7546771E-02  0.1180000E+00
      -11   -1    0    0    0    0  0.00000000000E+00  0.00000000000E+00  0.35740347158E-01  0.35744000000E-01  0.51099999109E-03 0.  1.
       11   -1    0    0    0    0 -0.00000000000E+00 -0.00000000000E+00 -0.35740347158E-01  0.35744000000E-01  0.51099999109E-03 0. -1.
      -11    1    1    2    0    0  0.71149903000E-02 -0.15175454246E-01  0.31566674143E-01  0.35744000000E-01  0.51099999109E-03 0.  1.
       11    1    1    2    0    0 -0.71149903000E-02  0.15175454246E-01 -0.31566674143E-01  0.35744000000E-01  0.51099999109E-03 0. -1.
</event>
<event>
 4   0  0.3028200E+07  0.9118800E+02  0.7546771E-02  0.1180000E+00
      -11   -1    0    0    0    0  0.00000000000E+00  0.00000000000E+00  0.35740347158E-01  0.35744000000E-01  0.51099999109E-03 0.  1.
       11   -1    0    0    0    0 -0.00000000000E+00 -0.00000000000E+00 -0.35740347158E-01  0.35744000000E-01  0.51099999109E-03 0.  1.
      -11    1    1    2    0    0 -0.12604913892E-01  0.13390762799E-03  0.33443543914E-01  0.35744000000E-01  0.51099999109E-03 0.  1.
       11    1    1    2    0    0  0.12604913892E-01 -0.13390762799E-03 -0.33443543914E-01  0.35744000000E-01  0.51099999109E-03 0.  1.
</event>
<event>
 4   0  0.3028200E+07  0.9118800E+02  0.7546771E-02  0.1180000E+00
      -11   -1    0    0    0    0  0.00000000000E+00  0.00000000000E+00  0.35740347158E-01  0.35744000000E-01  0.51099999109E-03 0. -1.
       11   -1    0    0    0    0 -0.00000000000E+00 -0.00000000000E+00 -0.35740347158E-01  0.35744000000E-01  0.51099999109E-03 0.  1.
      -11    1    1    2    0    0  0.56042013441E-02  0.11436807662E-01  0.33394082901E-01  0.35744000000E-01  0.51099999109E-03 0. -1.
       11    1    1    2    0    0 -0.56042013441E-02 -0.11436807662E-01 -0.33394082901E-01  0.35744000000E-01  0.51099999109E-03 0.  1.
</event>
<event>
 4   0  0.3028200E+07  0.9118800E+02  0.7546771E-02  0.1180000E+00
      -11   -1    0    0    0    0  0.00000000000E+00  0.00000000000E+00  0.35740347158E-01  0.35744000000E-01  0.51099999109E-03 0. -1.
       11   -1    0    0    0    0 -0.00000000000E+00 -0.00000000000E+00 -0.35740347158E-01  0.35744000000E-01  0.51099999109E-03 0.  1.
      -11    1    1    2    0    0 -0.27715126156E-02  0.11691126803E-01  0.33660194398E-01  0.35744000000E-01  0.51099999109E-03 0. -1.
       11    1    1    2    0    0  0.27715126156E-02 -0.11691126803E-01 -0.33660194398E-01  0.35744000000E-01  0.51099999109E-03 0.  1.
</event>
<event>
 4   0  0.3028200E+07  0.9118800E+02  0.7546771E-02  0.1180000E+00
      -11   -1    0    0    0    0  0.00000000000E+00  0.00000000000E+00  0.35740347158E-01  0.35744000000E-01  0.51099999109E-03 0. -1.
       11   -1    0    0    0    0 -0.00000000000E+00 -0.00000000000E+00 -0.35740347158E-01  0.35744000000E-01  0.51099999109E-03 0. -1.
      -11    1    1    2    0    0  0.65915924515E-02 -0.11755883089E-01  0.33101699907E-01  0.35744000000E-01  0.51099999109E-03 0. -1.
       11    1    1    2    0    0 -0.65915924515E-02  0.11755883089E-01 -0.33101699907E-01  0.35744000000E-01  0.51099999109E-03 0. -1.
</event>
<event>
 4   0  0.3028200E+07  0.9118800E+02  0.7546771E-02  0.1180000E+00
      -11   -1    0    0    0    0  0.00000000000E+00  0.00000000000E+00  0.35740347158E-01  0.35744000000E-01  0.51099999109E-03 0.  1.
       11   -1    0    0    0    0 -0.00000000000E+00 -0.00000000000E+00 -0.35740347158E-01  0.35744000000E-01  0.51099999109E-03 0. -1.
      -11    1    1    2    0    0  0.36346820142E-05  0.14135883429E-01  0.32826044560E-01  0.35744000000E-01  0.51099999109E-03 0.  1.
       11    1    1    2    0    0 -0.36346820142E-05 -0.14135883429E-01 -0.32826044560E-01  0.35744000000E-01  0.51099999109E-03 0. -1.
</event>
<event>
 4   0  0.3028200E+07  0.9118800E+02  0.7546771E-02  0.1180000E+00
      -11   -1    0    0    0    0  0.00000000000E+00  0.00000000000E+00  0.35740347158E-01  0.35744000000E-01  0.51099999109E-03 0.  1.
       11   -1    0    0    0    0 -0.00000000000E+00 -0.00000000000E+00 -0.35740347158E-01  0.35744000000E-01  0.51099999109E-03 0.  1.
      -11    1    1    2    0    0  0.91019746324E-02  0.17761735141E-01  0.29648730792E-01  0.35744000000E-01  0.51099999109E-03 0.  1.
       11    1    1    2    0    0 -0.91019746324E-02 -0.17761735141E-01 -0.29648730792E-01  0.35744000000E-01  0.51099999109E-03 0.  1.
</event>
<event>
 4   0  0.3028200E+07  0.9118800E+02  0.7546771E-02  0.1180000E+00
      -11   -1    0    0    0    0  0.00000000000E+00  0.00000000000E+00  0.35740347158E-01  0.35744000000E-01  0.51099999109E-03 0. -1.
       11   -1    0    0    0    0 -0.00000000000E+00 -0.00000000000E+00 -0.35740347158E-01  0.35744000000E-01  0.51099999109E-03 0.  1.
      -11    1    1    2    0    0 -0.18697706953E-01  0.10589443136E-01  0.28559269315E-01  0.35744000000E-01  0.51099999109E-03 0. -1.
       11    1    1    2    0    0  0.18697706953E-01 -0.10589443136E-01 -0.28559269315E-01  0.35744000000E-01  0.51099999109E-03 0.  1.
</event>
<event>
 4   0  0.3028200E+07  0.9118800E+02  0.7546771E-02  0.1180000E+00
      -11   -1    0    0    0    0  0.00000000000E+00  0.00000000000E+00  0.35740347158E-01  0.35744000000E-01  0.51099999109E-03 0. -1.
       11   -1    0    0    0    0 -0.00000000000E+00 -0.00000000000E+00 -0.35740347158E-01  0.35744000000E-01  0.51099999109E-03 0.  1.
      -11    1    1    2    0    0 -0.11014625778E-01 -0.63598762544E-02  0.33400634844E-01  0.35744000000E-01  0.51099999109E-03 0. -1.
       11    1    1    2    0    0  0.11014625778E-01  0.63598762544E-02 -0.33400634844E-01  0.35744000000E-01  0.51099999109E-03 0.  1.
</event>
<event>
 4   0  0.3028200E+07  0.9118800E+02  0.7546771E-02  0.1180000E+00
      -11   -1    0    0    0    0  0.00000000000E+00  0.00000000000E+00  0.35740347158E-01  0.35744000000E-01  0.51099999109E-03 0. -1.
       11   -1    0    0    0    0 -0.00000000000E+00 -0.00000000000E+00 -0.35740347158E-01  0.35744000000E-01  0.51099999109E-03 0. -1.
      -11    1    1    2    0    0 -0.45494394195E-02 -0.17604503428E-01  0.30769408104E-01  0.35744000000E-01  0.51099999109E-03 0. -1.
       11    1    1    2    0    0  0.45494394195E-02  0.17604503428E-01 -0.30769408104E-01  0.35744000000E-01  0.51099999109E-03 0. -1.
</event>
<event>
 4   0  0.3028200E+07  0.9118800E+02  0.7546771E-02  0.1180000E+00
      -11   -1    0    0    0    0  0.00000000000E+00  0.00000000000E+00  0.35740347158E-01  0.35744000000E-01  0.51099999109E-03 0.  1.
       11   -1    0    0    0    0 -0.00000000000E+00 -0.00000000000E+00 -0.35740347158E-01  0.35744000000E-01  0.51099999109E-03 0.  1.
      -11    1    1    2    0    0  0.70168803151E-03 -0.19738923747E-01  0.29786824910E-01  0.35744000000E-01  0.51099999109E-03 0.  1.
       11    1    1    2    0    0 -0.70168803151E-03  0.19738923747E-01 -0.29786824910E-01  0.35744000000E-01  0.51099999109E-03 0.  1.
</event>
<event>
 4   0  0.3028200E+07  0.9118800E+02  0.7546771E-02  0.1180000E+00
      -11   -1    0    0    0    0  0.00000000000E+00  0.00000000000E+00  0.35740347158E-01  0.35744000000E-01  0.51099999109E-03 0. -1.
       11   -1    0    0    0    0 -0.00000000000E+00 -0.00000000000E+00 -0.35740347158E-01  0.35744000000E-01  0.51099999109E-03 0. -1.
      -11    1    1    2    0    0 -0.12870996776E-01  0.12361857296E-02  0.33319389278E-01  0.35744000000E-01  0.51099999109E-03 0. -1.
       11    1    1    2    0    0  0.12870996776E-01 -0.12361857296E-02 -0.33319389278E-01  0.35744000000E-01  0.51099999109E-03 0. -1.
</event>
<event>
 4   0  0.3028200E+07  0.9118800E+02  0.7546771E-02  0.1180000E+00
      -11   -1    0    0    0    0  0.00000000000E+00  0.00000000000E+00  0.35740347158E-01  0.35744000000E-01  0.51099999109E-03 0. -1.
       11   -1    0    0    0    0 -0.00000000000E+00 -0.00000000000E+00 -0.35740347158E-01  0.35744000000E-01  0.51099999109E-03 0.  1.
      -11    1    1    2    0    0 -0.22417368031E-01  0.32580389751E-02  0.27644514964E-01  0.35744000000E-01  0.51099999109E-03 0. -1.
       11    1    1    2    0    0  0.22417368031E-01 -0.32580389751E-02 -0.27644514964E-01  0.35744000000E-01  0.51099999109E-03 0.  1.
</event>
<event>
 4   0  0.3028200E+07  0.9118800E+02  0.7546771E-02  0.1180000E+00
      -11   -1    0    0    0    0  0.00000000000E+00  0.00000000000E+00  0.35740347158E-01  0.35744000000E-01  0.51099999109E-03 0.  1.
       11   -1    0    0    0    0 -0.00000000000E+00 -0.00000000000E+00 -0.35740347158E-01  0.35744000000E-01  0.51099999109E-03 0.  1.
      -11    1    1    2    0    0  0.19920223999E-01  0.30507709522E-02  0.29516942380E-01  0.35744000000E-01  0.51099999109E-03 0.  1.
       11    1    1    2    0    0 -0.19920223999E-01 -0.30507709522E-02 -0.29516942380E-01  0.35744000000E-01  0.51099999109E-03 0.  1.
</event>
<event>
 4   0  0.3028200E+07  0.9118800E+02  0.7546771E-02  0.1180000E+00
      -11   -1    0    0    0    0  0.00000000000E+00  0.00000000000E+00  0.35740347158E-01  0.35744000000E-01  0.51099999109E-03 0.  1.
       11   -1    0    0    0    0 -0.00000000000E+00 -0.00000000000E+00 -0.35740347158E-01  0.35744000000E-01  0.51099999109E-03 0. -1.
      -11    1    1    2    0    0  0.99555861751E-02  0.78776350291E-02  0.33409603189E-01  0.35744000000E-01  0.51099999109E-03 0.  1.
       11    1    1    2    0    0 -0.99555861751E-02 -0.78776350291E-02 -0.33409603189E-01  0.35744000000E-01  0.51099999109E-03 0. -1.
</event>
<event>
 4   0  0.3028200E+07  0.9118800E+02  0.7546771E-02  0.1180000E+00
      -11   -1    0    0    0    0  0.00000000000E+00  0.00000000000E+00  0.35740347158E-01  0.35744000000E-01  0.51099999109E-03 0.  1.
       11   -1    0    0    0    0 -0.00000000000E+00 -0.00000000000E+00 -0.35740347158E-01  0.35744000000E-01  0.51099999109E-03 0.  1.
      -11    1    1    2    0    0  0.91905388491E-02  0.12565706635E-01  0.32171562403E-01  0.35744000000E-01  0.51099999109E-03 0.  1.
       11    1    1    2    0    0 -0.91905388491E-02 -0.12565706635E-01 -0.32171562403E-01  0.35744000000E-01  0.51099999109E-03 0.  1.
</event>
<event>
 4   0  0.3028200E+07  0.9118800E+02  0.7546771E-02  0.1180000E+00
      -11   -1    0    0    0    0  0.00000000000E+00  0.00000000000E+00  0.35740347158E-01  0.35744000000E-01  0.51099999109E-03 0.  1.
       11   -1    0    0    0    0 -0.00000000000E+00 -0.00000000000E+00 -0.35740347158E-01  0.35744000000E-01  0.51099999109E-03 0.  1.
      -11    1    1    2    0    0 -0.15144742713E-01 -0.11036340868E-02  0.32354152361E-01  0.35744000000E-01  0.51099999109E-03 0.  1.
       11    1    1    2    0    0  0.15144742713E-01  0.11036340868E-02 -0.32354152361E-01  0.35744000000E-01  0.51099999109E-03 0.  1.
</event>
<event>
 4   0  0.3028200E+07  0.9118800E+02  0.7546771E-02  0.1180000E+00
      -11   -1    0    0    0    0  0.00000000000E+00  0.00000000000E+00  0.35740347158E-01  0.35744000000E-01  0.51099999109E-03 0. -1.
       11   -1    0    0    0    0 -0.00000000000E+00 -0.00000000000E+00 -0.35740347158E-01  0.35744000000E-01  0.51099999109E-03 0. -1.
      -11    1    1    2    0    0 -0.21887262273E-02  0.12239899038E-01  0.33507712009E-01  0.35744000000E-01  0.51099999109E-03 0. -1.
       11    1    1    2    0    0  0.21887262273E-02 -0.12239899038E-01 -0.33507712009E-01  0.35744000000E-01  0.51099999109E-03 0. -1.
</event>
<event>
 4   0  0.3028200E+07  0.9118800E+02  0.7546771E-02  0.1180000E+00
      -11   -1    0    0    0    0  0.00000000000E+00  0.00000000000E+00  0.35740347158E-01  0.35744000000E-01  0.51099999109E-03 0. -1.
       11   -1    0    0    0    0 -0.00000000000E+00 -0.00000000000E+00 -0.35740347158E-01  0.35744000000E-01  0.51099999109E-03 0.  1.
      -11    1    1    2    0    0 -0.18180451671E-01  0.84843311443E-02  0.29578027607E-01  0.35744000000E-01  0.51099999109E-03 0. -1.
       11    1    1    2    0    0  0.18180451671E-01 -0.84843311443E-02 -0.29578027607E-01  0.35744000000E-01  0.51099999109E-03 0.  1.
</event>
<event>
 4   0  0.3028200E+07  0.9118800E+02  0.7546771E-02  0.1180000E+00
      -11   -1    0    0    0    0  0.00000000000E+00  0.00000000000E+00  0.35740347158E-01  0.35744000000E-01  0.51099999109E-03 0.  1.
       11   -1    0    0    0    0 -0.00000000000E+00 -0.00000000000E+00 -0.35740347158E-01  0.35744000000E-01  0.51099999109E-03 0. -1.
      -11    1    1    2    0    0 -0.12579942851E-01 -0.72828632407E-02  0.32650840049E-01  0.35744000000E-01  0.51099999109E-03 0.  1.
       11    1    1    2    0    0  0.12579942851E-01  0.72828632407E-02 -0.32650840049E-01  0.35744000000E-01  0.51099999109E-03 0. -1.
</event>
<event>
 4   0  0.3028200E+07  0.9118800E+02  0.7546771E-02  0.1180000E+00
      -11   -1    0    0    0    0  0.00000000000E+00  0.00000000000E+00  0.35740347158E-01  0.35744000000E-01  0.51099999109E-03 0.  1.
       11   -1    0    0    0    0 -0.00000000000E+00 -0.00000000000E+00 -0.35740347158E-01  0.35744000000E-01  0.51099999109E-03 0. -1.
      -11    1    1    2    0    0 -0.11750398091E-01 -0.10874473796E-02  0.33736004771E-01  0.35744000000E-01  0.51099999109E-03 0.  1.
       11    1    1    2    0    0  0.11750398091E-01  0.10874473796E-02 -0.33736004771E-01  0.35744000000E-01  0.51099999109E-03 0. -1.
</event>
<event>
 4   0  0.3028200E+07  0.9118800E+02  0.7546771E-02  0.1180000E+00
      -11   -1    0    0    0    0  0.00000000000E+00  0.00000000000E+00  0.35740347158E-01  0.35744000000E-01  0.51099999109E-03 0. -1.
       11   -1    0    0    0    0 -0.00000000000E+00 -0.00000000000E+00 -0.35740347158E-01  0.35744000000E-01  0.51099999109E-03 0.  1.
      -11    1    1    2    0    0 -0.74287417814E-02  0.90820077704E-02  0.33759492671E-01  0.35744000000E-01  0.51099999109E-03 0. -1.
       11    1    1    2    0    0  0.74287417814E-02 -0.90820077704E-02 -0.33759492671E-01  0.35744000000E-01  0.51099999109E-03 0.  1.
</event>
<event>
 4   0  0.3028200E+07  0.9118800E+02  0.7546771E-02  0.1180000E+00
      -11   -1    0    0    0    0  0.00000000000E+00  0.00000000000E+00  0.35740347158E-01  0.35744000000E-01  0.51099999109E-03 0. -1.
       11   -1    0    0    0    0 -0.00000000000E+00 -0.00000000000E+00 -0.35740347158E-01  0.35744000000E-01  0.51099999109E-03 0. -1.
      -11    1    1    2    0    0 -0.11826629166E-01  0.77046744466E-02  0.32835061280E-01  0.35744000000E-01  0.51099999109E-03 0. -1.
       11    1    1    2    0    0  0.11826629166E-01 -0.77046744466E-02 -0.32835061280E-01  0.35744000000E-01  0.51099999109E-03 0. -1.
</event>
<event>
 4   0  0.3028200E+07  0.9118800E+02  0.7546771E-02  0.1180000E+00
      -11   -1    0    0    0    0  0.00000000000E+00  0.00000000000E+00  0.35740347158E-01  0.35744000000E-01  0.51099999109E-03 0. -1.
       11   -1    0    0    0    0 -0.00000000000E+00 -0.00000000000E+00 -0.35740347158E-01  0.35744000000E-01  0.51099999109E-03 0.  1.
      -11    1    1    2    0    0  0.98850512899E-03 -0.12062657015E-01  0.33628671968E-01  0.35744000000E-01  0.51099999109E-03 0. -1.
       11    1    1    2    0    0 -0.98850512899E-03  0.12062657015E-01 -0.33628671968E-01  0.35744000000E-01  0.51099999109E-03 0.  1.
</event>
<event>
 4   0  0.3028200E+07  0.9118800E+02  0.7546771E-02  0.1180000E+00
      -11   -1    0    0    0    0  0.00000000000E+00  0.00000000000E+00  0.35740347158E-01  0.35744000000E-01  0.51099999109E-03 0.  1.
       11   -1    0    0    0    0 -0.00000000000E+00 -0.00000000000E+00 -0.35740347158E-01  0.35744000000E-01  0.51099999109E-03 0.  1.
      -11    1    1    2    0    0 -0.99823843217E-02  0.95062058818E-02  0.32975088597E-01  0.35744000000E-01  0.51099999109E-03 0.  1.
       11    1    1    2    0    0  0.99823843217E-02 -0.95062058818E-02 -0.32975088597E-01  0.35744000000E-01  0.51099999109E-03 0.  1.
</event>
<event>
 4   0  0.3028200E+07  0.9118800E+02  0.7546771E-02  0.1180000E+00
      -11   -1    0    0    0    0  0.00000000000E+00  0.00000000000E+00  0.35740347158E-01  0.35744000000E-01  0.51099999109E-03 0.  1.
       11   -1    0    0    0    0 -0.00000000000E+00 -0.00000000000E+00 -0.35740347158E-01  0.35744000000E-01  0.51099999109E-03 0. -1.
      -11    1    1    2    0    0  0.79406799951E-02 -0.91068817264E-02  0.33636033081E-01  0.35744000000E-01  0.51099999109E-03 0.  1.
       11    1    1    2    0    0 -0.79406799951E-02  0.91068817264E-02 -0.33636033081E-01  0.35744000000E-01  0.51099999109E-03 0. -1.
</event>
<event>
 4   0  0.3028200E+07  0.9118800E+02  0.7546771E-02  0.1180000E+00
      -11   -1    0    0    0    0  0.00000000000E+00  0.00000000000E+00  0.35740347158E-01  0.35744000000E-01  0.51099999109E-03 0.  1.
       11   -1    0    0    0    0 -0.00000000000E+00 -0.00000000000E+00 -0.35740347158E-01  0.35744000000E-01  0.51099999109E-03 0. -1.
      -11    1    1    2    0    0  0.53674391582E-02 -0.14577171583E-01  0.32188026975E-01  0.35744000000E-01  0.51099999109E-03 0.  1.
       11    1    1    2    0    0 -0.53674391582E-02  0.14577171583E-01 -0.32188026975E-01  0.35744000000E-01  0.51099999109E-03 0. -1.
</event>
<event>
 4   0  0.3028200E+07  0.9118800E+02  0.7546771E-02  0.1180000E+00
      -11   -1    0    0    0    0  0.00000000000E+00  0.00000000000E+00  0.35740347158E-01  0.35744000000E-01  0.51099999109E-03 0. -1.
       11   -1    0    0    0    0 -0.00000000000E+00 -0.00000000000E+00 -0.35740347158E-01  0.35744000000E-01  0.51099999109E-03 0. -1.
      -11    1    1    2    0    0  0.14803536643E-01  0.15234393460E-01  0.28742668174E-01  0.35744000000E-01  0.51099999109E-03 0. -1.
       11    1    1    2    0    0 -0.14803536643E-01 -0.15234393460E-01 -0.28742668174E-01  0.35744000000E-01  0.51099999109E-03 0. -1.
</event>
<event>
 4   0  0.3028200E+07  0.9118800E+02  0.7546771E-02  0.1180000E+00
      -11   -1    0    0    0    0  0.00000000000E+00  0.00000000000E+00  0.35740347158E-01  0.35744000000E-01  0.51099999109E-03 0. -1.
       11   -1    0    0    0    0 -0.00000000000E+00 -0.00000000000E+00 -0.35740347158E-01  0.35744000000E-01  0.51099999109E-03 0.  1.
      -11    1    1    2    0    0  0.11096754045E-02  0.13319011140E-01  0.33147322332E-01  0.35744000000E-01  0.51099999109E-03 0. -1.
       11    1    1    2    0    0 -0.11096754045E-02 -0.13319011140E-01 -0.33147322332E-01  0.35744000000E-01  0.51099999109E-03 0.  1.
</event>
<event>
 4   0  0.3028200E+07  0.9118800E+02  0.7546771E-02  0.1180000E+00
      -11   -1    0    0    0    0  0.00000000000E+00  0.00000000000E+00  0.35740347158E-01  0.35744000000E-01  0.51099999109E-03 0.  1.
       11   -1    0    0    0    0 -0.00000000000E+00 -0.00000000000E+00 -0.35740347158E-01  0.35744000000E-01  0.51099999109E-03 0.  1.
      -11    1    1    2    0    0  0.32521004257E-02 -0.12375274157E-01  0.33371377667E-01  0.35744000000E-01  0.51099999109E-03 0.  1.
       11    1    1    2    0    0 -0.32521004257E-02  0.12375274157E-01 -0.33371377667E-01  0.35744000000E-01  0.51099999109E-03 0.  1.
</event>
<event>
 4   0  0.3028200E+07  0.9118800E+02  0.7546771E-02  0.1180000E+00
      -11   -1    0    0    0    0  0.00000000000E+00  0.00000000000E+00  0.35740347158E-01  0.35744000000E-01  0.51099999109E-03 0.  1.
       11   -1    0    0    0    0 -0.00000000000E+00 -0.00000000000E+00 -0.35740347158E-01  0.35744000000E-01  0.51099999109E-03 0.  1.
      -11    1    1    2    0    0 -0.20090706555E-01  0.70354829905E-02  0.28709543783E-01  0.35744000000E-01  0.51099999109E-03 0.  1.
       11    1    1    2    0    0  0.20090706555E-01 -0.70354829905E-02 -0.28709543783E-01  0.35744000000E-01  0.51099999109E-03 0.  1.
</event>
<event>
 4   0  0.3028200E+07  0.9118800E+02  0.7546771E-02  0.1180000E+00
      -11   -1    0    0    0    0  0.00000000000E+00  0.00000000000E+00  0.35740347158E-01  0.35744000000E-01  0.51099999109E-03 0. -1.
       11   -1    0    0    0    0 -0.00000000000E+00 -0.00000000000E+00 -0.35740347158E-01  0.35744000000E-01  0.51099999109E-03 0.  1.
      -11    1    1    2    0    0 -0.22405497751E-03 -0.15547128367E-01  0.32180879632E-01  0.35744000000E-01  0.51099999109E-03 0. -1.
       11    1    1    2    0    0  0.22405497751E-03  0.15547128367E-01 -0.32180879632E-01  0.35744000000E-01  0.51099999109E-03 0.  1.
</event>
<event>
 4   0  0.3028200E+07  0.9118800E+02  0.7546771E-02  0.1180000E+00
      -11   -1    0    0    0    0  0.00000000000E+00  0.00000000000E+00  0.35740347158E-01  0.35744000000E-01  0.51099999109E-03 0. -1.
       11   -1    0    0    0    0 -0.00000000000E+00 -0.00000000000E+00 -0.35740347158E-01  0.35744000000E-01  0.51099999109E-03 0. -1.
      -11    1    1    2    0    0 -0.15489697493E-01  0.46217554744E-02  0.31876026461E-01  0.35744000000E-01  0.51099999109E-03 0. -1.
       11    1    1    2    0    0  0.15489697493E-01 -0.46217554744E-02 -0.31876026461E-01  0.35744000000E-01  0.51099999109E-03 0. -1.
</event>
<event>
 4   0  0.3028200E+07  0.9118800E+02  0.7546771E-02  0.1180000E+00
      -11   -1    0    0    0    0  0.00000000000E+00  0.00000000000E+00  0.35740347158E-01  0.35744000000E-01  0.51099999109E-03 0.  1.
       11   -1    0    0    0    0 -0.00000000000E+00 -0.00000000000E+00 -0.35740347158E-01  0.35744000000E-01  0.51099999109E-03 0. -1.
      -11    1    1    2    0    0  0.20706528363E-01 -0.11381578224E-01  0.26815513706E-01  0.35744000000E-01  0.51099999109E-03 0.  1.
       11    1    1    2    0    0 -0.20706528363E-01  0.11381578224E-01 -0.26815513706E-01  0.35744000000E-01  0.51099999109E-03 0. -1.
</event>
<event>
 4   0  0.3028200E+07  0.9118800E+02  0.7546771E-02  0.1180000E+00
      -11   -1    0    0    0    0  0.00000000000E+00  0.00000000000E+00  0.35740347158E-01  0.35744000000E-01  0.51099999109E-03 0.  1.
       11   -1    0    0    0    0 -0.00000000000E+00 -0.00000000000E+00 -0.35740347158E-01  0.35744000000E-01  0.51099999109E-03 0. -1.
      -11    1    1    2    0    0 -0.13977861344E-01  0.15636713358E-02  0.32856456583E-01  0.35744000000E-01  0.51099999109E-03 0.  1.
       11    1    1    2    0    0  0.13977861344E-01 -0.15636713358E-02 -0.32856456583E-01  0.35744000000E-01  0.51099999109E-03 0. -1.
</event>
<event>
 4   0  0.3028200E+07  0.9118800E+02  0.7546771E-02  0.1180000E+00
      -11   -1    0    0    0    0  0.00000000000E+00  0.00000000000E+00  0.35740347158E-01  0.35744000000E-01  0.51099999109E-03 0. -1.
       11   -1    0    0    0    0 -0.00000000000E+00 -0.00000000000E+00 -0.35740347158E-01  0.35744000000E-01  0.51099999109E-03 0.  1.
      -11    1    1    2    0    0 -0.10673165004E-01 -0.21690468098E-01  0.26324504886E-01  0.35744000000E-01  0.51099999109E-03 0. -1.
       11    1    1    2    0    0  0.10673165004E-01  0.21690468098E-01 -0.26324504886E-01  0.35744000000E-01  0.51099999109E-03 0.  1.
</event>
<event>
 4   0  0.3028200E+07  0.9118800E+02  0.7546771E-02  0.1180000E+00
      -11   -1    0    0    0    0  0.00000000000E+00  0.00000000000E+00  0.35740347158E-01  0.35744000000E-01  0.51099999109E-03 0. -1.
       11   -1    0    0    0    0 -0.00000000000E+00 -0.00000000000E+00 -0.35740347158E-01  0.35744000000E-01  0.51099999109E-03 0.  1.
      -11    1    1    2    0    0  0.10462483232E-01  0.58454287188E-02  0.33671053187E-01  0.35744000000E-01  0.51099999109E-03 0. -1.
       11    1    1    2    0    0 -0.10462483232E-01 -0.58454287188E-02 -0.33671053187E-01  0.35744000000E-01  0.51099999109E-03 0.  1.
</event>
<event>
 4   0  0.3028200E+07  0.9118800E+02  0.7546771E-02  0.1180000E+00
      -11   -1    0    0    0    0  0.00000000000E+00  0.00000000000E+00  0.35740347158E-01  0.35744000000E-01  0.51099999109E-03 0.  1.
       11   -1    0    0    0    0 -0.00000000000E+00 -0.00000000000E+00 -0.35740347158E-01  0.35744000000E-01  0.51099999109E-03 0.  1.
      -11    1    1    2    0    0 -0.11153353043E-01 -0.17736403693E-01  0.28955053357E-01  0.35744000000E-01  0.51099999109E-03 0.  1.
       11    1    1    2    0    0  0.11153353043E-01  0.17736403693E-01 -0.28955053357E-01  0.35744000000E-01  0.51099999109E-03 0.  1.
</event>
<event>
 4   0  0.3028200E+07  0.9118800E+02  0.7546771E-02  0.1180000E+00
      -11   -1    0    0    0    0  0.00000000000E+00  0.00000000000E+00  0.35740347158E-01  0.35744000000E-01  0.51099999109E-03 0.  1.
       11   -1    0    0    0    0 -0.00000000000E+00 -0.00000000000E+00 -0.35740347158E-01  0.35744000000E-01  0.51099999109E-03 0. -1.
      -11    1    1    2    0    0 -0.18345625775E-01  0.11203580195E-01  0.28553287389E-01  0.35744000000E-01  0.51099999109E-03 0.  1.
       11    1    1    2    0    0  0.18345625775E-01 -0.11203580195E-01 -0.28553287389E-01  0.35744000000E-01  0.51099999109E-03 0. -1.
</event>
<event>
 4   0  0.3028200E+07  0.9118800E+02  0.7546771E-02  0.1180000E+00
      -11   -1    0    0    0    0  0.00000000000E+00  0.00000000000E+00  0.35740347158E-01  0.35744000000E-01  0.51099999109E-03 0.  1.
       11   -1    0    0    0    0 -0.00000000000E+00 -0.00000000000E+00 -0.35740347158E-01  0.35744000000E-01  0.51099999109E-03 0. -1.
      -11    1    1    2    0    0 -0.14883565797E-02  0.12932750826E-01  0.33285149328E-01  0.35744000000E-01  0.51099999109E-03 0.  1.
       11    1    1    2    0    0  0.14883565797E-02 -0.12932750826E-01 -0.33285149328E-01  0.35744000000E-01  0.51099999109E-03 0. -1.
</event>
<event>
 4   0  0.3028200E+07  0.9118800E+02  0.7546771E-02  0.1180000E+00
      -11   -1    0    0    0    0  0.00000000000E+00  0.00000000000E+00  0.35740347158E-01  0.35744000000E-01  0.51099999109E-03 0.  1.
       11   -1    0    0    0    0 -0.00000000000E+00 -0.00000000000E+00 -0.35740347158E-01  0.35744000000E-01  0.51099999109E-03 0. -1.
      -11    1    1    2    0    0 -0.11372518358E-01 -0.61711324776E-02  0.33315992633E-01  0.35744000000E-01  0.51099999109E-03 0.  1.
       11    1    1    2    0    0  0.11372518358E-01  0.61711324776E-02 -0.33315992633E-01  0.35744000000E-01  0.51099999109E-03 0. -1.
</event>
<event>
 4   0  0.3028200E+07  0.9118800E+02  0.7546771E-02  0.1180000E+00
      -11   -1    0    0    0    0  0.00000000000E+00  0.00000000000E+00  0.35740347158E-01  0.35744000000E-01  0.51099999109E-03 0.  1.
       11   -1    0    0    0    0 -0.00000000000E+00 -0.00000000000E+00 -0.35740347158E-01  0.35744000000E-01  0.51099999109E-03 0. -1.
      -11    1    1    2    0    0 -0.17998705063E-02  0.11809836714E-01  0.33684724104E-01  0.35744000000E-01  0.51099999109E-03 0.  1.
       11    1    1    2    0    0  0.17998705063E-02 -0.11809836714E-01 -0.33684724104E-01  0.35744000000E-01  0.51099999109E-03 0. -1.
</event>
<event>
 4   0  0.3028200E+07  0.9118800E+02  0.7546771E-02  0.1180000E+00
      -11   -1    0    0    0    0  0.00000000000E+00  0.00000000000E+00  0.35740347158E-01  0.35744000000E-01  0.51099999109E-03 0.  1.
       11   -1    0    0    0    0 -0.00000000000E+00 -0.00000000000E+00 -0.35740347158E-01  0.35744000000E-01  0.51099999109E-03 0. -1.
      -11    1    1    2    0    0 -0.10989152814E-01 -0.64837952116E-02  0.33385196347E-01  0.35744000000E-01  0.51099999109E-03 0.  1.
       11    1    1    2    0    0  0.10989152814E-01  0.64837952116E-02 -0.33385196347E-01  0.35744000000E-01  0.51099999109E-03 0. -1.
</event>
<event>
 4   0  0.3028200E+07  0.9118800E+02  0.7546771E-02  0.1180000E+00
      -11   -1    0    0    0    0  0.00000000000E+00  0.00000000000E+00  0.35740347158E-01  0.35744000000E-01  0.51099999109E-03 0.  1.
       11   -1    0    0    0    0 -0.00000000000E+00 -0.00000000000E+00 -0.35740347158E-01  0.35744000000E-01  0.51099999109E-03 0.  1.
      -11    1    1    2    0    0  0.22014299990E-01  0.24772595098E-02  0.28046500607E-01  0.35744000000E-01  0.51099999109E-03 0.  1.
       11    1    1    2    0    0 -0.22014299990E-01 -0.24772595098E-02 -0.28046500607E-01  0.35744000000E-01  0.51099999109E-03 0.  1.
</event>
<event>
 4   0  0.3028200E+07  0.9118800E+02  0.7546771E-02  0.1180000E+00
      -11   -1    0    0    0    0  0.00000000000E+00  0.00000000000E+00  0.35740347158E-01  0.35744000000E-01  0.51099999109E-03 0.  1.
       11   -1    0    0    0    0 -0.00000000000E+00 -0.00000000000E+00 -0.35740347158E-01  0.35744000000E-01  0.51099999109E-03 0. -1.
      -11    1    1    2    0    0  0.58101579401E-02 -0.12926431215E-01  0.32810392496E-01  0.35744000000E-01  0.51099999109E-03 0.  1.
       11    1    1    2    0    0 -0.58101579401E-02  0.12926431215E-01 -0.32810392496E-01  0.35744000000E-01  0.51099999109E-03 0. -1.
</event>
<event>
 4   0  0.3028200E+07  0.9118800E+02  0.7546771E-02  0.1180000E+00
      -11   -1    0    0    0    0  0.00000000000E+00  0.00000000000E+00  0.35740347158E-01  0.35744000000E-01  0.51099999109E-03 0. -1.
       11   -1    0    0    0    0 -0.00000000000E+00 -0.00000000000E+00 -0.35740347158E-01  0.35744000000E-01  0.51099999109E-03 0.  1.
      -11    1    1    2    0    0 -0.34478943225E-02  0.11481876397E-01  0.33669733503E-01  0.35744000000E-01  0.51099999109E-03 0. -1.
       11    1    1    2    0    0  0.34478943225E-02 -0.11481876397E-01 -0.33669733503E-01  0.35744000000E-01  0.51099999109E-03 0.  1.
</event>
<event>
 4   0  0.3028200E+07  0.9118800E+02  0.7546771E-02  0.1180000E+00
      -11   -1    0    0    0    0  0.00000000000E+00  0.00000000000E+00  0.35740347158E-01  0.35744000000E-01  0.51099999109E-03 0. -1.
       11   -1    0    0    0    0 -0.00000000000E+00 -0.00000000000E+00 -0.35740347158E-01  0.35744000000E-01  0.51099999109E-03 0.  1.
      -11    1    1    2    0    0 -0.17924386101E-01 -0.50934619390E-02  0.30498285909E-01  0.35744000000E-01  0.51099999109E-03 0. -1.
       11    1    1    2    0    0  0.17924386101E-01  0.50934619390E-02 -0.30498285909E-01  0.35744000000E-01  0.51099999109E-03 0.  1.
</event>
<event>
 4   0  0.3028200E+07  0.9118800E+02  0.7546771E-02  0.1180000E+00
      -11   -1    0    0    0    0  0.00000000000E+00  0.00000000000E+00  0.35740347158E-01  0.35744000000E-01  0.51099999109E-03 0. -1.
       11   -1    0    0    0    0 -0.00000000000E+00 -0.00000000000E+00 -0.35740347158E-01  0.35744000000E-01  0.51099999109E-03 0.  1.
      -11    1    1    2    0    0 -0.32513194882E-03 -0.11913142357E-01  0.33694862270E-01  0.35744000000E-01  0.51099999109E-03 0. -1.
       11    1    1    2    0    0  0.32513194882E-03  0.11913142357E-01 -0.33694862270E-01  0.35744000000E-01  0.51099999109E-03 0.  1.
</event>
<event>
 4   0  0.3028200E+07  0.9118800E+02  0.7546771E-02  0.1180000E+00
      -11   -1    0    0    0    0  0.00000000000E+00  0.00000000000E+00  0.35740347158E-01  0.35744000000E-01  0.51099999109E-03 0. -1.
       11   -1    0    0    0    0 -0.00000000000E+00 -0.00000000000E+00 -0.35740347158E-01  0.35744000000E-01  0.51099999109E-03 0.  1.
      -11    1    1    2    0    0  0.14210734412E-01 -0.17284350446E-01  0.27868955347E-01  0.35744000000E-01  0.51099999109E-03 0. -1.
       11    1    1    2    0    0 -0.14210734412E-01  0.17284350446E-01 -0.27868955347E-01  0.35744000000E-01  0.51099999109E-03 0.  1.
</event>
<event>
 4   0  0.3028200E+07  0.9118800E+02  0.7546771E-02  0.1180000E+00
      -11   -1    0    0    0    0  0.00000000000E+00  0.00000000000E+00  0.35740347158E-01  0.35744000000E-01  0.51099999109E-03 0. -1.
       11   -1    0    0    0    0 -0.00000000000E+00 -0.00000000000E+00 -0.35740347158E-01  0.35744000000E-01  0.51099999109E-03 0.  1.
      -11    1    1    2    0    0 -0.10605591196E-01  0.65522859398E-02  0.33495692251E-01  0.35744000000E-01  0.51099999109E-03 0. -1.
       11    1    1    2    0    0  0.10605591196E-01 -0.65522859398E-02 -0.33495692251E-01  0.35744000000E-01  0.51099999109E-03 0.  1.
</event>
<event>
 4   0  0.3028200E+07  0.9118800E+02  0.7546771E-02  0.1180000E+00
      -11   -1    0    0    0    0  0.00000000000E+00  0.00000000000E+00  0.35740347158E-01  0.35744000000E-01  0.51099999109E-03 0.  1.
       11   -1    0    0    0    0 -0.00000000000E+00 -0.00000000000E+00 -0.35740347158E-01  0.35744000000E-01  0.51099999109E-03 0.  1.
      -11    1    1    2    0    0 -0.12749772977E-01  0.10846109422E-01  0.31578119236E-01  0.35744000000E-01  0.51099999109E-03 0.  1.
       11    1    1    2    0    0  0.12749772977E-01 -0.10846109422E-01 -0.31578119236E-01  0.35744000000E-01  0.51099999109E-03 0.  1.
</event>
<event>
 4   0  0.3028200E+07  0.9118800E+02  0.7546771E-02  0.1180000E+00
      -11   -1    0    0    0    0  0.00000000000E+00  0.00000000000E+00  0.35740347158E-01  0.35744000000E-01  0.51099999109E-03 0. -1.
       11   -1    0    0    0    0 -0.00000000000E+00 -0.00000000000E+00 -0.35740347158E-01  0.35744000000E-01  0.51099999109E-03 0. -1.
      -11    1    1    2    0    0 -0.15728515838E-01  0.91257798601E-02  0.30768593509E-01  0.35744000000E-01  0.51099999109E-03 0. -1.
       11    1    1    2    0    0  0.15728515838E-01 -0.91257798601E-02 -0.30768593509E-01  0.35744000000E-01  0.51099999109E-03 0. -1.
</event>
<event>
 4   0  0.3028200E+07  0.9118800E+02  0.7546771E-02  0.1180000E+00
      -11   -1    0    0    0    0  0.00000000000E+00  0.00000000000E+00  0.35740347158E-01  0.35744000000E-01  0.51099999109E-03 0. -1.
       11   -1    0    0    0    0 -0.00000000000E+00 -0.00000000000E+00 -0.35740347158E-01  0.35744000000E-01  0.51099999109E-03 0. -1.
      -11    1    1    2    0    0  0.16847715237E-01 -0.39216655182E-02  0.31275348853E-01  0.35744000000E-01  0.51099999109E-03 0. -1.
       11    1    1    2    0    0 -0.16847715237E-01  0.39216655182E-02 -0.31275348853E-01  0.35744000000E-01  0.51099999109E-03 0. -1.
</event>
<event>
 4   0  0.3028200E+07  0.9118800E+02  0.7546771E-02  0.1180000E+00
      -11   -1    0    0    0    0  0.00000000000E+00  0.00000000000E+00  0.35740347158E-01  0.35744000000E-01  0.51099999109E-03 0.  1.
       11   -1    0    0    0    0 -0.00000000000E+00 -0.00000000000E+00 -0.35740347158E-01  0.35744000000E-01  0.51099999109E-03 0.  1.
      -11    1    1    2    0    0  0.44390043502E-03 -0.19683175645E-01  0.29828643347E-01  0.35744000000E-01  0.51099999109E-03 0.  1.
       11    1    1    2    0    0 -0.44390043502E-03  0.19683175645E-01 -0.29828643347E-01  0.35744000000E-01  0.51099999109E-03 0.  1.
</event>
<event>
 4   0  0.3028200E+07  0.9118800E+02  0.7546771E-02  0.1180000E+00
      -11   -1    0    0    0    0  0.00000000000E+00  0.00000000000E+00  0.35740347158E-01  0.35744000000E-01  0.51099999109E-03 0. -1.
       11   -1    0    0    0    0 -0.00000000000E+00 -0.00000000000E+00 -0.35740347158E-01  0.35744000000E-01  0.51099999109E-03 0. -1.
      -11    1    1    2    0    0 -0.13049162862E-01 -0.19976927241E-01  0.26608535127E-01  0.35744000000E-01  0.51099999109E-03 0. -1.
       11    1    1    2    0    0  0.13049162862E-01  0.19976927241E-01 -0.26608535127E-01  0.35744000000E-01  0.51099999109E-03 0. -1.
</event>
<event>
 4   0  0.3028200E+07  0.9118800E+02  0.7546771E-02  0.1180000E+00
      -11   -1    0    0    0    0  0.00000000000E+00  0.00000000000E+00  0.35740347158E-01  0.35744000000E-01  0.51099999109E-03 0. -1.
       11   -1    0    0    0    0 -0.00000000000E+00 -0.00000000000E+00 -0.35740347158E-01  0.35744000000E-01  0.51099999109E-03 0. -1.
      -11    1    1    2    0    0 -0.19477029212E-01  0.52634241166E-02  0.29501086669E-01  0.35744000000E-01  0.51099999109E-03 0. -1.
       11    1    1    2    0    0  0.19477029212E-01 -0.52634241166E-02 -0.29501086669E-01  0.35744000000E-01  0.51099999109E-03 0. -1.
</event>
<event>
 4   0  0.3028200E+07  0.9118800E+02  0.7546771E-02  0.1180000E+00
      -11   -1    0    0    0    0  0.00000000000E+00  0.00000000000E+00  0.35740347158E-01  0.35744000000E-01  0.51099999109E-03 0. -1.
       11   -1    0    0    0    0 -0.00000000000E+00 -0.00000000000E+00 -0.35740347158E-01  0.35744000000E-01  0.51099999109E-03 0. -1.
      -11    1    1    2    0    0 -0.81729442915E-02 -0.13922868872E-01  0.31886190098E-01  0.35744000000E-01  0.51099999109E-03 0. -1.
       11    1    1    2    0    0  0.81729442915E-02  0.13922868872E-01 -0.31886190098E-01  0.35744000000E-01  0.51099999109E-03 0. -1.
</event>
<event>
 4   0  0.3028200E+07  0.9118800E+02  0.7546771E-02  0.1180000E+00
      -11   -1    0    0    0    0  0.00000000000E+00  0.00000000000E+00  0.35740347158E-01  0.35744000000E-01  0.51099999109E-03 0.  1.
       11   -1    0    0    0    0 -0.00000000000E+00 -0.00000000000E+00 -0.35740347158E-01  0.35744000000E-01  0.51099999109E-03 0.  1.
      -11    1    1    2    0    0 -0.12076307273E-01  0.15045215406E-01  0.30086154807E-01  0.35744000000E-01  0.51099999109E-03 0.  1.
       11    1    1    2    0    0  0.12076307273E-01 -0.15045215406E-01 -0.30086154807E-01  0.35744000000E-01  0.51099999109E-03 0.  1.
</event>
<event>
 4   0  0.3028200E+07  0.9118800E+02  0.7546771E-02  0.1180000E+00
      -11   -1    0    0    0    0  0.00000000000E+00  0.00000000000E+00  0.35740347158E-01  0.35744000000E-01  0.51099999109E-03 0. -1.
       11   -1    0    0    0    0 -0.00000000000E+00 -0.00000000000E+00 -0.35740347158E-01  0.35744000000E-01  0.51099999109E-03 0. -1.
      -11    1    1    2    0    0 -0.45113539390E-02  0.11073040075E-01  0.33680972138E-01  0.35744000000E-01  0.51099999109E-03 0. -1.
       11    1    1    2    0    0  0.45113539390E-02 -0.11073040075E-01 -0.33680972138E-01  0.35744000000E-01  0.51099999109E-03 0. -1.
</event>
<event>
 4   0  0.3028200E+07  0.9118800E+02  0.7546771E-02  0.1180000E+00
      -11   -1    0    0    0    0  0.00000000000E+00  0.00000000000E+00  0.35740347158E-01  0.35744000000E-01  0.51099999109E-03 0. -1.
       11   -1    0    0    0    0 -0.00000000000E+00 -0.00000000000E+00 -0.35740347158E-01  0.35744000000E-01  0.51099999109E-03 0. -1.
      -11    1    1    2    0    0 -0.95748340442E-02 -0.10693009235E-01  0.32731552385E-01  0.35744000000E-01  0.51099999109E-03 0. -1.
       11    1    1    2    0    0  0.95748340442E-02  0.10693009235E-01 -0.32731552385E-01  0.35744000000E-01  0.51099999109E-03 0. -1.
</event>
<event>
 4   0  0.3028200E+07  0.9118800E+02  0.7546771E-02  0.1180000E+00
      -11   -1    0    0    0    0  0.00000000000E+00  0.00000000000E+00  0.35740347158E-01  0.35744000000E-01  0.51099999109E-03 0. -1.
       11   -1    0    0    0    0 -0.00000000000E+00 -0.00000000000E+00 -0.35740347158E-01  0.35744000000E-01  0.51099999109E-03 0.  1.
      -11    1    1    2    0    0 -0.11092883226E-01 -0.76856243364E-02  0.33094584682E-01  0.35744000000E-01  0.51099999109E-03 0. -1.
       11    1    1    2    0    0  0.11092883226E-01  0.76856243364E-02 -0.33094584682E-01  0.35744000000E-01  0.51099999109E-03 0.  1.
</event>
<event>
 4   0  0.3028200E+07  0.9118800E+02  0.7546771E-02  0.1180000E+00
      -11   -1    0    0    0    0  0.00000000000E+00  0.00000000000E+00  0.35740347158E-01  0.35744000000E-01  0.51099999109E-03 0.  1.
       11   -1    0    0    0    0 -0.00000000000E+00 -0.00000000000E+00 -0.35740347158E-01  0.35744000000E-01  0.51099999109E-03 0. -1.
      -11    1    1    2    0    0 -0.13271305642E-01 -0.88872768440E-02  0.31972819267E-01  0.35744000000E-01  0.51099999109E-03 0.  1.
       11    1    1    2    0    0  0.13271305642E-01  0.88872768440E-02 -0.31972819267E-01  0.35744000000E-01  0.51099999109E-03 0. -1.
</event>
<event>
 4   0  0.3028200E+07  0.9118800E+02  0.7546771E-02  0.1180000E+00
      -11   -1    0    0    0    0  0.00000000000E+00  0.00000000000E+00  0.35740347158E-01  0.35744000000E-01  0.51099999109E-03 0. -1.
       11   -1    0    0    0    0 -0.00000000000E+00 -0.00000000000E+00 -0.35740347158E-01  0.35744000000E-01  0.51099999109E-03 0. -1.
      -11    1    1    2    0    0 -0.56212440794E-02  0.17090657218E-01  0.30881765912E-01  0.35744000000E-01  0.51099999109E-03 0. -1.
       11    1    1    2    0    0  0.56212440794E-02 -0.17090657218E-01 -0.30881765912E-01  0.35744000000E-01  0.51099999109E-03 0. -1.
</event>
<event>
 4   0  0.3028200E+07  0.9118800E+02  0.7546771E-02  0.1180000E+00
      -11   -1    0    0    0    0  0.00000000000E+00  0.00000000000E+00  0.35740347158E-01  0.35744000000E-01  0.51099999109E-03 0. -1.
       11   -1    0    0    0    0 -0.00000000000E+00 -0.00000000000E+00 -0.35740347158E-01  0.35744000000E-01  0.51099999109E-03 0.  1.
      -11    1    1    2    0    0  0.10706019027E-01 -0.11257638691E-01  0.32187251245E-01  0.35744000000E-01  0.51099999109E-03 0. -1.
       11    1    1    2    0    0 -0.10706019027E-01  0.11257638691E-01 -0.32187251245E-01  0.35744000000E-01  0.51099999109E-03 0.  1.
</event>
<event>
 4   0  0.3028200E+07  0.9118800E+02  0.7546771E-02  0.1180000E+00
      -11   -1    0    0    0    0  0.00000000000E+00  0.00000000000E+00  0.35740347158E-01  0.35744000000E-01  0.51099999109E-03 0.  1.
       11   -1    0    0    0    0 -0.00000000000E+00 -0.00000000000E+00 -0.35740347158E-01  0.35744000000E-01  0.51099999109E-03 0.  1.
      -11    1    1    2    0    0 -0.11030183608E-01 -0.22072424043E-01  0.25855667878E-01  0.35744000000E-01  0.51099999109E-03 0.  1.
       11    1    1    2    0    0  0.11030183608E-01  0.22072424043E-01 -0.25855667878E-01  0.35744000000E-01  0.51099999109E-03 0.  1.
</event>
<event>
 4   0  0.3028200E+07  0.9118800E+02  0.7546771E-02  0.1180000E+00
      -11   -1    0    0    0    0  0.00000000000E+00  0.00000000000E+00  0.35740347158E-01  0.35744000000E-01  0.51099999109E-03 0.  1.
       11   -1    0    0    0    0 -0.00000000000E+00 -0.00000000000E+00 -0.35740347158E-01  0.35744000000E-01  0.51099999109E-03 0.  1.
      -11    1    1    2    0    0 -0.12011358024E-01 -0.55898694345E-02  0.33194171975E-01  0.35744000000E-01  0.51099999109E-03 0.  1.
       11    1    1    2    0    0  0.12011358024E-01  0.55898694345E-02 -0.33194171975E-01  0.35744000000E-01  0.51099999109E-03 0.  1.
</event>
<event>
 4   0  0.3028200E+07  0.9118800E+02  0.7546771E-02  0.1180000E+00
      -11   -1    0    0    0    0  0.00000000000E+00  0.00000000000E+00  0.35740347158E-01  0.35744000000E-01  0.51099999109E-03 0. -1.
       11   -1    0    0    0    0 -0.00000000000E+00 -0.00000000000E+00 -0.35740347158E-01  0.35744000000E-01  0.51099999109E-03 0. -1.
      -11    1    1    2    0    0 -0.91140294024E-03  0.12986237835E-01  0.33285122601E-01  0.35744000000E-01  0.51099999109E-03 0. -1.
       11    1    1    2    0    0  0.91140294024E-03 -0.12986237835E-01 -0.33285122601E-01  0.35744000000E-01  0.51099999109E-03 0. -1.
</event>
<event>
 4   0  0.3028200E+07  0.9118800E+02  0.7546771E-02  0.1180000E+00
      -11   -1    0    0    0    0  0.00000000000E+00  0.00000000000E+00  0.35740347158E-01  0.35744000000E-01  0.51099999109E-03 0.  1.
       11   -1    0    0    0    0 -0.00000000000E+00 -0.00000000000E+00 -0.35740347158E-01  0.35744000000E-01  0.51099999109E-03 0.  1.
      -11    1    1    2    0    0  0.10298916012E-01  0.62635913789E-02  0.33646280136E-01  0.35744000000E-01  0.51099999109E-03 0.  1.
       11    1    1    2    0    0 -0.10298916012E-01 -0.62635913789E-02 -0.33646280136E-01  0.35744000000E-01  0.51099999109E-03 0.  1.
</event>
<event>
 4   0  0.3028200E+07  0.9118800E+02  0.7546771E-02  0.1180000E+00
      -11   -1    0    0    0    0  0.00000000000E+00  0.00000000000E+00  0.35740347158E-01  0.35744000000E-01  0.51099999109E-03 0. -1.
       11   -1    0    0    0    0 -0.00000000000E+00 -0.00000000000E+00 -0.35740347158E-01  0.35744000000E-01  0.51099999109E-03 0. -1.
      -11    1    1    2    0    0  0.16289301904E-01  0.14480159539E-01  0.28325889893E-01  0.35744000000E-01  0.51099999109E-03 0. -1.
       11    1    1    2    0    0 -0.16289301904E-01 -0.14480159539E-01 -0.28325889893E-01  0.35744000000E-01  0.51099999109E-03 0. -1.
</event>
<event>
 4   0  0.3028200E+07  0.9118800E+02  0.7546771E-02  0.1180000E+00
      -11   -1    0    0    0    0  0.00000000000E+00  0.00000000000E+00  0.35740347158E-01  0.35744000000E-01  0.51099999109E-03 0. -1.
       11   -1    0    0    0    0 -0.00000000000E+00 -0.00000000000E+00 -0.35740347158E-01  0.35744000000E-01  0.51099999109E-03 0. -1.
      -11    1    1    2    0    0 -0.79096846305E-02  0.87029884512E-02  0.33750071053E-01  0.35744000000E-01  0.51099999109E-03 0. -1.
       11    1    1    2    0    0  0.79096846305E-02 -0.87029884512E-02 -0.33750071053E-01  0.35744000000E-01  0.51099999109E-03 0. -1.
</event>
<event>
 4   0  0.3028200E+07  0.9118800E+02  0.7546771E-02  0.1180000E+00
      -11   -1    0    0    0    0  0.00000000000E+00  0.00000000000E+00  0.35740347158E-01  0.35744000000E-01  0.51099999109E-03 0. -1.
       11   -1    0    0    0    0 -0.00000000000E+00 -0.00000000000E+00 -0.35740347158E-01  0.35744000000E-01  0.51099999109E-03 0. -1.
      -11    1    1    2    0    0  0.33020814130E-02  0.13684242476E-01  0.32851334542E-01  0.35744000000E-01  0.51099999109E-03 0. -1.
       11    1    1    2    0    0 -0.33020814130E-02 -0.13684242476E-01 -0.32851334542E-01  0.35744000000E-01  0.51099999109E-03 0. -1.
</event>
<event>
 4   0  0.3028200E+07  0.9118800E+02  0.7546771E-02  0.1180000E+00
      -11   -1    0    0    0    0  0.00000000000E+00  0.00000000000E+00  0.35740347158E-01  0.35744000000E-01  0.51099999109E-03 0.  1.
       11   -1    0    0    0    0 -0.00000000000E+00 -0.00000000000E+00 -0.35740347158E-01  0.35744000000E-01  0.51099999109E-03 0. -1.
      -11    1    1    2    0    0  0.15624864505E-01 -0.12455001853E-02  0.32119849836E-01  0.35744000000E-01  0.51099999109E-03 0.  1.
       11    1    1    2    0    0 -0.15624864505E-01  0.12455001853E-02 -0.32119849836E-01  0.35744000000E-01  0.51099999109E-03 0. -1.
</event>
<event>
 4   0  0.3028200E+07  0.9118800E+02  0.7546771E-02  0.1180000E+00
      -11   -1    0    0    0    0  0.00000000000E+00  0.00000000000E+00  0.35740347158E-01  0.35744000000E-01  0.51099999109E-03 0.  1.
       11   -1    0    0    0    0 -0.00000000000E+00 -0.00000000000E+00 -0.35740347158E-01  0.35744000000E-01  0.51099999109E-03 0. -1.
      -11    1    1    2    0    0 -0.14598953838E-01  0.32638142940E-02  0.32459058491E-01  0.35744000000E-01  0.51099999109E-03 0.  1.
       11    1    1    2    0    0  0.14598953838E-01 -0.32638142940E-02 -0.32459058491E-01  0.35744000000E-01  0.51099999109E-03 0. -1.
</event>
<event>
 4   0  0.3028200E+07  0.9118800E+02  0.7546771E-02  0.1180000E+00
      -11   -1    0    0    0    0  0.00000000000E+00  0.00000000000E+00  0.35740347158E-01  0.35744000000E-01  0.51099999109E-03 0.  1.
       11   -1    0    0    0    0 -0.00000000000E+00 -0.00000000000E+00 -0.35740347158E-01  0.35744000000E-01  0.51099999109E-03 0.  1.
      -11    1    1    2    0    0  0.18661558034E-02 -0.18044711825E-01  0.30794126918E-01  0.35744000000E-01  0.51099999109E-03 0.  1.
       11    1    1    2    0    0 -0.18661558034E-02  0.18044711825E-01 -0.30794126918E-01  0.35744000000E-01  0.51099999109E-03 0.  1.
</event>
<event>
 4   0  0.3028200E+07  0.9118800E+02  0.7546771E-02  0.1180000E+00
      -11   -1    0    0    0    0  0.00000000000E+00  0.00000000000E+00  0.35740347158E-01  0.35744000000E-01  0.51099999109E-03 0. -1.
       11   -1    0    0    0    0 -0.00000000000E+00 -0.00000000000E+00 -0.35740347158E-01  0.35744000000E-01  0.51099999109E-03 0. -1.
      -11    1    1    2    0    0 -0.15254528958E-01  0.30477939025E-02  0.32177363373E-01  0.35744000000E-01  0.51099999109E-03 0. -1.
       11    1    1    2    0    0  0.15254528958E-01 -0.30477939025E-02 -0.32177363373E-01  0.35744000000E-01  0.51099999109E-03 0. -1.
</event>
<event>
 4   0  0.3028200E+07  0.9118800E+02  0.7546771E-02  0.1180000E+00
      -11   -1    0    0    0    0  0.00000000000E+00  0.00000000000E+00  0.35740347158E-01  0.35744000000E-01  0.51099999109E-03 0.  1.
       11   -1    0    0    0    0 -0.00000000000E+00 -0.00000000000E+00 -0.35740347158E-01  0.35744000000E-01  0.51099999109E-03 0. -1.
      -11    1    1    2    0    0 -0.13153993825E-01  0.15203550029E-03  0.33231336817E-01  0.35744000000E-01  0.51099999109E-03 0.  1.
       11    1    1    2    0    0  0.13153993825E-01 -0.15203550029E-03 -0.33231336817E-01  0.35744000000E-01  0.51099999109E-03 0. -1.
</event>
<event>
 4   0  0.3028200E+07  0.9118800E+02  0.7546771E-02  0.1180000E+00
      -11   -1    0    0    0    0  0.00000000000E+00  0.00000000000E+00  0.35740347158E-01  0.35744000000E-01  0.51099999109E-03 0.  1.
       11   -1    0    0    0    0 -0.00000000000E+00 -0.00000000000E+00 -0.35740347158E-01  0.35744000000E-01  0.51099999109E-03 0. -1.
      -11    1    1    2    0    0 -0.35971898828E-02 -0.11681339620E-01  0.33585397789E-01  0.35744000000E-01  0.51099999109E-03 0.  1.
       11    1    1    2    0    0  0.35971898828E-02  0.11681339620E-01 -0.33585397789E-01  0.35744000000E-01  0.51099999109E-03 0. -1.
</event>
<event>
 4   0  0.3028200E+07  0.9118800E+02  0.7546771E-02  0.1180000E+00
      -11   -1    0    0    0    0  0.00000000000E+00  0.00000000000E+00  0.35740347158E-01  0.35744000000E-01  0.51099999109E-03 0. -1.
       11   -1    0    0    0    0 -0.00000000000E+00 -0.00000000000E+00 -0.35740347158E-01  0.35744000000E-01  0.51099999109E-03 0. -1.
      -11    1    1    2    0    0  0.14510028637E-01  0.18570394389E-03  0.32661858459E-01  0.35744000000E-01  0.51099999109E-03 0. -1.
       11    1    1    2    0    0 -0.14510028637E-01 -0.18570394389E-03 -0.32661858459E-01  0.35744000000E-01  0.51099999109E-03 0. -1.
</event>
<event>
 4   0  0.3028200E+07  0.9118800E+02  0.7546771E-02  0.1180000E+00
      -11   -1    0    0    0    0  0.00000000000E+00  0.00000000000E+00  0.35740347158E-01  0.35744000000E-01  0.51099999109E-03 0.  1.
       11   -1    0    0    0    0 -0.00000000000E+00 -0.00000000000E+00 -0.35740347158E-01  0.35744000000E-01  0.51099999109E-03 0. -1.
      -11    1    1    2    0    0  0.11030022693E-01  0.93735728208E-02  0.32677930580E-01  0.35744000000E-01  0.51099999109E-03 0.  1.
       11    1    1    2    0    0 -0.11030022693E-01 -0.93735728208E-02 -0.32677930580E-01  0.35744000000E-01  0.51099999109E-03 0. -1.
</event>
<event>
 4   0  0.3028200E+07  0.9118800E+02  0.7546771E-02  0.1180000E+00
      -11   -1    0    0    0    0  0.00000000000E+00  0.00000000000E+00  0.35740347158E-01  0.35744000000E-01  0.51099999109E-03 0.  1.
       11   -1    0    0    0    0 -0.00000000000E+00 -0.00000000000E+00 -0.35740347158E-01  0.35744000000E-01  0.51099999109E-03 0.  1.
      -11    1    1    2    0    0  0.12604241240E-01  0.27183049657E-02  0.33333411705E-01  0.35744000000E-01  0.51099999109E-03 0.  1.
       11    1    1    2    0    0 -0.12604241240E-01 -0.27183049657E-02 -0.33333411705E-01  0.35744000000E-01  0.51099999109E-03 0.  1.
</event>
<event>
 4   0  0.3028200E+07  0.9118800E+02  0.7546771E-02  0.1180000E+00
      -11   -1    0    0    0    0  0.00000000000E+00  0.00000000000E+00  0.35740347158E-01  0.35744000000E-01  0.51099999109E-03 0. -1.
       11   -1    0    0    0    0 -0.00000000000E+00 -0.00000000000E+00 -0.35740347158E-01  0.35744000000E-01  0.51099999109E-03 0. -1.
      -11    1    1    2    0    0 -0.14262317453E-01  0.33719578850E-02  0.32597371303E-01  0.35744000000E-01  0.51099999109E-03 0. -1.
       11    1    1    2    0    0  0.14262317453E-01 -0.33719578850E-02 -0.32597371303E-01  0.35744000000E-01  0.51099999109E-03 0. -1.
</event>
<event>
 4   0  0.3028200E+07  0.9118800E+02  0.7546771E-02  0.1180000E+00
      -11   -1    0    0    0    0  0.00000000000E+00  0.00000000000E+00  0.35740347158E-01  0.35744000000E-01  0.51099999109E-03 0. -1.
       11   -1    0    0    0    0 -0.00000000000E+00 -0.00000000000E+00 -0.35740347158E-01  0.35744000000E-01  0.51099999109E-03 0.  1.
      -11    1    1    2    0    0 -0.46823949502E-02  0.14111843644E-01  0.32500822474E-01  0.35744000000E-01  0.51099999109E-03 0. -1.
       11    1    1    2    0    0  0.46823949502E-02 -0.14111843644E-01 -0.32500822474E-01  0.35744000000E-01  0.51099999109E-03 0.  1.
</event>
<event>
 4   0  0.3028200E+07  0.9118800E+02  0.7546771E-02  0.1180000E+00
      -11   -1    0    0    0    0  0.00000000000E+00  0.00000000000E+00  0.35740347158E-01  0.35744000000E-01  0.51099999109E-03 0. -1.
       11   -1    0    0    0    0 -0.00000000000E+00 -0.00000000000E+00 -0.35740347158E-01  0.35744000000E-01  0.51099999109E-03 0.  1.
      -11    1    1    2    0    0  0.34472135909E-02  0.12803141074E-01  0.33189888703E-01  0.35744000000E-01  0.51099999109E-03 0. -1.
       11    1    1    2    0    0 -0.34472135909E-02 -0.12803141074E-01 -0.33189888703E-01  0.35744000000E-01  0.51099999109E-03 0.  1.
</event>
<event>
 4   0  0.3028200E+07  0.9118800E+02  0.7546771E-02  0.1180000E+00
      -11   -1    0    0    0    0  0.00000000000E+00  0.00000000000E+00  0.35740347158E-01  0.35744000000E-01  0.51099999109E-03 0. -1.
       11   -1    0    0    0    0 -0.00000000000E+00 -0.00000000000E+00 -0.35740347158E-01  0.35744000000E-01  0.51099999109E-03 0.  1.
      -11    1    1    2    0    0  0.61334678914E-02 -0.99391630693E-02  0.33778188585E-01  0.35744000000E-01  0.51099999109E-03 0. -1.
       11    1    1    2    0    0 -0.61334678914E-02  0.99391630693E-02 -0.33778188585E-01  0.35744000000E-01  0.51099999109E-03 0.  1.
</event>
<event>
 4   0  0.3028200E+07  0.9118800E+02  0.7546771E-02  0.1180000E+00
      -11   -1    0    0    0    0  0.00000000000E+00  0.00000000000E+00  0.35740347158E-01  0.35744000000E-01  0.51099999109E-03 0. -1.
       11   -1    0    0    0    0 -0.00000000000E+00 -0.00000000000E+00 -0.35740347158E-01  0.35744000000E-01  0.51099999109E-03 0. -1.
      -11    1    1    2    0    0 -0.12692067249E-01 -0.41907093686E-02  0.33146972697E-01  0.35744000000E-01  0.51099999109E-03 0. -1.
       11    1    1    2    0    0  0.12692067249E-01  0.41907093686E-02 -0.33146972697E-01  0.35744000000E-01  0.51099999109E-03 0. -1.
</event>
<event>
 4   0  0.3028200E+07  0.9118800E+02  0.7546771E-02  0.1180000E+00
      -11   -1    0    0    0    0  0.00000000000E+00  0.00000000000E+00  0.35740347158E-01  0.35744000000E-01  0.51099999109E-03 0.  1.
       11   -1    0    0    0    0 -0.00000000000E+00 -0.00000000000E+00 -0.35740347158E-01  0.35744000000E-01  0.51099999109E-03 0.  1.
      -11    1    1    2    0    0  0.10579891198E-01  0.66748246946E-02  0.33479621153E-01  0.35744000000E-01  0.51099999109E-03 0.  1.
       11    1    1    2    0    0 -0.10579891198E-01 -0.66748246946E-02 -0.33479621153E-01  0.35744000000E-01  0.51099999109E-03 0.  1.
</event>
<event>
 4   0  0.3028200E+07  0.9118800E+02  0.7546771E-02  0.1180000E+00
      -11   -1    0    0    0    0  0.00000000000E+00  0.00000000000E+00  0.35740347158E-01  0.35744000000E-01  0.51099999109E-03 0. -1.
       11   -1    0    0    0    0 -0.00000000000E+00 -0.00000000000E+00 -0.35740347158E-01  0.35744000000E-01  0.51099999109E-03 0. -1.
      -11    1    1    2    0    0  0.62144650156E-02 -0.16785807977E-01  0.30935246728E-01  0.35744000000E-01  0.51099999109E-03 0. -1.
       11    1    1    2    0    0 -0.62144650156E-02  0.16785807977E-01 -0.30935246728E-01  0.35744000000E-01  0.51099999109E-03 0. -1.
</event>
<event>
 4   0  0.3028200E+07  0.9118800E+02  0.7546771E-02  0.1180000E+00
      -11   -1    0    0    0    0  0.00000000000E+00  0.00000000000E+00  0.35740347158E-01  0.35744000000E-01  0.51099999109E-03 0.  1.
       11   -1    0    0    0    0 -0.00000000000E+00 -0.00000000000E+00 -0.35740347158E-01  0.35744000000E-01  0.51099999109E-03 0. -1.
      -11    1    1    2    0    0  0.11498486508E-01  0.14880312797E-01  0.30392984620E-01  0.35744000000E-01  0.51099999109E-03 0.  1.
       11    1    1    2    0    0 -0.11498486508E-01 -0.14880312797E-01 -0.30392984620E-01  0.35744000000E-01  0.51099999109E-03 0. -1.
</event>
<event>
 4   0  0.3028200E+07  0.9118800E+02  0.7546771E-02  0.1180000E+00
      -11   -1    0    0    0    0  0.00000000000E+00  0.00000000000E+00  0.35740347158E-01  0.35744000000E-01  0.51099999109E-03 0. -1.
       11   -1    0    0    0    0 -0.00000000000E+00 -0.00000000000E+00 -0.35740347158E-01  0.35744000000E-01  0.51099999109E-03 0. -1.
      -11    1    1    2    0    0 -0.33378677286E-02  0.12593552676E-01  0.33281128061E-01  0.35744000000E-01  0.51099999109E-03 0. -1.
       11    1    1    2    0    0  0.33378677286E-02 -0.12593552676E-01 -0.33281128061E-01  0.35744000000E-01  0.51099999109E-03 0. -1.
</event>
<event>
 4   0  0.3028200E+07  0.9118800E+02  0.7546771E-02  0.1180000E+00
      -11   -1    0    0    0    0  0.00000000000E+00  0.00000000000E+00  0.35740347158E-01  0.35744000000E-01  0.51099999109E-03 0. -1.
       11   -1    0    0    0    0 -0.00000000000E+00 -0.00000000000E+00 -0.35740347158E-01  0.35744000000E-01  0.51099999109E-03 0. -1.
      -11    1    1    2    0    0  0.82008545471E-02 -0.10149767273E-01  0.33273121645E-01  0.35744000000E-01  0.51099999109E-03 0. -1.
       11    1    1    2    0    0 -0.82008545471E-02  0.10149767273E-01 -0.33273121645E-01  0.35744000000E-01  0.51099999109E-03 0. -1.
</event>
<event>
 4   0  0.3028200E+07  0.9118800E+02  0.7546771E-02  0.1180000E+00
      -11   -1    0    0    0    0  0.00000000000E+00  0.00000000000E+00  0.35740347158E-01  0.35744000000E-01  0.51099999109E-03 0.  1.
       11   -1    0    0    0    0 -0.00000000000E+00 -0.00000000000E+00 -0.35740347158E-01  0.35744000000E-01  0.51099999109E-03 0.  1.
      -11    1    1    2    0    0 -0.10098361502E-01  0.98198304999E-02  0.32847624555E-01  0.35744000000E-01  0.51099999109E-03 0.  1.
       11    1    1    2    0    0  0.10098361502E-01 -0.98198304999E-02 -0.32847624555E-01  0.35744000000E-01  0.51099999109E-03 0.  1.
</event>
<event>
 4   0  0.3028200E+07  0.9118800E+02  0.7546771E-02  0.1180000E+00
      -11   -1    0    0    0    0  0.00000000000E+00  0.00000000000E+00  0.35740347158E-01  0.35744000000E-01  0.51099999109E-03 0. -1.
       11   -1    0    0    0    0 -0.00000000000E+00 -0.00000000000E+00 -0.35740347158E-01  0.35744000000E-01  0.51099999109E-03 0.  1.
      -11    1    1    2    0    0  0.14301367705E-01  0.71988320521E-02  0.31953405356E-01  0.35744000000E-01  0.51099999109E-03 0. -1.
       11    1    1    2    0    0 -0.14301367705E-01 -0.71988320521E-02 -0.31953405356E-01  0.35744000000E-01  0.51099999109E-03 0.  1.
</event>
<event>
 4   0  0.3028200E+07  0.9118800E+02  0.7546771E-02  0.1180000E+00
      -11   -1    0    0    0    0  0.00000000000E+00  0.00000000000E+00  0.35740347158E-01  0.35744000000E-01  0.51099999109E-03 0.  1.
       11   -1    0    0    0    0 -0.00000000000E+00 -0.00000000000E+00 -0.35740347158E-01  0.35744000000E-01  0.51099999109E-03 0.  1.
      -11    1    1    2    0    0  0.11636261029E-01  0.83555061616E-02  0.32743783548E-01  0.35744000000E-01  0.51099999109E-03 0.  1.
       11    1    1    2    0    0 -0.11636261029E-01 -0.83555061616E-02 -0.32743783548E-01  0.35744000000E-01  0.51099999109E-03 0.  1.
</event>
<event>
 4   0  0.3028200E+07  0.9118800E+02  0.7546771E-02  0.1180000E+00
      -11   -1    0    0    0    0  0.00000000000E+00  0.00000000000E+00  0.35740347158E-01  0.35744000000E-01  0.51099999109E-03 0. -1.
       11   -1    0    0    0    0 -0.00000000000E+00 -0.00000000000E+00 -0.35740347158E-01  0.35744000000E-01  0.51099999109E-03 0.  1.
      -11    1    1    2    0    0 -0.10724650147E-01  0.75046235910E-02  0.33257103286E-01  0.35744000000E-01  0.51099999109E-03 0. -1.
       11    1    1    2    0    0  0.10724650147E-01 -0.75046235910E-02 -0.33257103286E-01  0.35744000000E-01  0.51099999109E-03 0.  1.
</event>
<event>
 4   0  0.3028200E+07  0.9118800E+02  0.7546771E-02  0.1180000E+00
      -11   -1    0    0    0    0  0.00000000000E+00  0.00000000000E+00  0.35740347158E-01  0.35744000000E-01  0.51099999109E-03 0.  1.
       11   -1    0    0    0    0 -0.00000000000E+00 -0.00000000000E+00 -0.35740347158E-01  0.35744000000E-01  0.51099999109E-03 0.  1.
      -11    1    1    2    0    0 -0.45212509924E-02  0.20793876480E-01  0.28714898666E-01  0.35744000000E-01  0.51099999109E-03 0.  1.
       11    1    1    2    0    0  0.45212509924E-02 -0.20793876480E-01 -0.28714898666E-01  0.35744000000E-01  0.51099999109E-03 0.  1.
</event>
<event>
 4   0  0.3028200E+07  0.9118800E+02  0.7546771E-02  0.1180000E+00
      -11   -1    0    0    0    0  0.00000000000E+00  0.00000000000E+00  0.35740347158E-01  0.35744000000E-01  0.51099999109E-03 0.  1.
       11   -1    0    0    0    0 -0.00000000000E+00 -0.00000000000E+00 -0.35740347158E-01  0.35744000000E-01  0.51099999109E-03 0. -1.
      -11    1    1    2    0    0 -0.18498787398E-02  0.22580699442E-01  0.27641678248E-01  0.35744000000E-01  0.51099999109E-03 0.  1.
       11    1    1    2    0    0  0.18498787398E-02 -0.22580699442E-01 -0.27641678248E-01  0.35744000000E-01  0.51099999109E-03 0. -1.
</event>
<event>
 4   0  0.3028200E+07  0.9118800E+02  0.7546771E-02  0.1180000E+00
      -11   -1    0    0    0    0  0.00000000000E+00  0.00000000000E+00  0.35740347158E-01  0.35744000000E-01  0.51099999109E-03 0.  1.
       11   -1    0    0    0    0 -0.00000000000E+00 -0.00000000000E+00 -0.35740347158E-01  0.35744000000E-01  0.51099999109E-03 0.  1.
      -11    1    1    2    0    0  0.70896964660E-04  0.12065789796E-01  0.33641999127E-01  0.35744000000E-01  0.51099999109E-03 0.  1.
       11    1    1    2    0    0 -0.70896964660E-04 -0.12065789796E-01 -0.33641999127E-01  0.35744000000E-01  0.51099999109E-03 0.  1.
</event>
<event>
 4   0  0.3028200E+07  0.9118800E+02  0.7546771E-02  0.1180000E+00
      -11   -1    0    0    0    0  0.00000000000E+00  0.00000000000E+00  0.35740347158E-01  0.35744000000E-01  0.51099999109E-03 0.  1.
       11   -1    0    0    0    0 -0.00000000000E+00 -0.00000000000E+00 -0.35740347158E-01  0.35744000000E-01  0.51099999109E-03 0.  1.
      -11    1    1    2    0    0 -0.80953190388E-02  0.84251445497E-02  0.33776547544E-01  0.35744000000E-01  0.51099999109E-03 0.  1.
       11    1    1    2    0    0  0.80953190388E-02 -0.84251445497E-02 -0.33776547544E-01  0.35744000000E-01  0.51099999109E-03 0.  1.
</event>
<event>
 4   0  0.3028200E+07  0.9118800E+02  0.7546771E-02  0.1180000E+00
      -11   -1    0    0    0    0  0.00000000000E+00  0.00000000000E+00  0.35740347158E-01  0.35744000000E-01  0.51099999109E-03 0.  1.
       11   -1    0    0    0    0 -0.00000000000E+00 -0.00000000000E+00 -0.35740347158E-01  0.35744000000E-01  0.51099999109E-03 0.  1.
      -11    1    1    2    0    0 -0.88363496546E-02  0.12567058740E-01  0.32270115810E-01  0.35744000000E-01  0.51099999109E-03 0.  1.
       11    1    1    2    0    0  0.88363496546E-02 -0.12567058740E-01 -0.32270115810E-01  0.35744000000E-01  0.51099999109E-03 0.  1.
</event>
<event>
 4   0  0.3028200E+07  0.9118800E+02  0.7546771E-02  0.1180000E+00
      -11   -1    0    0    0    0  0.00000000000E+00  0.00000000000E+00  0.35740347158E-01  0.35744000000E-01  0.51099999109E-03 0.  1.
       11   -1    0    0    0    0 -0.00000000000E+00 -0.00000000000E+00 -0.35740347158E-01  0.35744000000E-01  0.51099999109E-03 0.  1.
      -11    1    1    2    0    0 -0.11351622978E-01 -0.31540157806E-02  0.33742632607E-01  0.35744000000E-01  0.51099999109E-03 0.  1.
       11    1    1    2    0    0  0.11351622978E-01  0.31540157806E-02 -0.33742632607E-01  0.35744000000E-01  0.51099999109E-03 0.  1.
</event>
<event>
 4   0  0.3028200E+07  0.9118800E+02  0.7546771E-02  0.1180000E+00
      -11   -1    0    0    0    0  0.00000000000E+00  0.00000000000E+00  0.35740347158E-01  0.35744000000E-01  0.51099999109E-03 0.  1.
       11   -1    0    0    0    0 -0.00000000000E+00 -0.00000000000E+00 -0.35740347158E-01  0.35744000000E-01  0.51099999109E-03 0. -1.
      -11    1    1    2    0    0  0.44284937340E-02  0.10835201981E-01  0.33769205740E-01  0.35744000000E-01  0.51099999109E-03 0.  1.
       11    1    1    2    0    0 -0.44284937340E-02 -0.10835201981E-01 -0.33769205740E-01  0.35744000000E-01  0.51099999109E-03 0. -1.
</event>
<event>
 4   0  0.3028200E+07  0.9118800E+02  0.7546771E-02  0.1180000E+00
      -11   -1    0    0    0    0  0.00000000000E+00  0.00000000000E+00  0.35740347158E-01  0.35744000000E-01  0.51099999109E-03 0. -1.
       11   -1    0    0    0    0 -0.00000000000E+00 -0.00000000000E+00 -0.35740347158E-01  0.35744000000E-01  0.51099999109E-03 0. -1.
      -11    1    1    2    0    0 -0.11891385009E-01 -0.15847218577E-02  0.33666838791E-01  0.35744000000E-01  0.51099999109E-03 0. -1.
       11    1    1    2    0    0  0.11891385009E-01  0.15847218577E-02 -0.33666838791E-01  0.35744000000E-01  0.51099999109E-03 0. -1.
</event>
<event>
 4   0  0.3028200E+07  0.9118800E+02  0.7546771E-02  0.1180000E+00
      -11   -1    0    0    0    0  0.00000000000E+00  0.00000000000E+00  0.35740347158E-01  0.35744000000E-01  0.51099999109E-03 0. -1.
       11   -1    0    0    0    0 -0.00000000000E+00 -0.00000000000E+00 -0.35740347158E-01  0.35744000000E-01  0.51099999109E-03 0. -1.
      -11    1    1    2    0    0  0.21389958915E-01 -0.55800846038E-02  0.28083887346E-01  0.35744000000E-01  0.51099999109E-03 0. -1.
       11    1    1    2    0    0 -0.21389958915E-01  0.55800846038E-02 -0.28083887346E-01  0.35744000000E-01  0.51099999109E-03 0. -1.
</event>
<event>
 4   0  0.3028200E+07  0.9118800E+02  0.7546771E-02  0.1180000E+00
      -11   -1    0    0    0    0  0.00000000000E+00  0.00000000000E+00  0.35740347158E-01  0.35744000000E-01  0.51099999109E-03 0.  1.
       11   -1    0    0    0    0 -0.00000000000E+00 -0.00000000000E+00 -0.35740347158E-01  0.35744000000E-01  0.51099999109E-03 0. -1.
      -11    1    1    2    0    0 -0.22610133984E-01  0.89236224540E-04  0.27679347773E-01  0.35744000000E-01  0.51099999109E-03 0.  1.
       11    1    1    2    0    0  0.22610133984E-01 -0.89236224540E-04 -0.27679347773E-01  0.35744000000E-01  0.51099999109E-03 0. -1.
</event>
<event>
 4   0  0.3028200E+07  0.9118800E+02  0.7546771E-02  0.1180000E+00
      -11   -1    0    0    0    0  0.00000000000E+00  0.00000000000E+00  0.35740347158E-01  0.35744000000E-01  0.51099999109E-03 0.  1.
       11   -1    0    0    0    0 -0.00000000000E+00 -0.00000000000E+00 -0.35740347158E-01  0.35744000000E-01  0.51099999109E-03 0.  1.
      -11    1    1    2    0    0 -0.10607055283E-01  0.19979009385E-01  0.27671320482E-01  0.35744000000E-01  0.51099999109E-03 0.  1.
       11    1    1    2    0    0  0.10607055283E-01 -0.19979009385E-01 -0.27671320482E-01  0.35744000000E-01  0.51099999109E-03 0.  1.
</event>
<event>
 4   0  0.3028200E+07  0.9118800E+02  0.7546771E-02  0.1180000E+00
      -11   -1    0    0    0    0  0.00000000000E+00  0.00000000000E+00  0.35740347158E-01  0.35744000000E-01  0.51099999109E-03 0. -1.
       11   -1    0    0    0    0 -0.00000000000E+00 -0.00000000000E+00 -0.35740347158E-01  0.35744000000E-01  0.51099999109E-03 0.  1.
      -11    1    1    2    0    0  0.10641076853E-03  0.11658544796E-01  0.33785195352E-01  0.35744000000E-01  0.51099999109E-03 0. -1.
       11    1    1    2    0    0 -0.10641076853E-03 -0.11658544796E-01 -0.33785195352E-01  0.35744000000E-01  0.51099999109E-03 0.  1.
</event>
<event>
 4   0  0.3028200E+07  0.9118800E+02  0.7546771E-02  0.1180000E+00
      -11   -1    0    0    0    0  0.00000000000E+00  0.00000000000E+00  0.35740347158E-01  0.35744000000E-01  0.51099999109E-03 0.  1.
       11   -1    0    0    0    0 -0.00000000000E+00 -0.00000000000E+00 -0.35740347158E-01  0.35744000000E-01  0.51099999109E-03 0.  1.
      -11    1    1    2    0    0 -0.46912893130E-02  0.14020597790E-01  0.32539008239E-01  0.35744000000E-01  0.51099999109E-03 0.  1.
       11    1    1    2    0    0  0.46912893130E-02 -0.14020597790E-01 -0.32539008239E-01  0.35744000000E-01  0.51099999109E-03 0.  1.
</event>
<event>
 4   0  0.3028200E+07  0.9118800E+02  0.7546771E-02  0.1180000E+00
      -11   -1    0    0    0    0  0.00000000000E+00  0.00000000000E+00  0.35740347158E-01  0.35744000000E-01  0.51099999109E-03 0. -1.
       11   -1    0    0    0    0 -0.00000000000E+00 -0.00000000000E+00 -0.35740347158E-01  0.35744000000E-01  0.51099999109E-03 0.  1.
      -11    1    1    2    0    0 -0.17964227424E-01  0.19922459830E-02  0.30833259704E-01  0.35744000000E-01  0.51099999109E-03 0. -1.
       11    1    1    2    0    0  0.17964227424E-01 -0.19922459830E-02 -0.30833259704E-01  0.35744000000E-01  0.51099999109E-03 0.  1.
</event>
<event>
 4   0  0.3028200E+07  0.9118800E+02  0.7546771E-02  0.1180000E+00
      -11   -1    0    0    0    0  0.00000000000E+00  0.00000000000E+00  0.35740347158E-01  0.35744000000E-01  0.51099999109E-03 0. -1.
       11   -1    0    0    0    0 -0.00000000000E+00 -0.00000000000E+00 -0.35740347158E-01  0.35744000000E-01  0.51099999109E-03 0.  1.
      -11    1    1    2    0    0 -0.17723422555E-02 -0.13476556604E-01  0.33054706776E-01  0.35744000000E-01  0.51099999109E-03 0. -1.
       11    1    1    2    0    0  0.17723422555E-02  0.13476556604E-01 -0.33054706776E-01  0.35744000000E-01  0.51099999109E-03 0.  1.
</event>
<event>
 4   0  0.3028200E+07  0.9118800E+02  0.7546771E-02  0.1180000E+00
      -11   -1    0    0    0    0  0.00000000000E+00  0.00000000000E+00  0.35740347158E-01  0.35744000000E-01  0.51099999109E-03 0. -1.
       11   -1    0    0    0    0 -0.00000000000E+00 -0.00000000000E+00 -0.35740347158E-01  0.35744000000E-01  0.51099999109E-03 0.  1.
      -11    1    1    2    0    0  0.61903408437E-02 -0.19369457843E-01  0.29391770925E-01  0.35744000000E-01  0.51099999109E-03 0. -1.
       11    1    1    2    0    0 -0.61903408437E-02  0.19369457843E-01 -0.29391770925E-01  0.35744000000E-01  0.51099999109E-03 0.  1.
</event>
<event>
 4   0  0.3028200E+07  0.9118800E+02  0.7546771E-02  0.1180000E+00
      -11   -1    0    0    0    0  0.00000000000E+00  0.00000000000E+00  0.35740347158E-01  0.35744000000E-01  0.51099999109E-03 0.  1.
       11   -1    0    0    0    0 -0.00000000000E+00 -0.00000000000E+00 -0.35740347158E-01  0.35744000000E-01  0.51099999109E-03 0. -1.
      -11    1    1    2    0    0  0.14160754954E-01  0.34828574344E-02  0.32629973004E-01  0.35744000000E-01  0.51099999109E-03 0.  1.
       11    1    1    2    0    0 -0.14160754954E-01 -0.34828574344E-02 -0.32629973004E-01  0.35744000000E-01  0.51099999109E-03 0. -1.
</event>
<event>
 4   0  0.3028200E+07  0.9118800E+02  0.7546771E-02  0.1180000E+00
      -11   -1    0    0    0    0  0.00000000000E+00  0.00000000000E+00  0.35740347158E-01  0.35744000000E-01  0.51099999109E-03 0.  1.
       11   -1    0    0    0    0 -0.00000000000E+00 -0.00000000000E+00 -0.35740347158E-01  0.35744000000E-01  0.51099999109E-03 0.  1.
      -11    1    1    2    0    0 -0.11518157583E-01  0.57797558103E-02  0.33336149803E-01  0.35744000000E-01  0.51099999109E-03 0.  1.
       11    1    1    2    0    0  0.11518157583E-01 -0.57797558103E-02 -0.33336149803E-01  0.35744000000E-01  0.51099999109E-03 0.  1.
</event>
<event>
 4   0  0.3028200E+07  0.9118800E+02  0.7546771E-02  0.1180000E+00
      -11   -1    0    0    0    0  0.00000000000E+00  0.00000000000E+00  0.35740347158E-01  0.35744000000E-01  0.51099999109E-03 0.  1.
       11   -1    0    0    0    0 -0.00000000000E+00 -0.00000000000E+00 -0.35740347158E-01  0.35744000000E-01  0.51099999109E-03 0. -1.
      -11    1    1    2    0    0 -0.10459778088E-02  0.12939835029E-01  0.33299234449E-01  0.35744000000E-01  0.51099999109E-03 0.  1.
       11    1    1    2    0    0  0.10459778088E-02 -0.12939835029E-01 -0.33299234449E-01  0.35744000000E-01  0.51099999109E-03 0. -1.
</event>
<event>
 4   0  0.3028200E+07  0.9118800E+02  0.7546771E-02  0.1180000E+00
      -11   -1    0    0    0    0  0.00000000000E+00  0.00000000000E+00  0.35740347158E-01  0.35744000000E-01  0.51099999109E-03 0.  1.
       11   -1    0    0    0    0 -0.00000000000E+00 -0.00000000000E+00 -0.35740347158E-01  0.35744000000E-01  0.51099999109E-03 0.  1.
      -11    1    1    2    0    0 -0.16100893515E-01  0.59097239027E-02  0.31356160582E-01  0.35744000000E-01  0.51099999109E-03 0.  1.
       11    1    1    2    0    0  0.16100893515E-01 -0.59097239027E-02 -0.31356160582E-01  0.35744000000E-01  0.51099999109E-03 0.  1.
</event>
<event>
 4   0  0.3028200E+07  0.9118800E+02  0.7546771E-02  0.1180000E+00
      -11   -1    0    0    0    0  0.00000000000E+00  0.00000000000E+00  0.35740347158E-01  0.35744000000E-01  0.51099999109E-03 0.  1.
       11   -1    0    0    0    0 -0.00000000000E+00 -0.00000000000E+00 -0.35740347158E-01  0.35744000000E-01  0.51099999109E-03 0.  1.
      -11    1    1    2    0    0 -0.12078670715E-01  0.53371280983E-02  0.33211341322E-01  0.35744000000E-01  0.51099999109E-03 0.  1.
       11    1    1    2    0    0  0.12078670715E-01 -0.53371280983E-02 -0.33211341322E-01  0.35744000000E-01  0.51099999109E-03 0.  1.
</event>
<event>
 4   0  0.3028200E+07  0.9118800E+02  0.7546771E-02  0.1180000E+00
      -11   -1    0    0    0    0  0.00000000000E+00  0.00000000000E+00  0.35740347158E-01  0.35744000000E-01  0.51099999109E-03 0.  1.
       11   -1    0    0    0    0 -0.00000000000E+00 -0.00000000000E+00 -0.35740347158E-01  0.35744000000E-01  0.51099999109E-03 0. -1.
      -11    1    1    2    0    0 -0.45704139115E-02 -0.13755013810E-01  0.32669302514E-01  0.35744000000E-01  0.51099999109E-03 0.  1.
       11    1    1    2    0    0  0.45704139115E-02  0.13755013810E-01 -0.32669302514E-01  0.35744000000E-01  0.51099999109E-03 0. -1.
</event>
<event>
 4   0  0.3028200E+07  0.9118800E+02  0.7546771E-02  0.1180000E+00
      -11   -1    0    0    0    0  0.00000000000E+00  0.00000000000E+00  0.35740347158E-01  0.35744000000E-01  0.51099999109E-03 0. -1.
       11   -1    0    0    0    0 -0.00000000000E+00 -0.00000000000E+00 -0.35740347158E-01  0.35744000000E-01  0.51099999109E-03 0.  1.
      -11    1    1    2    0    0 -0.15792224065E-02  0.11827479302E-01  0.33689600843E-01  0.35744000000E-01  0.51099999109E-03 0. -1.
       11    1    1    2    0    0  0.15792224065E-02 -0.11827479302E-01 -0.33689600843E-01  0.35744000000E-01  0.51099999109E-03 0.  1.
</event>
<event>
 4   0  0.3028200E+07  0.9118800E+02  0.7546771E-02  0.1180000E+00
      -11   -1    0    0    0    0  0.00000000000E+00  0.00000000000E+00  0.35740347158E-01  0.35744000000E-01  0.51099999109E-03 0.  1.
       11   -1    0    0    0    0 -0.00000000000E+00 -0.00000000000E+00 -0.35740347158E-01  0.35744000000E-01  0.51099999109E-03 0. -1.
      -11    1    1    2    0    0 -0.11526720205E-01  0.16833947130E-02  0.33788656655E-01  0.35744000000E-01  0.51099999109E-03 0.  1.
       11    1    1    2    0    0  0.11526720205E-01 -0.16833947130E-02 -0.33788656655E-01  0.35744000000E-01  0.51099999109E-03 0. -1.
</event>
<event>
 4   0  0.3028200E+07  0.9118800E+02  0.7546771E-02  0.1180000E+00
      -11   -1    0    0    0    0  0.00000000000E+00  0.00000000000E+00  0.35740347158E-01  0.35744000000E-01  0.51099999109E-03 0. -1.
       11   -1    0    0    0    0 -0.00000000000E+00 -0.00000000000E+00 -0.35740347158E-01  0.35744000000E-01  0.51099999109E-03 0.  1.
      -11    1    1    2    0    0 -0.82787803011E-02  0.96121646997E-02  0.33413178561E-01  0.35744000000E-01  0.51099999109E-03 0. -1.
       11    1    1    2    0    0  0.82787803011E-02 -0.96121646997E-02 -0.33413178561E-01  0.35744000000E-01  0.51099999109E-03 0.  1.
</event>
<event>
 4   0  0.3028200E+07  0.9118800E+02  0.7546771E-02  0.1180000E+00
      -11   -1    0    0    0    0  0.00000000000E+00  0.00000000000E+00  0.35740347158E-01  0.35744000000E-01  0.51099999109E-03 0. -1.
       11   -1    0    0    0    0 -0.00000000000E+00 -0.00000000000E+00 -0.35740347158E-01  0.35744000000E-01  0.51099999109E-03 0.  1.
      -11    1    1    2    0    0 -0.71749188177E-02 -0.18412737361E-01  0.29780262891E-01  0.35744000000E-01  0.51099999109E-03 0. -1.
       11    1    1    2    0    0  0.71749188177E-02  0.18412737361E-01 -0.29780262891E-01  0.35744000000E-01  0.51099999109E-03 0.  1.
</event>
<event>
 4   0  0.3028200E+07  0.9118800E+02  0.7546771E-02  0.1180000E+00
      -11   -1    0    0    0    0  0.00000000000E+00  0.00000000000E+00  0.35740347158E-01  0.35744000000E-01  0.51099999109E-03 0.  1.
       11   -1    0    0    0    0 -0.00000000000E+00 -0.00000000000E+00 -0.35740347158E-01  0.35744000000E-01  0.51099999109E-03 0. -1.
      -11    1    1    2    0    0  0.12875080651E-01  0.21667415819E-01  0.25340240823E-01  0.35744000000E-01  0.51099999109E-03 0.  1.
       11    1    1    2    0    0 -0.12875080651E-01 -0.21667415819E-01 -0.25340240823E-01  0.35744000000E-01  0.51099999109E-03 0. -1.
</event>
<event>
 4   0  0.3028200E+07  0.9118800E+02  0.7546771E-02  0.1180000E+00
      -11   -1    0    0    0    0  0.00000000000E+00  0.00000000000E+00  0.35740347158E-01  0.35744000000E-01  0.51099999109E-03 0.  1.
       11   -1    0    0    0    0 -0.00000000000E+00 -0.00000000000E+00 -0.35740347158E-01  0.35744000000E-01  0.51099999109E-03 0.  1.
      -11    1    1    2    0    0  0.14837248274E-01  0.80308817911E-02  0.31507672341E-01  0.35744000000E-01  0.51099999109E-03 0.  1.
       11    1    1    2    0    0 -0.14837248274E-01 -0.80308817911E-02 -0.31507672341E-01  0.35744000000E-01  0.51099999109E-03 0.  1.
</event>
<event>
 4   0  0.3028200E+07  0.9118800E+02  0.7546771E-02  0.1180000E+00
      -11   -1    0    0    0    0  0.00000000000E+00  0.00000000000E+00  0.35740347158E-01  0.35744000000E-01  0.51099999109E-03 0. -1.
       11   -1    0    0    0    0 -0.00000000000E+00 -0.00000000000E+00 -0.35740347158E-01  0.35744000000E-01  0.51099999109E-03 0. -1.
      -11    1    1    2    0    0 -0.12547052846E-01  0.17133546228E-01  0.28746921114E-01  0.35744000000E-01  0.51099999109E-03 0. -1.
       11    1    1    2    0    0  0.12547052846E-01 -0.17133546228E-01 -0.28746921114E-01  0.35744000000E-01  0.51099999109E-03 0. -1.
</event>
<event>
 4   0  0.3028200E+07  0.9118800E+02  0.7546771E-02  0.1180000E+00
      -11   -1    0    0    0    0  0.00000000000E+00  0.00000000000E+00  0.35740347158E-01  0.35744000000E-01  0.51099999109E-03 0.  1.
       11   -1    0    0    0    0 -0.00000000000E+00 -0.00000000000E+00 -0.35740347158E-01  0.35744000000E-01  0.51099999109E-03 0.  1.
      -11    1    1    2    0    0 -0.18036334680E-01  0.99907780775E-02  0.29193276619E-01  0.35744000000E-01  0.51099999109E-03 0.  1.
       11    1    1    2    0    0  0.18036334680E-01 -0.99907780775E-02 -0.29193276619E-01  0.35744000000E-01  0.51099999109E-03 0.  1.
</event>
<event>
 4   0  0.3028200E+07  0.9118800E+02  0.7546771E-02  0.1180000E+00
      -11   -1    0    0    0    0  0.00000000000E+00  0.00000000000E+00  0.35740347158E-01  0.35744000000E-01  0.51099999109E-03 0.  1.
       11   -1    0    0    0    0 -0.00000000000E+00 -0.00000000000E+00 -0.35740347158E-01  0.35744000000E-01  0.51099999109E-03 0. -1.
      -11    1    1    2    0    0  0.13121989222E-01  0.10138028812E-01  0.31660798879E-01  0.35744000000E-01  0.51099999109E-03 0.  1.
       11    1    1    2    0    0 -0.13121989222E-01 -0.10138028812E-01 -0.31660798879E-01  0.35744000000E-01  0.51099999109E-03 0. -1.
</event>
<event>
 4   0  0.3028200E+07  0.9118800E+02  0.7546771E-02  0.1180000E+00
      -11   -1    0    0    0    0  0.00000000000E+00  0.00000000000E+00  0.35740347158E-01  0.35744000000E-01  0.51099999109E-03 0. -1.
       11   -1    0    0    0    0 -0.00000000000E+00 -0.00000000000E+00 -0.35740347158E-01  0.35744000000E-01  0.51099999109E-03 0.  1.
      -11    1    1    2    0    0 -0.50776868606E-02  0.15781854112E-01  0.31662637160E-01  0.35744000000E-01  0.51099999109E-03 0. -1.
       11    1    1    2    0    0  0.50776868606E-02 -0.15781854112E-01 -0.31662637160E-01  0.35744000000E-01  0.51099999109E-03 0.  1.
</event>
<event>
 4   0  0.3028200E+07  0.9118800E+02  0.7546771E-02  0.1180000E+00
      -11   -1    0    0    0    0  0.00000000000E+00  0.00000000000E+00  0.35740347158E-01  0.35744000000E-01  0.51099999109E-03 0.  1.
       11   -1    0    0    0    0 -0.00000000000E+00 -0.00000000000E+00 -0.35740347158E-01  0.35744000000E-01  0.51099999109E-03 0. -1.
      -11    1    1    2    0    0  0.10390340494E-01 -0.53931419016E-02  0.33768731985E-01  0.35744000000E-01  0.51099999109E-03 0.  1.
       11    1    1    2    0    0 -0.10390340494E-01  0.53931419016E-02 -0.33768731985E-01  0.35744000000E-01  0.51099999109E-03 0. -1.
</event>
<event>
 4   0  0.3028200E+07  0.9118800E+02  0.7546771E-02  0.1180000E+00
      -11   -1    0    0    0    0  0.00000000000E+00  0.00000000000E+00  0.35740347158E-01  0.35744000000E-01  0.51099999109E-03 0.  1.
       11   -1    0    0    0    0 -0.00000000000E+00 -0.00000000000E+00 -0.35740347158E-01  0.35744000000E-01  0.51099999109E-03 0.  1.
      -11    1    1    2    0    0 -0.13095471917E-01 -0.39891733846E-02  0.33014656230E-01  0.35744000000E-01  0.51099999109E-03 0.  1.
       11    1    1    2    0    0  0.13095471917E-01  0.39891733846E-02 -0.33014656230E-01  0.35744000000E-01  0.51099999109E-03 0.  1.
</event>
<event>
 4   0  0.3028200E+07  0.9118800E+02  0.7546771E-02  0.1180000E+00
      -11   -1    0    0    0    0  0.00000000000E+00  0.00000000000E+00  0.35740347158E-01  0.35744000000E-01  0.51099999109E-03 0. -1.
       11   -1    0    0    0    0 -0.00000000000E+00 -0.00000000000E+00 -0.35740347158E-01  0.35744000000E-01  0.51099999109E-03 0.  1.
      -11    1    1    2    0    0  0.98217857467E-02  0.10008757852E-01  0.32874453699E-01  0.35744000000E-01  0.51099999109E-03 0. -1.
       11    1    1    2    0    0 -0.98217857467E-02 -0.10008757852E-01 -0.32874453699E-01  0.35744000000E-01  0.51099999109E-03 0.  1.
</event>
<event>
 4   0  0.3028200E+07  0.9118800E+02  0.7546771E-02  0.1180000E+00
      -11   -1    0    0    0    0  0.00000000000E+00  0.00000000000E+00  0.35740347158E-01  0.35744000000E-01  0.51099999109E-03 0. -1.
       11   -1    0    0    0    0 -0.00000000000E+00 -0.00000000000E+00 -0.35740347158E-01  0.35744000000E-01  0.51099999109E-03 0. -1.
      -11    1    1    2    0    0  0.14478332026E-01  0.20311129833E-02  0.32613262591E-01  0.35744000000E-01  0.51099999109E-03 0. -1.
       11    1    1    2    0    0 -0.14478332026E-01 -0.20311129833E-02 -0.32613262591E-01  0.35744000000E-01  0.51099999109E-03 0. -1.
</event>
<event>
 4   0  0.3028200E+07  0.9118800E+02  0.7546771E-02  0.1180000E+00
      -11   -1    0    0    0    0  0.00000000000E+00  0.00000000000E+00  0.35740347158E-01  0.35744000000E-01  0.51099999109E-03 0.  1.
       11   -1    0    0    0    0 -0.00000000000E+00 -0.00000000000E+00 -0.35740347158E-01  0.35744000000E-01  0.51099999109E-03 0. -1.
      -11    1    1    2    0    0 -0.70682001635E-02 -0.11289013610E-01  0.33165812717E-01  0.35744000000E-01  0.51099999109E-03 0.  1.
       11    1    1    2    0    0  0.70682001635E-02  0.11289013610E-01 -0.33165812717E-01  0.35744000000E-01  0.51099999109E-03 0. -1.
</event>
<event>
 4   0  0.3028200E+07  0.9118800E+02  0.7546771E-02  0.1180000E+00
      -11   -1    0    0    0    0  0.00000000000E+00  0.00000000000E+00  0.35740347158E-01  0.35744000000E-01  0.51099999109E-03 0.  1.
       11   -1    0    0    0    0 -0.00000000000E+00 -0.00000000000E+00 -0.35740347158E-01  0.35744000000E-01  0.51099999109E-03 0.  1.
      -11    1    1    2    0    0  0.71235288216E-02 -0.96006510283E-02  0.33681675314E-01  0.35744000000E-01  0.51099999109E-03 0.  1.
       11    1    1    2    0    0 -0.71235288216E-02  0.96006510283E-02 -0.33681675314E-01  0.35744000000E-01  0.51099999109E-03 0.  1.
</event>
<event>
 4   0  0.3028200E+07  0.9118800E+02  0.7546771E-02  0.1180000E+00
      -11   -1    0    0    0    0  0.00000000000E+00  0.00000000000E+00  0.35740347158E-01  0.35744000000E-01  0.51099999109E-03 0. -1.
       11   -1    0    0    0    0 -0.00000000000E+00 -0.00000000000E+00 -0.35740347158E-01  0.35744000000E-01  0.51099999109E-03 0.  1.
      -11    1    1    2    0    0  0.17954658126E-01  0.42152095295E-02  0.30614288743E-01  0.35744000000E-01  0.51099999109E-03 0. -1.
       11    1    1    2    0    0 -0.17954658126E-01 -0.42152095295E-02 -0.30614288743E-01  0.35744000000E-01  0.51099999109E-03 0.  1.
</event>
<event>
 4   0  0.3028200E+07  0.9118800E+02  0.7546771E-02  0.1180000E+00
      -11   -1    0    0    0    0  0.00000000000E+00  0.00000000000E+00  0.35740347158E-01  0.35744000000E-01  0.51099999109E-03 0. -1.
       11   -1    0    0    0    0 -0.00000000000E+00 -0.00000000000E+00 -0.35740347158E-01  0.35744000000E-01  0.51099999109E-03 0.  1.
      -11    1    1    2    0    0 -0.11712209853E-01  0.11635170448E-01  0.31698885848E-01  0.35744000000E-01  0.51099999109E-03 0. -1.
       11    1    1    2    0    0  0.11712209853E-01 -0.11635170448E-01 -0.31698885848E-01  0.35744000000E-01  0.51099999109E-03 0.  1.
</event>
<event>
 4   0  0.3028200E+07  0.9118800E+02  0.7546771E-02  0.1180000E+00
      -11   -1    0    0    0    0  0.00000000000E+00  0.00000000000E+00  0.35740347158E-01  0.35744000000E-01  0.51099999109E-03 0. -1.
       11   -1    0    0    0    0 -0.00000000000E+00 -0.00000000000E+00 -0.35740347158E-01  0.35744000000E-01  0.51099999109E-03 0. -1.
      -11    1    1    2    0    0  0.18229372761E-01 -0.55566770403E-02  0.30235504362E-01  0.35744000000E-01  0.51099999109E-03 0. -1.
       11    1    1    2    0    0 -0.18229372761E-01  0.55566770403E-02 -0.30235504362E-01  0.35744000000E-01  0.51099999109E-03 0. -1.
</event>
<event>
 4   0  0.3028200E+07  0.9118800E+02  0.7546771E-02  0.1180000E+00
      -11   -1    0    0    0    0  0.00000000000E+00  0.00000000000E+00  0.35740347158E-01  0.35744000000E-01  0.51099999109E-03 0. -1.
       11   -1    0    0    0    0 -0.00000000000E+00 -0.00000000000E+00 -0.35740347158E-01  0.35744000000E-01  0.51099999109E-03 0.  1.
      -11    1    1    2    0    0  0.11274872364E-01 -0.32647492819E-02  0.33757829911E-01  0.35744000000E-01  0.51099999109E-03 0. -1.
       11    1    1    2    0    0 -0.11274872364E-01  0.32647492819E-02 -0.33757829911E-01  0.35744000000E-01  0.51099999109E-03 0.  1.
</event>
<event>
 4   0  0.3028200E+07  0.9118800E+02  0.7546771E-02  0.1180000E+00
      -11   -1    0    0    0    0  0.00000000000E+00  0.00000000000E+00  0.35740347158E-01  0.35744000000E-01  0.51099999109E-03 0. -1.
       11   -1    0    0    0    0 -0.00000000000E+00 -0.00000000000E+00 -0.35740347158E-01  0.35744000000E-01  0.51099999109E-03 0.  1.
      -11    1    1    2    0    0  0.60230308851E-02  0.10273595798E-01  0.33697904139E-01  0.35744000000E-01  0.51099999109E-03 0. -1.
       11    1    1    2    0    0 -0.60230308851E-02 -0.10273595798E-01 -0.33697904139E-01  0.35744000000E-01  0.51099999109E-03 0.  1.
</event>
<event>
 4   0  0.3028200E+07  0.9118800E+02  0.7546771E-02  0.1180000E+00
      -11   -1    0    0    0    0  0.00000000000E+00  0.00000000000E+00  0.35740347158E-01  0.35744000000E-01  0.51099999109E-03 0.  1.
       11   -1    0    0    0    0 -0.00000000000E+00 -0.00000000000E+00 -0.35740347158E-01  0.35744000000E-01  0.51099999109E-03 0.  1.
      -11    1    1    2    0    0  0.53939615483E-02 -0.14399934929E-01  0.32263283588E-01  0.35744000000E-01  0.51099999109E-03 0.  1.
       11    1    1    2    0    0 -0.53939615483E-02  0.14399934929E-01 -0.32263283588E-01  0.35744000000E-01  0.51099999109E-03 0.  1.
</event>
<event>
 4   0  0.3028200E+07  0.9118800E+02  0.7546771E-02  0.1180000E+00
      -11   -1    0    0    0    0  0.00000000000E+00  0.00000000000E+00  0.35740347158E-01  0.35744000000E-01  0.51099999109E-03 0. -1.
       11   -1    0    0    0    0 -0.00000000000E+00 -0.00000000000E+00 -0.35740347158E-01  0.35744000000E-01  0.51099999109E-03 0.  1.
      -11    1    1    2    0    0  0.12881361656E-01 -0.18639817888E-02  0.33286160920E-01  0.35744000000E-01  0.51099999109E-03 0. -1.
       11    1    1    2    0    0 -0.12881361656E-01  0.18639817888E-02 -0.33286160920E-01  0.35744000000E-01  0.51099999109E-03 0.  1.
</event>
<event>
 4   0  0.3028200E+07  0.9118800E+02  0.7546771E-02  0.1180000E+00
      -11   -1    0    0    0    0  0.00000000000E+00  0.00000000000E+00  0.35740347158E-01  0.35744000000E-01  0.51099999109E-03 0.  1.
       11   -1    0    0    0    0 -0.00000000000E+00 -0.00000000000E+00 -0.35740347158E-01  0.35744000000E-01  0.51099999109E-03 0.  1.
      -11    1    1    2    0    0  0.91035394088E-02  0.87012743163E-02  0.33448255717E-01  0.35744000000E-01  0.51099999109E-03 0.  1.
       11    1    1    2    0    0 -0.91035394088E-02 -0.87012743163E-02 -0.33448255717E-01  0.35744000000E-01  0.51099999109E-03 0.  1.
</event>
<event>
 4   0  0.3028200E+07  0.9118800E+02  0.7546771E-02  0.1180000E+00
      -11   -1    0    0    0    0  0.00000000000E+00  0.00000000000E+00  0.35740347158E-01  0.35744000000E-01  0.51099999109E-03 0.  1.
       11   -1    0    0    0    0 -0.00000000000E+00 -0.00000000000E+00 -0.35740347158E-01  0.35744000000E-01  0.51099999109E-03 0.  1.
      -11    1    1    2    0    0  0.43723583850E-02  0.10867946812E-01  0.33765998123E-01  0.35744000000E-01  0.51099999109E-03 0.  1.
       11    1    1    2    0    0 -0.43723583850E-02 -0.10867946812E-01 -0.33765998123E-01  0.35744000000E-01  0.51099999109E-03 0.  1.
</event>
<event>
 4   0  0.3028200E+07  0.9118800E+02  0.7546771E-02  0.1180000E+00
      -11   -1    0    0    0    0  0.00000000000E+00  0.00000000000E+00  0.35740347158E-01  0.35744000000E-01  0.51099999109E-03 0.  1.
       11   -1    0    0    0    0 -0.00000000000E+00 -0.00000000000E+00 -0.35740347158E-01  0.35744000000E-01  0.51099999109E-03 0.  1.
      -11    1    1    2    0    0 -0.14837611486E-01  0.10916777616E-02  0.32496552741E-01  0.35744000000E-01  0.51099999109E-03 0.  1.
       11    1    1    2    0    0  0.14837611486E-01 -0.10916777616E-02 -0.32496552741E-01  0.35744000000E-01  0.51099999109E-03 0.  1.
</event>
<event>
 4   0  0.3028200E+07  0.9118800E+02  0.7546771E-02  0.1180000E+00
      -11   -1    0    0    0    0  0.00000000000E+00  0.00000000000E+00  0.35740347158E-01  0.35744000000E-01  0.51099999109E-03 0.  1.
       11   -1    0    0    0    0 -0.00000000000E+00 -0.00000000000E+00 -0.35740347158E-01  0.35744000000E-01  0.51099999109E-03 0.  1.
      -11    1    1    2    0    0  0.33207288726E-02 -0.18636881308E-01  0.30315207898E-01  0.35744000000E-01  0.51099999109E-03 0.  1.
       11    1    1    2    0    0 -0.33207288726E-02  0.18636881308E-01 -0.30315207898E-01  0.35744000000E-01  0.51099999109E-03 0.  1.
</event>
<event>
 4   0  0.3028200E+07  0.9118800E+02  0.7546771E-02  0.1180000E+00
      -11   -1    0    0    0    0  0.00000000000E+00  0.00000000000E+00  0.35740347158E-01  0.35744000000E-01  0.51099999109E-03 0.  1.
       11   -1    0    0    0    0 -0.00000000000E+00 -0.00000000000E+00 -0.35740347158E-01  0.35744000000E-01  0.51099999109E-03 0. -1.
      -11    1    1    2    0    0 -0.77237567441E-02  0.86970404145E-02  0.33794636924E-01  0.35744000000E-01  0.51099999109E-03 0.  1.
       11    1    1    2    0    0  0.77237567441E-02 -0.86970404145E-02 -0.33794636924E-01  0.35744000000E-01  0.51099999109E-03 0. -1.
</event>
<event>
 4   0  0.3028200E+07  0.9118800E+02  0.7546771E-02  0.1180000E+00
      -11   -1    0    0    0    0  0.00000000000E+00  0.00000000000E+00  0.35740347158E-01  0.35744000000E-01  0.51099999109E-03 0. -1.
       11   -1    0    0    0    0 -0.00000000000E+00 -0.00000000000E+00 -0.35740347158E-01  0.35744000000E-01  0.51099999109E-03 0.  1.
      -11    1    1    2    0    0  0.12177820722E-01  0.99816955715E-02  0.32084869502E-01  0.35744000000E-01  0.51099999109E-03 0. -1.
       11    1    1    2    0    0 -0.12177820722E-01 -0.99816955715E-02 -0.32084869502E-01  0.35744000000E-01  0.51099999109E-03 0.  1.
</event>
<event>
 4   0  0.3028200E+07  0.9118800E+02  0.7546771E-02  0.1180000E+00
      -11   -1    0    0    0    0  0.00000000000E+00  0.00000000000E+00  0.35740347158E-01  0.35744000000E-01  0.51099999109E-03 0.  1.
       11   -1    0    0    0    0 -0.00000000000E+00 -0.00000000000E+00 -0.35740347158E-01  0.35744000000E-01  0.51099999109E-03 0. -1.
      -11    1    1    2    0    0 -0.38282246144E-02 -0.14550498283E-01  0.32419131867E-01  0.35744000000E-01  0.51099999109E-03 0.  1.
       11    1    1    2    0    0  0.38282246144E-02  0.14550498283E-01 -0.32419131867E-01  0.35744000000E-01  0.51099999109E-03 0. -1.
</event>
<event>
 4   0  0.3028200E+07  0.9118800E+02  0.7546771E-02  0.1180000E+00
      -11   -1    0    0    0    0  0.00000000000E+00  0.00000000000E+00  0.35740347158E-01  0.35744000000E-01  0.51099999109E-03 0.  1.
       11   -1    0    0    0    0 -0.00000000000E+00 -0.00000000000E+00 -0.35740347158E-01  0.35744000000E-01  0.51099999109E-03 0.  1.
      -11    1    1    2    0    0  0.79731466921E-02 -0.98874648355E-02  0.33407175666E-01  0.35744000000E-01  0.51099999109E-03 0.  1.
       11    1    1    2    0    0 -0.79731466921E-02  0.98874648355E-02 -0.33407175666E-01  0.35744000000E-01  0.51099999109E-03 0.  1.
</event>
<event>
 4   0  0.3028200E+07  0.9118800E+02  0.7546771E-02  0.1180000E+00
      -11   -1    0    0    0    0  0.00000000000E+00  0.00000000000E+00  0.35740347158E-01  0.35744000000E-01  0.51099999109E-03 0. -1.
       11   -1    0    0    0    0 -0.00000000000E+00 -0.00000000000E+00 -0.35740347158E-01  0.35744000000E-01  0.51099999109E-03 0. -1.
      -11    1    1    2    0    0  0.13547062553E-01 -0.23531768674E-02  0.32989575169E-01  0.35744000000E-01  0.51099999109E-03 0. -1.
       11    1    1    2    0    0 -0.13547062553E-01  0.23531768674E-02 -0.32989575169E-01  0.35744000000E-01  0.51099999109E-03 0. -1.
</event>
<event>
 4   0  0.3028200E+07  0.9118800E+02  0.7546771E-02  0.1180000E+00
      -11   -1    0    0    0    0  0.00000000000E+00  0.00000000000E+00  0.35740347158E-01  0.35744000000E-01  0.51099999109E-03 0. -1.
       11   -1    0    0    0    0 -0.00000000000E+00 -0.00000000000E+00 -0.35740347158E-01  0.35744000000E-01  0.51099999109E-03 0. -1.
      -11    1    1    2    0    0  0.14558917172E-01  0.20258450571E-01  0.25593075748E-01  0.35744000000E-01  0.51099999109E-03 0. -1.
       11    1    1    2    0    0 -0.14558917172E-01 -0.20258450571E-01 -0.25593075748E-01  0.35744000000E-01  0.51099999109E-03 0. -1.
</event>
<event>
 4   0  0.3028200E+07  0.9118800E+02  0.7546771E-02  0.1180000E+00
      -11   -1    0    0    0    0  0.00000000000E+00  0.00000000000E+00  0.35740347158E-01  0.35744000000E-01  0.51099999109E-03 0. -1.
       11   -1    0    0    0    0 -0.00000000000E+00 -0.00000000000E+00 -0.35740347158E-01  0.35744000000E-01  0.51099999109E-03 0. -1.
      -11    1    1    2    0    0  0.14477783089E-01  0.62530261747E-02  0.32072821446E-01  0.35744000000E-01  0.51099999109E-03 0. -1.
       11    1    1    2    0    0 -0.14477783089E-01 -0.62530261747E-02 -0.32072821446E-01  0.35744000000E-01  0.51099999109E-03 0. -1.
</event>
<event>
 4   0  0.3028200E+07  0.9118800E+02  0.7546771E-02  0.1180000E+00
      -11   -1    0    0    0    0  0.00000000000E+00  0.00000000000E+00  0.35740347158E-01  0.35744000000E-01  0.51099999109E-03 0.  1.
       11   -1    0    0    0    0 -0.00000000000E+00 -0.00000000000E+00 -0.35740347158E-01  0.35744000000E-01  0.51099999109E-03 0.  1.
      -11    1    1    2    0    0 -0.11438737774E-01  0.83289150160E-02  0.32820068065E-01  0.35744000000E-01  0.51099999109E-03 0.  1.
       11    1    1    2    0    0  0.11438737774E-01 -0.83289150160E-02 -0.32820068065E-01  0.35744000000E-01  0.51099999109E-03 0.  1.
</event>
<event>
 4   0  0.3028200E+07  0.9118800E+02  0.7546771E-02  0.1180000E+00
      -11   -1    0    0    0    0  0.00000000000E+00  0.00000000000E+00  0.35740347158E-01  0.35744000000E-01  0.51099999109E-03 0. -1.
       11   -1    0    0    0    0 -0.00000000000E+00 -0.00000000000E+00 -0.35740347158E-01  0.35744000000E-01  0.51099999109E-03 0.  1.
      -11    1    1    2    0    0  0.16267417686E-01 -0.33038635907E-04  0.31823614585E-01  0.35744000000E-01  0.51099999109E-03 0. -1.
       11    1    1    2    0    0 -0.16267417686E-01  0.33038635907E-04 -0.31823614585E-01  0.35744000000E-01  0.51099999109E-03 0.  1.
</event>
<event>
 4   0  0.3028200E+07  0.9118800E+02  0.7546771E-02  0.1180000E+00
      -11   -1    0    0    0    0  0.00000000000E+00  0.00000000000E+00  0.35740347158E-01  0.35744000000E-01  0.51099999109E-03 0.  1.
       11   -1    0    0    0    0 -0.00000000000E+00 -0.00000000000E+00 -0.35740347158E-01  0.35744000000E-01  0.51099999109E-03 0.  1.
      -11    1    1    2    0    0  0.14432528791E-01  0.43089657968E-02  0.32411530996E-01  0.35744000000E-01  0.51099999109E-03 0.  1.
       11    1    1    2    0    0 -0.14432528791E-01 -0.43089657968E-02 -0.32411530996E-01  0.35744000000E-01  0.51099999109E-03 0.  1.
</event>
<event>
 4   0  0.3028200E+07  0.9118800E+02  0.7546771E-02  0.1180000E+00
      -11   -1    0    0    0    0  0.00000000000E+00  0.00000000000E+00  0.35740347158E-01  0.35744000000E-01  0.51099999109E-03 0. -1.
       11   -1    0    0    0    0 -0.00000000000E+00 -0.00000000000E+00 -0.35740347158E-01  0.35744000000E-01  0.51099999109E-03 0. -1.
      -11    1    1    2    0    0 -0.10044487426E-01 -0.65152515713E-02  0.33675394346E-01  0.35744000000E-01  0.51099999109E-03 0. -1.
       11    1    1    2    0    0  0.10044487426E-01  0.65152515713E-02 -0.33675394346E-01  0.35744000000E-01  0.51099999109E-03 0. -1.
</event>
<event>
 4   0  0.3028200E+07  0.9118800E+02  0.7546771E-02  0.1180000E+00
      -11   -1    0    0    0    0  0.00000000000E+00  0.00000000000E+00  0.35740347158E-01  0.35744000000E-01  0.51099999109E-03 0. -1.
       11   -1    0    0    0    0 -0.00000000000E+00 -0.00000000000E+00 -0.35740347158E-01  0.35744000000E-01  0.51099999109E-03 0.  1.
      -11    1    1    2    0    0 -0.11634377081E-01 -0.74691109125E-03  0.33785437821E-01  0.35744000000E-01  0.51099999109E-03 0. -1.
       11    1    1    2    0    0  0.11634377081E-01  0.74691109125E-03 -0.33785437821E-01  0.35744000000E-01  0.51099999109E-03 0.  1.
</event>
<event>
 4   0  0.3028200E+07  0.9118800E+02  0.7546771E-02  0.1180000E+00
      -11   -1    0    0    0    0  0.00000000000E+00  0.00000000000E+00  0.35740347158E-01  0.35744000000E-01  0.51099999109E-03 0.  1.
       11   -1    0    0    0    0 -0.00000000000E+00 -0.00000000000E+00 -0.35740347158E-01  0.35744000000E-01  0.51099999109E-03 0. -1.
      -11    1    1    2    0    0  0.13531049274E-01 -0.15348214988E-02  0.33044325436E-01  0.35744000000E-01  0.51099999109E-03 0.  1.
       11    1    1    2    0    0 -0.13531049274E-01  0.15348214988E-02 -0.33044325436E-01  0.35744000000E-01  0.51099999109E-03 0. -1.
</event>
<event>
 4   0  0.3028200E+07  0.9118800E+02  0.7546771E-02  0.1180000E+00
      -11   -1    0    0    0    0  0.00000000000E+00  0.00000000000E+00  0.35740347158E-01  0.35744000000E-01  0.51099999109E-03 0.  1.
       11   -1    0    0    0    0 -0.00000000000E+00 -0.00000000000E+00 -0.35740347158E-01  0.35744000000E-01  0.51099999109E-03 0.  1.
      -11    1    1    2    0    0  0.13351726299E-01  0.15123149164E-01  0.29502443614E-01  0.35744000000E-01  0.51099999109E-03 0.  1.
       11    1    1    2    0    0 -0.13351726299E-01 -0.15123149164E-01 -0.29502443614E-01  0.35744000000E-01  0.51099999109E-03 0.  1.
</event>
<event>
 4   0  0.3028200E+07  0.9118800E+02  0.7546771E-02  0.1180000E+00
      -11   -1    0    0    0    0  0.00000000000E+00  0.00000000000E+00  0.35740347158E-01  0.35744000000E-01  0.51099999109E-03 0. -1.
       11   -1    0    0    0    0 -0.00000000000E+00 -0.00000000000E+00 -0.35740347158E-01  0.35744000000E-01  0.51099999109E-03 0.  1.
      -11    1    1    2    0    0 -0.20866079622E-01  0.10072814689E-01  0.27212451938E-01  0.35744000000E-01  0.51099999109E-03 0. -1.
       11    1    1    2    0    0  0.20866079622E-01 -0.10072814689E-01 -0.27212451938E-01  0.35744000000E-01  0.51099999109E-03 0.  1.
</event>
<event>
 4   0  0.3028200E+07  0.9118800E+02  0.7546771E-02  0.1180000E+00
      -11   -1    0    0    0    0  0.00000000000E+00  0.00000000000E+00  0.35740347158E-01  0.35744000000E-01  0.51099999109E-03 0.  1.
       11   -1    0    0    0    0 -0.00000000000E+00 -0.00000000000E+00 -0.35740347158E-01  0.35744000000E-01  0.51099999109E-03 0. -1.
      -11    1    1    2    0    0 -0.17606132591E-02 -0.25374385964E-01  0.25108030447E-01  0.35744000000E-01  0.51099999109E-03 0.  1.
       11    1    1    2    0    0  0.17606132591E-02  0.25374385964E-01 -0.25108030447E-01  0.35744000000E-01  0.51099999109E-03 0. -1.
</event>
<event>
 4   0  0.3028200E+07  0.9118800E+02  0.7546771E-02  0.1180000E+00
      -11   -1    0    0    0    0  0.00000000000E+00  0.00000000000E+00  0.35740347158E-01  0.35744000000E-01  0.51099999109E-03 0. -1.
       11   -1    0    0    0    0 -0.00000000000E+00 -0.00000000000E+00 -0.35740347158E-01  0.35744000000E-01  0.51099999109E-03 0. -1.
      -11    1    1    2    0    0 -0.16389566255E-01  0.13887335797E-01  0.28563900949E-01  0.35744000000E-01  0.51099999109E-03 0. -1.
       11    1    1    2    0    0  0.16389566255E-01 -0.13887335797E-01 -0.28563900949E-01  0.35744000000E-01  0.51099999109E-03 0. -1.
</event>
<event>
 4   0  0.3028200E+07  0.9118800E+02  0.7546771E-02  0.1180000E+00
      -11   -1    0    0    0    0  0.00000000000E+00  0.00000000000E+00  0.35740347158E-01  0.35744000000E-01  0.51099999109E-03 0.  1.
       11   -1    0    0    0    0 -0.00000000000E+00 -0.00000000000E+00 -0.35740347158E-01  0.35744000000E-01  0.51099999109E-03 0. -1.
      -11    1    1    2    0    0 -0.12576086143E-01 -0.11779683041E-01  0.31312194745E-01  0.35744000000E-01  0.51099999109E-03 0.  1.
       11    1    1    2    0    0  0.12576086143E-01  0.11779683041E-01 -0.31312194745E-01  0.35744000000E-01  0.51099999109E-03 0. -1.
</event>
<event>
 4   0  0.3028200E+07  0.9118800E+02  0.7546771E-02  0.1180000E+00
      -11   -1    0    0    0    0  0.00000000000E+00  0.00000000000E+00  0.35740347158E-01  0.35744000000E-01  0.51099999109E-03 0. -1.
       11   -1    0    0    0    0 -0.00000000000E+00 -0.00000000000E+00 -0.35740347158E-01  0.35744000000E-01  0.51099999109E-03 0.  1.
      -11    1    1    2    0    0 -0.15668803035E-02 -0.19145620126E-01  0.30139053255E-01  0.35744000000E-01  0.51099999109E-03 0. -1.
       11    1    1    2    0    0  0.15668803035E-02  0.19145620126E-01 -0.30139053255E-01  0.35744000000E-01  0.51099999109E-03 0.  1.
</event>
<event>
 4   0  0.3028200E+07  0.9118800E+02  0.7546771E-02  0.1180000E+00
      -11   -1    0    0    0    0  0.00000000000E+00  0.00000000000E+00  0.35740347158E-01  0.35744000000E-01  0.51099999109E-03 0. -1.
       11   -1    0    0    0    0 -0.00000000000E+00 -0.00000000000E+00 -0.35740347158E-01  0.35744000000E-01  0.51099999109E-03 0.  1.
      -11    1    1    2    0    0  0.12255396009E-01  0.41870126489E-03  0.33570856005E-01  0.35744000000E-01  0.51099999109E-03 0. -1.
       11    1    1    2    0    0 -0.12255396009E-01 -0.41870126489E-03 -0.33570856005E-01  0.35744000000E-01  0.51099999109E-03 0.  1.
</event>
<event>
 4   0  0.3028200E+07  0.9118800E+02  0.7546771E-02  0.1180000E+00
      -11   -1    0    0    0    0  0.00000000000E+00  0.00000000000E+00  0.35740347158E-01  0.35744000000E-01  0.51099999109E-03 0. -1.
       11   -1    0    0    0    0 -0.00000000000E+00 -0.00000000000E+00 -0.35740347158E-01  0.35744000000E-01  0.51099999109E-03 0. -1.
      -11    1    1    2    0    0  0.63387470595E-02  0.13643286863E-01  0.32419954107E-01  0.35744000000E-01  0.51099999109E-03 0. -1.
       11    1    1    2    0    0 -0.63387470595E-02 -0.13643286863E-01 -0.32419954107E-01  0.35744000000E-01  0.51099999109E-03 0. -1.
</event>
<event>
 4   0  0.3028200E+07  0.9118800E+02  0.7546771E-02  0.1180000E+00
      -11   -1    0    0    0    0  0.00000000000E+00  0.00000000000E+00  0.35740347158E-01  0.35744000000E-01  0.51099999109E-03 0. -1.
       11   -1    0    0    0    0 -0.00000000000E+00 -0.00000000000E+00 -0.35740347158E-01  0.35744000000E-01  0.51099999109E-03 0. -1.
      -11    1    1    2    0    0  0.12768859521E-01  0.54220156706E-03  0.33377157743E-01  0.35744000000E-01  0.51099999109E-03 0. -1.
       11    1    1    2    0    0 -0.12768859521E-01 -0.54220156706E-03 -0.33377157743E-01  0.35744000000E-01  0.51099999109E-03 0. -1.
</event>
<event>
 4   0  0.3028200E+07  0.9118800E+02  0.7546771E-02  0.1180000E+00
      -11   -1    0    0    0    0  0.00000000000E+00  0.00000000000E+00  0.35740347158E-01  0.35744000000E-01  0.51099999109E-03 0. -1.
       11   -1    0    0    0    0 -0.00000000000E+00 -0.00000000000E+00 -0.35740347158E-01  0.35744000000E-01  0.51099999109E-03 0.  1.
      -11    1    1    2    0    0  0.37141402883E-02  0.14548320186E-01  0.32433377202E-01  0.35744000000E-01  0.51099999109E-03 0. -1.
       11    1    1    2    0    0 -0.37141402883E-02 -0.14548320186E-01 -0.32433377202E-01  0.35744000000E-01  0.51099999109E-03 0.  1.
</event>
<event>
 4   0  0.3028200E+07  0.9118800E+02  0.7546771E-02  0.1180000E+00
      -11   -1    0    0    0    0  0.00000000000E+00  0.00000000000E+00  0.35740347158E-01  0.35744000000E-01  0.51099999109E-03 0. -1.
       11   -1    0    0    0    0 -0.00000000000E+00 -0.00000000000E+00 -0.35740347158E-01  0.35744000000E-01  0.51099999109E-03 0.  1.
      -11    1    1    2    0    0 -0.13856557699E-01 -0.20998213941E-02  0.32877940535E-01  0.35744000000E-01  0.51099999109E-03 0. -1.
       11    1    1    2    0    0  0.13856557699E-01  0.20998213941E-02 -0.32877940535E-01  0.35744000000E-01  0.51099999109E-03 0.  1.
</event>
<event>
 4   0  0.3028200E+07  0.9118800E+02  0.7546771E-02  0.1180000E+00
      -11   -1    0    0    0    0  0.00000000000E+00  0.00000000000E+00  0.35740347158E-01  0.35744000000E-01  0.51099999109E-03 0.  1.
       11   -1    0    0    0    0 -0.00000000000E+00 -0.00000000000E+00 -0.35740347158E-01  0.35744000000E-01  0.51099999109E-03 0. -1.
      -11    1    1    2    0    0 -0.23028548970E-03 -0.12738520598E-01  0.33392356559E-01  0.35744000000E-01  0.51099999109E-03 0.  1.
       11    1    1    2    0    0  0.23028548970E-03  0.12738520598E-01 -0.33392356559E-01  0.35744000000E-01  0.51099999109E-03 0. -1.
</event>
<event>
 4   0  0.3028200E+07  0.9118800E+02  0.7546771E-02  0.1180000E+00
      -11   -1    0    0    0    0  0.00000000000E+00  0.00000000000E+00  0.35740347158E-01  0.35744000000E-01  0.51099999109E-03 0.  1.
       11   -1    0    0    0    0 -0.00000000000E+00 -0.00000000000E+00 -0.35740347158E-01  0.35744000000E-01  0.51099999109E-03 0.  1.
      -11    1    1    2    0    0  0.12791887519E-01  0.27738621157E-02  0.33257265637E-01  0.35744000000E-01  0.51099999109E-03 0.  1.
       11    1    1    2    0    0 -0.12791887519E-01 -0.27738621157E-02 -0.33257265637E-01  0.35744000000E-01  0.51099999109E-03 0.  1.
</event>
<event>
 4   0  0.3028200E+07  0.9118800E+02  0.7546771E-02  0.1180000E+00
      -11   -1    0    0    0    0  0.00000000000E+00  0.00000000000E+00  0.35740347158E-01  0.35744000000E-01  0.51099999109E-03 0.  1.
       11   -1    0    0    0    0 -0.00000000000E+00 -0.00000000000E+00 -0.35740347158E-01  0.35744000000E-01  0.51099999109E-03 0.  1.
      -11    1    1    2    0    0  0.16142572905E-01  0.97710719589E-02  0.30353186122E-01  0.35744000000E-01  0.51099999109E-03 0.  1.
       11    1    1    2    0    0 -0.16142572905E-01 -0.97710719589E-02 -0.30353186122E-01  0.35744000000E-01  0.51099999109E-03 0.  1.
</event>
<event>
 4   0  0.3028200E+07  0.9118800E+02  0.7546771E-02  0.1180000E+00
      -11   -1    0    0    0    0  0.00000000000E+00  0.00000000000E+00  0.35740347158E-01  0.35744000000E-01  0.51099999109E-03 0. -1.
       11   -1    0    0    0    0 -0.00000000000E+00 -0.00000000000E+00 -0.35740347158E-01  0.35744000000E-01  0.51099999109E-03 0. -1.
      -11    1    1    2    0    0  0.18129033908E-01  0.87808942167E-02  0.29522981579E-01  0.35744000000E-01  0.51099999109E-03 0. -1.
       11    1    1    2    0    0 -0.18129033908E-01 -0.87808942167E-02 -0.29522981579E-01  0.35744000000E-01  0.51099999109E-03 0. -1.
</event>
<event>
 4   0  0.3028200E+07  0.9118800E+02  0.7546771E-02  0.1180000E+00
      -11   -1    0    0    0    0  0.00000000000E+00  0.00000000000E+00  0.35740347158E-01  0.35744000000E-01  0.51099999109E-03 0.  1.
       11   -1    0    0    0    0 -0.00000000000E+00 -0.00000000000E+00 -0.35740347158E-01  0.35744000000E-01  0.51099999109E-03 0. -1.
      -11    1    1    2    0    0  0.70003777650E-02 -0.96200908520E-02  0.33701943240E-01  0.35744000000E-01  0.51099999109E-03 0.  1.
       11    1    1    2    0    0 -0.70003777650E-02  0.96200908520E-02 -0.33701943240E-01  0.35744000000E-01  0.51099999109E-03 0. -1.
</event>
<event>
 4   0  0.3028200E+07  0.9118800E+02  0.7546771E-02  0.1180000E+00
      -11   -1    0    0    0    0  0.00000000000E+00  0.00000000000E+00  0.35740347158E-01  0.35744000000E-01  0.51099999109E-03 0.  1.
       11   -1    0    0    0    0 -0.00000000000E+00 -0.00000000000E+00 -0.35740347158E-01  0.35744000000E-01  0.51099999109E-03 0. -1.
      -11    1    1    2    0    0  0.38884029987E-02  0.15589375608E-01  0.31925289431E-01  0.35744000000E-01  0.51099999109E-03 0.  1.
       11    1    1    2    0    0 -0.38884029987E-02 -0.15589375608E-01 -0.31925289431E-01  0.35744000000E-01  0.51099999109E-03 0. -1.
</event>
<event>
 4   0  0.3028200E+07  0.9118800E+02  0.7546771E-02  0.1180000E+00
      -11   -1    0    0    0    0  0.00000000000E+00  0.00000000000E+00  0.35740347158E-01  0.35744000000E-01  0.51099999109E-03 0.  1.
       11   -1    0    0    0    0 -0.00000000000E+00 -0.00000000000E+00 -0.35740347158E-01  0.35744000000E-01  0.51099999109E-03 0.  1.
      -11    1    1    2    0    0  0.45033863033E-02 -0.15052057985E-01  0.32101829811E-01  0.35744000000E-01  0.51099999109E-03 0.  1.
       11    1    1    2    0    0 -0.45033863033E-02  0.15052057985E-01 -0.32101829811E-01  0.35744000000E-01  0.51099999109E-03 0.  1.
</event>
<event>
 4   0  0.3028200E+07  0.9118800E+02  0.7546771E-02  0.1180000E+00
      -11   -1    0    0    0    0  0.00000000000E+00  0.00000000000E+00  0.35740347158E-01  0.35744000000E-01  0.51099999109E-03 0.  1.
       11   -1    0    0    0    0 -0.00000000000E+00 -0.00000000000E+00 -0.35740347158E-01  0.35744000000E-01  0.51099999109E-03 0.  1.
      -11    1    1    2    0    0  0.69760212404E-02  0.15825617778E-01  0.31277106078E-01  0.35744000000E-01  0.51099999109E-03 0.  1.
       11    1    1    2    0    0 -0.69760212404E-02 -0.15825617778E-01 -0.31277106078E-01  0.35744000000E-01  0.51099999109E-03 0.  1.
</event>
<event>
 4   0  0.3028200E+07  0.9118800E+02  0.7546771E-02  0.1180000E+00
      -11   -1    0    0    0    0  0.00000000000E+00  0.00000000000E+00  0.35740347158E-01  0.35744000000E-01  0.51099999109E-03 0.  1.
       11   -1    0    0    0    0 -0.00000000000E+00 -0.00000000000E+00 -0.35740347158E-01  0.35744000000E-01  0.51099999109E-03 0. -1.
      -11    1    1    2    0    0 -0.10849824152E-01  0.86101435695E-02  0.32947217767E-01  0.35744000000E-01  0.51099999109E-03 0.  1.
       11    1    1    2    0    0  0.10849824152E-01 -0.86101435695E-02 -0.32947217767E-01  0.35744000000E-01  0.51099999109E-03 0. -1.
</event>
<event>
 4   0  0.3028200E+07  0.9118800E+02  0.7546771E-02  0.1180000E+00
      -11   -1    0    0    0    0  0.00000000000E+00  0.00000000000E+00  0.35740347158E-01  0.35744000000E-01  0.51099999109E-03 0. -1.
       11   -1    0    0    0    0 -0.00000000000E+00 -0.00000000000E+00 -0.35740347158E-01  0.35744000000E-01  0.51099999109E-03 0. -1.
      -11    1    1    2    0    0  0.10679469887E-01 -0.60307140602E-02  0.33570103155E-01  0.35744000000E-01  0.51099999109E-03 0. -1.
       11    1    1    2    0    0 -0.10679469887E-01  0.60307140602E-02 -0.33570103155E-01  0.35744000000E-01  0.51099999109E-03 0. -1.
</event>
<event>
 4   0  0.3028200E+07  0.9118800E+02  0.7546771E-02  0.1180000E+00
      -11   -1    0    0    0    0  0.00000000000E+00  0.00000000000E+00  0.35740347158E-01  0.35744000000E-01  0.51099999109E-03 0.  1.
       11   -1    0    0    0    0 -0.00000000000E+00 -0.00000000000E+00 -0.35740347158E-01  0.35744000000E-01  0.51099999109E-03 0.  1.
      -11    1    1    2    0    0 -0.11716931003E-01  0.32710074399E-02  0.33606345431E-01  0.35744000000E-01  0.51099999109E-03 0.  1.
       11    1    1    2    0    0  0.11716931003E-01 -0.32710074399E-02 -0.33606345431E-01  0.35744000000E-01  0.51099999109E-03 0.  1.
</event>
<event>
 4   0  0.3028200E+07  0.9118800E+02  0.7546771E-02  0.1180000E+00
      -11   -1    0    0    0    0  0.00000000000E+00  0.00000000000E+00  0.35740347158E-01  0.35744000000E-01  0.51099999109E-03 0.  1.
       11   -1    0    0    0    0 -0.00000000000E+00 -0.00000000000E+00 -0.35740347158E-01  0.35744000000E-01  0.51099999109E-03 0.  1.
      -11    1    1    2    0    0 -0.89645835062E-02  0.78027147516E-02  0.33706472673E-01  0.35744000000E-01  0.51099999109E-03 0.  1.
       11    1    1    2    0    0  0.89645835062E-02 -0.78027147516E-02 -0.33706472673E-01  0.35744000000E-01  0.51099999109E-03 0.  1.
</event>
<event>
 4   0  0.3028200E+07  0.9118800E+02  0.7546771E-02  0.1180000E+00
      -11   -1    0    0    0    0  0.00000000000E+00  0.00000000000E+00  0.35740347158E-01  0.35744000000E-01  0.51099999109E-03 0. -1.
       11   -1    0    0    0    0 -0.00000000000E+00 -0.00000000000E+00 -0.35740347158E-01  0.35744000000E-01  0.51099999109E-03 0. -1.
      -11    1    1    2    0    0 -0.13290445131E-01 -0.76927978215E-02  0.32273167569E-01  0.35744000000E-01  0.51099999109E-03 0. -1.
       11    1    1    2    0    0  0.13290445131E-01  0.76927978215E-02 -0.32273167569E-01  0.35744000000E-01  0.51099999109E-03 0. -1.
</event>
<event>
 4   0  0.3028200E+07  0.9118800E+02  0.7546771E-02  0.1180000E+00
      -11   -1    0    0    0    0  0.00000000000E+00  0.00000000000E+00  0.35740347158E-01  0.35744000000E-01  0.51099999109E-03 0.  1.
       11   -1    0    0    0    0 -0.00000000000E+00 -0.00000000000E+00 -0.35740347158E-01  0.35744000000E-01  0.51099999109E-03 0.  1.
      -11    1    1    2    0    0 -0.82360972246E-02 -0.90754450099E-02  0.33573433178E-01  0.35744000000E-01  0.51099999109E-03 0.  1.
       11    1    1    2    0    0  0.82360972246E-02  0.90754450099E-02 -0.33573433178E-01  0.35744000000E-01  0.51099999109E-03 0.  1.
</event>
<event>
 4   0  0.3028200E+07  0.9118800E+02  0.7546771E-02  0.1180000E+00
      -11   -1    0    0    0    0  0.00000000000E+00  0.00000000000E+00  0.35740347158E-01  0.35744000000E-01  0.51099999109E-03 0.  1.
       11   -1    0    0    0    0 -0.00000000000E+00 -0.00000000000E+00 -0.35740347158E-01  0.35744000000E-01  0.51099999109E-03 0.  1.
      -11    1    1    2    0    0  0.22112401226E-02 -0.16097081525E-01  0.31833422664E-01  0.35744000000E-01  0.51099999109E-03 0.  1.
       11    1    1    2    0    0 -0.22112401226E-02  0.16097081525E-01 -0.31833422664E-01  0.35744000000E-01  0.51099999109E-03 0.  1.
</event>
<event>
 4   0  0.3028200E+07  0.9118800E+02  0.7546771E-02  0.1180000E+00
      -11   -1    0    0    0    0  0.00000000000E+00  0.00000000000E+00  0.35740347158E-01  0.35744000000E-01  0.51099999109E-03 0. -1.
       11   -1    0    0    0    0 -0.00000000000E+00 -0.00000000000E+00 -0.35740347158E-01  0.35744000000E-01  0.51099999109E-03 0.  1.
      -11    1    1    2    0    0 -0.82218980742E-03  0.24806236627E-01  0.25716668589E-01  0.35744000000E-01  0.51099999109E-03 0. -1.
       11    1    1    2    0    0  0.82218980742E-03 -0.24806236627E-01 -0.25716668589E-01  0.35744000000E-01  0.51099999109E-03 0.  1.
</event>
<event>
 4   0  0.3028200E+07  0.9118800E+02  0.7546771E-02  0.1180000E+00
      -11   -1    0    0    0    0  0.00000000000E+00  0.00000000000E+00  0.35740347158E-01  0.35744000000E-01  0.51099999109E-03 0. -1.
       11   -1    0    0    0    0 -0.00000000000E+00 -0.00000000000E+00 -0.35740347158E-01  0.35744000000E-01  0.51099999109E-03 0. -1.
      -11    1    1    2    0    0 -0.41239454810E-02 -0.19056935575E-01  0.29953275199E-01  0.35744000000E-01  0.51099999109E-03 0. -1.
       11    1    1    2    0    0  0.41239454810E-02  0.19056935575E-01 -0.29953275199E-01  0.35744000000E-01  0.51099999109E-03 0. -1.
</event>
<event>
 4   0  0.3028200E+07  0.9118800E+02  0.7546771E-02  0.1180000E+00
      -11   -1    0    0    0    0  0.00000000000E+00  0.00000000000E+00  0.35740347158E-01  0.35744000000E-01  0.51099999109E-03 0.  1.
       11   -1    0    0    0    0 -0.00000000000E+00 -0.00000000000E+00 -0.35740347158E-01  0.35744000000E-01  0.51099999109E-03 0.  1.
      -11    1    1    2    0    0 -0.11501929456E-02  0.21906985874E-01  0.28215836708E-01  0.35744000000E-01  0.51099999109E-03 0.  1.
       11    1    1    2    0    0  0.11501929456E-02 -0.21906985874E-01 -0.28215836708E-01  0.35744000000E-01  0.51099999109E-03 0.  1.
</event>
<event>
 4   0  0.3028200E+07  0.9118800E+02  0.7546771E-02  0.1180000E+00
      -11   -1    0    0    0    0  0.00000000000E+00  0.00000000000E+00  0.35740347158E-01  0.35744000000E-01  0.51099999109E-03 0.  1.
       11   -1    0    0    0    0 -0.00000000000E+00 -0.00000000000E+00 -0.35740347158E-01  0.35744000000E-01  0.51099999109E-03 0.  1.
      -11    1    1    2    0    0  0.14731508892E-01 -0.15885305916E-02  0.32524323687E-01  0.35744000000E-01  0.51099999109E-03 0.  1.
       11    1    1    2    0    0 -0.14731508892E-01  0.15885305916E-02 -0.32524323687E-01  0.35744000000E-01  0.51099999109E-03 0.  1.
</event>
<event>
 4   0  0.3028200E+07  0.9118800E+02  0.7546771E-02  0.1180000E+00
      -11   -1    0    0    0    0  0.00000000000E+00  0.00000000000E+00  0.35740347158E-01  0.35744000000E-01  0.51099999109E-03 0. -1.
       11   -1    0    0    0    0 -0.00000000000E+00 -0.00000000000E+00 -0.35740347158E-01  0.35744000000E-01  0.51099999109E-03 0.  1.
      -11    1    1    2    0    0  0.10273015393E-01  0.64501117657E-02  0.33618947455E-01  0.35744000000E-01  0.51099999109E-03 0. -1.
       11    1    1    2    0    0 -0.10273015393E-01 -0.64501117657E-02 -0.33618947455E-01  0.35744000000E-01  0.51099999109E-03 0.  1.
</event>
<event>
 4   0  0.3028200E+07  0.9118800E+02  0.7546771E-02  0.1180000E+00
      -11   -1    0    0    0    0  0.00000000000E+00  0.00000000000E+00  0.35740347158E-01  0.35744000000E-01  0.51099999109E-03 0. -1.
       11   -1    0    0    0    0 -0.00000000000E+00 -0.00000000000E+00 -0.35740347158E-01  0.35744000000E-01  0.51099999109E-03 0. -1.
      -11    1    1    2    0    0  0.15229971090E-02 -0.13759057254E-01  0.32950587829E-01  0.35744000000E-01  0.51099999109E-03 0. -1.
       11    1    1    2    0    0 -0.15229971090E-02  0.13759057254E-01 -0.32950587829E-01  0.35744000000E-01  0.51099999109E-03 0. -1.
</event>
<event>
 4   0  0.3028200E+07  0.9118800E+02  0.7546771E-02  0.1180000E+00
      -11   -1    0    0    0    0  0.00000000000E+00  0.00000000000E+00  0.35740347158E-01  0.35744000000E-01  0.51099999109E-03 0.  1.
       11   -1    0    0    0    0 -0.00000000000E+00 -0.00000000000E+00 -0.35740347158E-01  0.35744000000E-01  0.51099999109E-03 0.  1.
      -11    1    1    2    0    0  0.49800505459E-02  0.12159302071E-01  0.33237371808E-01  0.35744000000E-01  0.51099999109E-03 0.  1.
       11    1    1    2    0    0 -0.49800505459E-02 -0.12159302071E-01 -0.33237371808E-01  0.35744000000E-01  0.51099999109E-03 0.  1.
</event>
<event>
 4   0  0.3028200E+07  0.9118800E+02  0.7546771E-02  0.1180000E+00
      -11   -1    0    0    0    0  0.00000000000E+00  0.00000000000E+00  0.35740347158E-01  0.35744000000E-01  0.51099999109E-03 0. -1.
       11   -1    0    0    0    0 -0.00000000000E+00 -0.00000000000E+00 -0.35740347158E-01  0.35744000000E-01  0.51099999109E-03 0.  1.
      -11    1    1    2    0    0 -0.48275703523E-02  0.15337537548E-01  0.31919068305E-01  0.35744000000E-01  0.51099999109E-03 0. -1.
       11    1    1    2    0    0  0.48275703523E-02 -0.15337537548E-01 -0.31919068305E-01  0.35744000000E-01  0.51099999109E-03 0.  1.
</event>
<event>
 4   0  0.3028200E+07  0.9118800E+02  0.7546771E-02  0.1180000E+00
      -11   -1    0    0    0    0  0.00000000000E+00  0.00000000000E+00  0.35740347158E-01  0.35744000000E-01  0.51099999109E-03 0.  1.
       11   -1    0    0    0    0 -0.00000000000E+00 -0.00000000000E+00 -0.35740347158E-01  0.35744000000E-01  0.51099999109E-03 0. -1.
      -11    1    1    2    0    0  0.35223581820E-02  0.13742266278E-01  0.32804199813E-01  0.35744000000E-01  0.51099999109E-03 0.  1.
       11    1    1    2    0    0 -0.35223581820E-02 -0.13742266278E-01 -0.32804199813E-01  0.35744000000E-01  0.51099999109E-03 0. -1.
</event>
<event>
 4   0  0.3028200E+07  0.9118800E+02  0.7546771E-02  0.1180000E+00
      -11   -1    0    0    0    0  0.00000000000E+00  0.00000000000E+00  0.35740347158E-01  0.35744000000E-01  0.51099999109E-03 0.  1.
       11   -1    0    0    0    0 -0.00000000000E+00 -0.00000000000E+00 -0.35740347158E-01  0.35744000000E-01  0.51099999109E-03 0. -1.
      -11    1    1    2    0    0  0.15305875900E-01  0.35574016007E-02  0.32100583667E-01  0.35744000000E-01  0.51099999109E-03 0.  1.
       11    1    1    2    0    0 -0.15305875900E-01 -0.35574016007E-02 -0.32100583667E-01  0.35744000000E-01  0.51099999109E-03 0. -1.
</event>
<event>
 4   0  0.3028200E+07  0.9118800E+02  0.7546771E-02  0.1180000E+00
      -11   -1    0    0    0    0  0.00000000000E+00  0.00000000000E+00  0.35740347158E-01  0.35744000000E-01  0.51099999109E-03 0.  1.
       11   -1    0    0    0    0 -0.00000000000E+00 -0.00000000000E+00 -0.35740347158E-01  0.35744000000E-01  0.51099999109E-03 0. -1.
      -11    1    1    2    0    0  0.27366719524E-03  0.23249997076E-01  0.27142865679E-01  0.35744000000E-01  0.51099999109E-03 0.  1.
       11    1    1    2    0    0 -0.27366719524E-03 -0.23249997076E-01 -0.27142865679E-01  0.35744000000E-01  0.51099999109E-03 0. -1.
</event>
<event>
 4   0  0.3028200E+07  0.9118800E+02  0.7546771E-02  0.1180000E+00
      -11   -1    0    0    0    0  0.00000000000E+00  0.00000000000E+00  0.35740347158E-01  0.35744000000E-01  0.51099999109E-03 0.  1.
       11   -1    0    0    0    0 -0.00000000000E+00 -0.00000000000E+00 -0.35740347158E-01  0.35744000000E-01  0.51099999109E-03 0.  1.
      -11    1    1    2    0    0  0.22706498121E-02 -0.16236721934E-01  0.31758233976E-01  0.35744000000E-01  0.51099999109E-03 0.  1.
       11    1    1    2    0    0 -0.22706498121E-02  0.16236721934E-01 -0.31758233976E-01  0.35744000000E-01  0.51099999109E-03 0.  1.
</event>
<event>
 4   0  0.3028200E+07  0.9118800E+02  0.7546771E-02  0.1180000E+00
      -11   -1    0    0    0    0  0.00000000000E+00  0.00000000000E+00  0.35740347158E-01  0.35744000000E-01  0.51099999109E-03 0. -1.
       11   -1    0    0    0    0 -0.00000000000E+00 -0.00000000000E+00 -0.35740347158E-01  0.35744000000E-01  0.51099999109E-03 0. -1.
      -11    1    1    2    0    0  0.86788414345E-02 -0.10036028002E-01  0.33186266260E-01  0.35744000000E-01  0.51099999109E-03 0. -1.
       11    1    1    2    0    0 -0.86788414345E-02  0.10036028002E-01 -0.33186266260E-01  0.35744000000E-01  0.51099999109E-03 0. -1.
</event>
<event>
 4   0  0.3028200E+07  0.9118800E+02  0.7546771E-02  0.1180000E+00
      -11   -1    0    0    0    0  0.00000000000E+00  0.00000000000E+00  0.35740347158E-01  0.35744000000E-01  0.51099999109E-03 0.  1.
       11   -1    0    0    0    0 -0.00000000000E+00 -0.00000000000E+00 -0.35740347158E-01  0.35744000000E-01  0.51099999109E-03 0.  1.
      -11    1    1    2    0    0 -0.98501720677E-02 -0.73679072118E-02  0.33556824471E-01  0.35744000000E-01  0.51099999109E-03 0.  1.
       11    1    1    2    0    0  0.98501720677E-02  0.73679072118E-02 -0.33556824471E-01  0.35744000000E-01  0.51099999109E-03 0.  1.
</event>
<event>
 4   0  0.3028200E+07  0.9118800E+02  0.7546771E-02  0.1180000E+00
      -11   -1    0    0    0    0  0.00000000000E+00  0.00000000000E+00  0.35740347158E-01  0.35744000000E-01  0.51099999109E-03 0. -1.
       11   -1    0    0    0    0 -0.00000000000E+00 -0.00000000000E+00 -0.35740347158E-01  0.35744000000E-01  0.51099999109E-03 0.  1.
      -11    1    1    2    0    0 -0.90802922650E-02 -0.13235666509E-01  0.31933334299E-01  0.35744000000E-01  0.51099999109E-03 0. -1.
       11    1    1    2    0    0  0.90802922650E-02  0.13235666509E-01 -0.31933334299E-01  0.35744000000E-01  0.51099999109E-03 0.  1.
</event>
<event>
 4   0  0.3028200E+07  0.9118800E+02  0.7546771E-02  0.1180000E+00
      -11   -1    0    0    0    0  0.00000000000E+00  0.00000000000E+00  0.35740347158E-01  0.35744000000E-01  0.51099999109E-03 0. -1.
       11   -1    0    0    0    0 -0.00000000000E+00 -0.00000000000E+00 -0.35740347158E-01  0.35744000000E-01  0.51099999109E-03 0.  1.
      -11    1    1    2    0    0 -0.63105458770E-02  0.11551273441E-01  0.33228263687E-01  0.35744000000E-01  0.51099999109E-03 0. -1.
       11    1    1    2    0    0  0.63105458770E-02 -0.11551273441E-01 -0.33228263687E-01  0.35744000000E-01  0.51099999109E-03 0.  1.
</event>
<event>
 4   0  0.3028200E+07  0.9118800E+02  0.7546771E-02  0.1180000E+00
      -11   -1    0    0    0    0  0.00000000000E+00  0.00000000000E+00  0.35740347158E-01  0.35744000000E-01  0.51099999109E-03 0.  1.
       11   -1    0    0    0    0 -0.00000000000E+00 -0.00000000000E+00 -0.35740347158E-01  0.35744000000E-01  0.51099999109E-03 0.  1.
      -11    1    1    2    0    0 -0.11403658443E-01 -0.29889262148E-02  0.33740114244E-01  0.35744000000E-01  0.51099999109E-03 0.  1.
       11    1    1    2    0    0  0.11403658443E-01  0.29889262148E-02 -0.33740114244E-01  0.35744000000E-01  0.51099999109E-03 0.  1.
</event>
<event>
 4   0  0.3028200E+07  0.9118800E+02  0.7546771E-02  0.1180000E+00
      -11   -1    0    0    0    0  0.00000000000E+00  0.00000000000E+00  0.35740347158E-01  0.35744000000E-01  0.51099999109E-03 0.  1.
       11   -1    0    0    0    0 -0.00000000000E+00 -0.00000000000E+00 -0.35740347158E-01  0.35744000000E-01  0.51099999109E-03 0. -1.
      -11    1    1    2    0    0  0.17076589848E-01  0.40228624728E-02  0.31138064675E-01  0.35744000000E-01  0.51099999109E-03 0.  1.
       11    1    1    2    0    0 -0.17076589848E-01 -0.40228624728E-02 -0.31138064675E-01  0.35744000000E-01  0.51099999109E-03 0. -1.
</event>
<event>
 4   0  0.3028200E+07  0.9118800E+02  0.7546771E-02  0.1180000E+00
      -11   -1    0    0    0    0  0.00000000000E+00  0.00000000000E+00  0.35740347158E-01  0.35744000000E-01  0.51099999109E-03 0.  1.
       11   -1    0    0    0    0 -0.00000000000E+00 -0.00000000000E+00 -0.35740347158E-01  0.35744000000E-01  0.51099999109E-03 0. -1.
      -11    1    1    2    0    0 -0.11353728311E-01 -0.63837516973E-02  0.33282322376E-01  0.35744000000E-01  0.51099999109E-03 0.  1.
       11    1    1    2    0    0  0.11353728311E-01  0.63837516973E-02 -0.33282322376E-01  0.35744000000E-01  0.51099999109E-03 0. -1.
</event>
<event>
 4   0  0.3028200E+07  0.9118800E+02  0.7546771E-02  0.1180000E+00
      -11   -1    0    0    0    0  0.00000000000E+00  0.00000000000E+00  0.35740347158E-01  0.35744000000E-01  0.51099999109E-03 0.  1.
       11   -1    0    0    0    0 -0.00000000000E+00 -0.00000000000E+00 -0.35740347158E-01  0.35744000000E-01  0.51099999109E-03 0.  1.
      -11    1    1    2    0    0 -0.83019273968E-02 -0.92805441720E-02  0.33501073362E-01  0.35744000000E-01  0.51099999109E-03 0.  1.
       11    1    1    2    0    0  0.83019273968E-02  0.92805441720E-02 -0.33501073362E-01  0.35744000000E-01  0.51099999109E-03 0.  1.
</event>
<event>
 4   0  0.3028200E+07  0.9118800E+02  0.7546771E-02  0.1180000E+00
      -11   -1    0    0    0    0  0.00000000000E+00  0.00000000000E+00  0.35740347158E-01  0.35744000000E-01  0.51099999109E-03 0.  1.
       11   -1    0    0    0    0 -0.00000000000E+00 -0.00000000000E+00 -0.35740347158E-01  0.35744000000E-01  0.51099999109E-03 0. -1.
      -11    1    1    2    0    0 -0.15954686194E-01  0.94701062489E-02  0.30547299244E-01  0.35744000000E-01  0.51099999109E-03 0.  1.
       11    1    1    2    0    0  0.15954686194E-01 -0.94701062489E-02 -0.30547299244E-01  0.35744000000E-01  0.51099999109E-03 0. -1.
</event>
<event>
 4   0  0.3028200E+07  0.9118800E+02  0.7546771E-02  0.1180000E+00
      -11   -1    0    0    0    0  0.00000000000E+00  0.00000000000E+00  0.35740347158E-01  0.35744000000E-01  0.51099999109E-03 0. -1.
       11   -1    0    0    0    0 -0.00000000000E+00 -0.00000000000E+00 -0.35740347158E-01  0.35744000000E-01  0.51099999109E-03 0.  1.
      -11    1    1    2    0    0  0.11752956330E-01  0.12136205321E-02  0.33730810214E-01  0.35744000000E-01  0.51099999109E-03 0. -1.
       11    1    1    2    0    0 -0.11752956330E-01 -0.12136205321E-02 -0.33730810214E-01  0.35744000000E-01  0.51099999109E-03 0.  1.
</event>
<event>
 4   0  0.3028200E+07  0.9118800E+02  0.7546771E-02  0.1180000E+00
      -11   -1    0    0    0    0  0.00000000000E+00  0.00000000000E+00  0.35740347158E-01  0.35744000000E-01  0.51099999109E-03 0. -1.
       11   -1    0    0    0    0 -0.00000000000E+00 -0.00000000000E+00 -0.35740347158E-01  0.35744000000E-01  0.51099999109E-03 0. -1.
      -11    1    1    2    0    0  0.83561973827E-02 -0.23202062687E-01  0.25869106428E-01  0.35744000000E-01  0.51099999109E-03 0. -1.
       11    1    1    2    0    0 -0.83561973827E-02  0.23202062687E-01 -0.25869106428E-01  0.35744000000E-01  0.51099999109E-03 0. -1.
</event>
<event>
 4   0  0.3028200E+07  0.9118800E+02  0.7546771E-02  0.1180000E+00
      -11   -1    0    0    0    0  0.00000000000E+00  0.00000000000E+00  0.35740347158E-01  0.35744000000E-01  0.51099999109E-03 0.  1.
       11   -1    0    0    0    0 -0.00000000000E+00 -0.00000000000E+00 -0.35740347158E-01  0.35744000000E-01  0.51099999109E-03 0. -1.
      -11    1    1    2    0    0  0.12564234543E-01 -0.20820263870E-02  0.33394274831E-01  0.35744000000E-01  0.51099999109E-03 0.  1.
       11    1    1    2    0    0 -0.12564234543E-01  0.20820263870E-02 -0.33394274831E-01  0.35744000000E-01  0.51099999109E-03 0. -1.
</event>
<event>
 4   0  0.3028200E+07  0.9118800E+02  0.7546771E-02  0.1180000E+00
      -11   -1    0    0    0    0  0.00000000000E+00  0.00000000000E+00  0.35740347158E-01  0.35744000000E-01  0.51099999109E-03 0.  1.
       11   -1    0    0    0    0 -0.00000000000E+00 -0.00000000000E+00 -0.35740347158E-01  0.35744000000E-01  0.51099999109E-03 0. -1.
      -11    1    1    2    0    0 -0.12233970267E-01  0.24592375951E-02  0.33491111313E-01  0.35744000000E-01  0.51099999109E-03 0.  1.
       11    1    1    2    0    0  0.12233970267E-01 -0.24592375951E-02 -0.33491111313E-01  0.35744000000E-01  0.51099999109E-03 0. -1.
</event>
<event>
 4   0  0.3028200E+07  0.9118800E+02  0.7546771E-02  0.1180000E+00
      -11   -1    0    0    0    0  0.00000000000E+00  0.00000000000E+00  0.35740347158E-01  0.35744000000E-01  0.51099999109E-03 0.  1.
       11   -1    0    0    0    0 -0.00000000000E+00 -0.00000000000E+00 -0.35740347158E-01  0.35744000000E-01  0.51099999109E-03 0.  1.
      -11    1    1    2    0    0  0.15020491790E-01  0.24278206025E-02  0.32339804089E-01  0.35744000000E-01  0.51099999109E-03 0.  1.
       11    1    1    2    0    0 -0.15020491790E-01 -0.24278206025E-02 -0.32339804089E-01  0.35744000000E-01  0.51099999109E-03 0.  1.
</event>
<event>
 4   0  0.3028200E+07  0.9118800E+02  0.7546771E-02  0.1180000E+00
      -11   -1    0    0    0    0  0.00000000000E+00  0.00000000000E+00  0.35740347158E-01  0.35744000000E-01  0.51099999109E-03 0. -1.
       11   -1    0    0    0    0 -0.00000000000E+00 -0.00000000000E+00 -0.35740347158E-01  0.35744000000E-01  0.51099999109E-03 0. -1.
      -11    1    1    2    0    0 -0.29944261662E-02  0.11664957986E-01  0.33650179526E-01  0.35744000000E-01  0.51099999109E-03 0. -1.
       11    1    1    2    0    0  0.29944261662E-02 -0.11664957986E-01 -0.33650179526E-01  0.35744000000E-01  0.51099999109E-03 0. -1.
</event>
<event>
 4   0  0.3028200E+07  0.9118800E+02  0.7546771E-02  0.1180000E+00
      -11   -1    0    0    0    0  0.00000000000E+00  0.00000000000E+00  0.35740347158E-01  0.35744000000E-01  0.51099999109E-03 0.  1.
       11   -1    0    0    0    0 -0.00000000000E+00 -0.00000000000E+00 -0.35740347158E-01  0.35744000000E-01  0.51099999109E-03 0. -1.
      -11    1    1    2    0    0 -0.15419031727E-01 -0.75820377466E-02  0.31339090274E-01  0.35744000000E-01  0.51099999109E-03 0.  1.
       11    1    1    2    0    0  0.15419031727E-01  0.75820377466E-02 -0.31339090274E-01  0.35744000000E-01  0.51099999109E-03 0. -1.
</event>
<event>
 4   0  0.3028200E+07  0.9118800E+02  0.7546771E-02  0.1180000E+00
      -11   -1    0    0    0    0  0.00000000000E+00  0.00000000000E+00  0.35740347158E-01  0.35744000000E-01  0.51099999109E-03 0.  1.
       11   -1    0    0    0    0 -0.00000000000E+00 -0.00000000000E+00 -0.35740347158E-01  0.35744000000E-01  0.51099999109E-03 0. -1.
      -11    1    1    2    0    0  0.10140618760E-01  0.13124954490E-01  0.31658740275E-01  0.35744000000E-01  0.51099999109E-03 0.  1.
       11    1    1    2    0    0 -0.10140618760E-01 -0.13124954490E-01 -0.31658740275E-01  0.35744000000E-01  0.51099999109E-03 0. -1.
</event>
<event>
 4   0  0.3028200E+07  0.9118800E+02  0.7546771E-02  0.1180000E+00
      -11   -1    0    0    0    0  0.00000000000E+00  0.00000000000E+00  0.35740347158E-01  0.35744000000E-01  0.51099999109E-03 0. -1.
       11   -1    0    0    0    0 -0.00000000000E+00 -0.00000000000E+00 -0.35740347158E-01  0.35744000000E-01  0.51099999109E-03 0. -1.
      -11    1    1    2    0    0 -0.26391079921E-02 -0.16131635932E-01  0.31783295080E-01  0.35744000000E-01  0.51099999109E-03 0. -1.
       11    1    1    2    0    0  0.26391079921E-02  0.16131635932E-01 -0.31783295080E-01  0.35744000000E-01  0.51099999109E-03 0. -1.
</event>
<event>
 4   0  0.3028200E+07  0.9118800E+02  0.7546771E-02  0.1180000E+00
      -11   -1    0    0    0    0  0.00000000000E+00  0.00000000000E+00  0.35740347158E-01  0.35744000000E-01  0.51099999109E-03 0.  1.
       11   -1    0    0    0    0 -0.00000000000E+00 -0.00000000000E+00 -0.35740347158E-01  0.35744000000E-01  0.51099999109E-03 0. -1.
      -11    1    1    2    0    0  0.11110031753E-01 -0.50233908082E-02  0.33596207438E-01  0.35744000000E-01  0.51099999109E-03 0.  1.
       11    1    1    2    0    0 -0.11110031753E-01  0.50233908082E-02 -0.33596207438E-01  0.35744000000E-01  0.51099999109E-03 0. -1.
</event>
<event>
 4   0  0.3028200E+07  0.9118800E+02  0.7546771E-02  0.1180000E+00
      -11   -1    0    0    0    0  0.00000000000E+00  0.00000000000E+00  0.35740347158E-01  0.35744000000E-01  0.51099999109E-03 0. -1.
       11   -1    0    0    0    0 -0.00000000000E+00 -0.00000000000E+00 -0.35740347158E-01  0.35744000000E-01  0.51099999109E-03 0.  1.
      -11    1    1    2    0    0 -0.47699310644E-03 -0.21564953447E-01  0.28497327514E-01  0.35744000000E-01  0.51099999109E-03 0. -1.
       11    1    1    2    0    0  0.47699310644E-03  0.21564953447E-01 -0.28497327514E-01  0.35744000000E-01  0.51099999109E-03 0.  1.
</event>
<event>
 4   0  0.3028200E+07  0.9118800E+02  0.7546771E-02  0.1180000E+00
      -11   -1    0    0    0    0  0.00000000000E+00  0.00000000000E+00  0.35740347158E-01  0.35744000000E-01  0.51099999109E-03 0.  1.
       11   -1    0    0    0    0 -0.00000000000E+00 -0.00000000000E+00 -0.35740347158E-01  0.35744000000E-01  0.51099999109E-03 0.  1.
      -11    1    1    2    0    0 -0.15420595531E-02 -0.16112557956E-01  0.31865026965E-01  0.35744000000E-01  0.51099999109E-03 0.  1.
       11    1    1    2    0    0  0.15420595531E-02  0.16112557956E-01 -0.31865026965E-01  0.35744000000E-01  0.51099999109E-03 0.  1.
</event>
<event>
 4   0  0.3028200E+07  0.9118800E+02  0.7546771E-02  0.1180000E+00
      -11   -1    0    0    0    0  0.00000000000E+00  0.00000000000E+00  0.35740347158E-01  0.35744000000E-01  0.51099999109E-03 0.  1.
       11   -1    0    0    0    0 -0.00000000000E+00 -0.00000000000E+00 -0.35740347158E-01  0.35744000000E-01  0.51099999109E-03 0. -1.
      -11    1    1    2    0    0  0.43938213035E-02  0.11524111716E-01  0.33544919116E-01  0.35744000000E-01  0.51099999109E-03 0.  1.
       11    1    1    2    0    0 -0.43938213035E-02 -0.11524111716E-01 -0.33544919116E-01  0.35744000000E-01  0.51099999109E-03 0. -1.
</event>
<event>
 4   0  0.3028200E+07  0.9118800E+02  0.7546771E-02  0.1180000E+00
      -11   -1    0    0    0    0  0.00000000000E+00  0.00000000000E+00  0.35740347158E-01  0.35744000000E-01  0.51099999109E-03 0. -1.
       11   -1    0    0    0    0 -0.00000000000E+00 -0.00000000000E+00 -0.35740347158E-01  0.35744000000E-01  0.51099999109E-03 0. -1.
      -11    1    1    2    0    0  0.30134828284E-02  0.12023658210E-01  0.33521977559E-01  0.35744000000E-01  0.51099999109E-03 0. -1.
       11    1    1    2    0    0 -0.30134828284E-02 -0.12023658210E-01 -0.33521977559E-01  0.35744000000E-01  0.51099999109E-03 0. -1.
</event>
<event>
 4   0  0.3028200E+07  0.9118800E+02  0.7546771E-02  0.1180000E+00
      -11   -1    0    0    0    0  0.00000000000E+00  0.00000000000E+00  0.35740347158E-01  0.35744000000E-01  0.51099999109E-03 0.  1.
       11   -1    0    0    0    0 -0.00000000000E+00 -0.00000000000E+00 -0.35740347158E-01  0.35744000000E-01  0.51099999109E-03 0. -1.
      -11    1    1    2    0    0  0.38858020627E-02  0.16008012366E-01  0.31717763122E-01  0.35744000000E-01  0.51099999109E-03 0.  1.
       11    1    1    2    0    0 -0.38858020627E-02 -0.16008012366E-01 -0.31717763122E-01  0.35744000000E-01  0.51099999109E-03 0. -1.
</event>
<event>
 4   0  0.3028200E+07  0.9118800E+02  0.7546771E-02  0.1180000E+00
      -11   -1    0    0    0    0  0.00000000000E+00  0.00000000000E+00  0.35740347158E-01  0.35744000000E-01  0.51099999109E-03 0.  1.
       11   -1    0    0    0    0 -0.00000000000E+00 -0.00000000000E+00 -0.35740347158E-01  0.35744000000E-01  0.51099999109E-03 0. -1.
      -11    1    1    2    0    0  0.10927405877E-01  0.15741283684E-01  0.30169126666E-01  0.35744000000E-01  0.51099999109E-03 0.  1.
       11    1    1    2    0    0 -0.10927405877E-01 -0.15741283684E-01 -0.30169126666E-01  0.35744000000E-01  0.51099999109E-03 0. -1.
</event>
<event>
 4   0  0.3028200E+07  0.9118800E+02  0.7546771E-02  0.1180000E+00
      -11   -1    0    0    0    0  0.00000000000E+00  0.00000000000E+00  0.35740347158E-01  0.35744000000E-01  0.51099999109E-03 0.  1.
       11   -1    0    0    0    0 -0.00000000000E+00 -0.00000000000E+00 -0.35740347158E-01  0.35744000000E-01  0.51099999109E-03 0. -1.
      -11    1    1    2    0    0 -0.11365755376E-01  0.44966348960E-02  0.33585298783E-01  0.35744000000E-01  0.51099999109E-03 0.  1.
       11    1    1    2    0    0  0.11365755376E-01 -0.44966348960E-02 -0.33585298783E-01  0.35744000000E-01  0.51099999109E-03 0. -1.
</event>
<event>
 4   0  0.3028200E+07  0.9118800E+02  0.7546771E-02  0.1180000E+00
      -11   -1    0    0    0    0  0.00000000000E+00  0.00000000000E+00  0.35740347158E-01  0.35744000000E-01  0.51099999109E-03 0. -1.
       11   -1    0    0    0    0 -0.00000000000E+00 -0.00000000000E+00 -0.35740347158E-01  0.35744000000E-01  0.51099999109E-03 0. -1.
      -11    1    1    2    0    0  0.54838856161E-02 -0.10426230013E-01  0.33743045821E-01  0.35744000000E-01  0.51099999109E-03 0. -1.
       11    1    1    2    0    0 -0.54838856161E-02  0.10426230013E-01 -0.33743045821E-01  0.35744000000E-01  0.51099999109E-03 0. -1.
</event>
<event>
 4   0  0.3028200E+07  0.9118800E+02  0.7546771E-02  0.1180000E+00
      -11   -1    0    0    0    0  0.00000000000E+00  0.00000000000E+00  0.35740347158E-01  0.35744000000E-01  0.51099999109E-03 0. -1.
       11   -1    0    0    0    0 -0.00000000000E+00 -0.00000000000E+00 -0.35740347158E-01  0.35744000000E-01  0.51099999109E-03 0. -1.
      -11    1    1    2    0    0  0.13452863220E-01  0.24526307903E-02  0.33020864440E-01  0.35744000000E-01  0.51099999109E-03 0. -1.
       11    1    1    2    0    0 -0.13452863220E-01 -0.24526307903E-02 -0.33020864440E-01  0.35744000000E-01  0.51099999109E-03 0. -1.
</event>
<event>
 4   0  0.3028200E+07  0.9118800E+02  0.7546771E-02  0.1180000E+00
      -11   -1    0    0    0    0  0.00000000000E+00  0.00000000000E+00  0.35740347158E-01  0.35744000000E-01  0.51099999109E-03 0. -1.
       11   -1    0    0    0    0 -0.00000000000E+00 -0.00000000000E+00 -0.35740347158E-01  0.35744000000E-01  0.51099999109E-03 0.  1.
      -11    1    1    2    0    0 -0.15838782089E-02 -0.12686119636E-01  0.33375531657E-01  0.35744000000E-01  0.51099999109E-03 0. -1.
       11    1    1    2    0    0  0.15838782089E-02  0.12686119636E-01 -0.33375531657E-01  0.35744000000E-01  0.51099999109E-03 0.  1.
</event>
<event>
 4   0  0.3028200E+07  0.9118800E+02  0.7546771E-02  0.1180000E+00
      -11   -1    0    0    0    0  0.00000000000E+00  0.00000000000E+00  0.35740347158E-01  0.35744000000E-01  0.51099999109E-03 0. -1.
       11   -1    0    0    0    0 -0.00000000000E+00 -0.00000000000E+00 -0.35740347158E-01  0.35744000000E-01  0.51099999109E-03 0.  1.
      -11    1    1    2    0    0 -0.27528662929E-02  0.14732647774E-01  0.32446004866E-01  0.35744000000E-01  0.51099999109E-03 0. -1.
       11    1    1    2    0    0  0.27528662929E-02 -0.14732647774E-01 -0.32446004866E-01  0.35744000000E-01  0.51099999109E-03 0.  1.
</event>
<event>
 4   0  0.3028200E+07  0.9118800E+02  0.7546771E-02  0.1180000E+00
      -11   -1    0    0    0    0  0.00000000000E+00  0.00000000000E+00  0.35740347158E-01  0.35744000000E-01  0.51099999109E-03 0. -1.
       11   -1    0    0    0    0 -0.00000000000E+00 -0.00000000000E+00 -0.35740347158E-01  0.35744000000E-01  0.51099999109E-03 0.  1.
      -11    1    1    2    0    0  0.12541941729E-01  0.60426654029E-02  0.32917446856E-01  0.35744000000E-01  0.51099999109E-03 0. -1.
       11    1    1    2    0    0 -0.12541941729E-01 -0.60426654029E-02 -0.32917446856E-01  0.35744000000E-01  0.51099999109E-03 0.  1.
</event>
<event>
 4   0  0.3028200E+07  0.9118800E+02  0.7546771E-02  0.1180000E+00
      -11   -1    0    0    0    0  0.00000000000E+00  0.00000000000E+00  0.35740347158E-01  0.35744000000E-01  0.51099999109E-03 0.  1.
       11   -1    0    0    0    0 -0.00000000000E+00 -0.00000000000E+00 -0.35740347158E-01  0.35744000000E-01  0.51099999109E-03 0. -1.
      -11    1    1    2    0    0  0.11362857012E-01  0.12458919004E-01  0.31512429814E-01  0.35744000000E-01  0.51099999109E-03 0.  1.
       11    1    1    2    0    0 -0.11362857012E-01 -0.12458919004E-01 -0.31512429814E-01  0.35744000000E-01  0.51099999109E-03 0. -1.
</event>
<event>
 4   0  0.3028200E+07  0.9118800E+02  0.7546771E-02  0.1180000E+00
      -11   -1    0    0    0    0  0.00000000000E+00  0.00000000000E+00  0.35740347158E-01  0.35744000000E-01  0.51099999109E-03 0. -1.
       11   -1    0    0    0    0 -0.00000000000E+00 -0.00000000000E+00 -0.35740347158E-01  0.35744000000E-01  0.51099999109E-03 0.  1.
      -11    1    1    2    0    0 -0.10361029281E-01 -0.99074381580E-02  0.32739336530E-01  0.35744000000E-01  0.51099999109E-03 0. -1.
       11    1    1    2    0    0  0.10361029281E-01  0.99074381580E-02 -0.32739336530E-01  0.35744000000E-01  0.51099999109E-03 0.  1.
</event>
<event>
 4   0  0.3028200E+07  0.9118800E+02  0.7546771E-02  0.1180000E+00
      -11   -1    0    0    0    0  0.00000000000E+00  0.00000000000E+00  0.35740347158E-01  0.35744000000E-01  0.51099999109E-03 0.  1.
       11   -1    0    0    0    0 -0.00000000000E+00 -0.00000000000E+00 -0.35740347158E-01  0.35744000000E-01  0.51099999109E-03 0. -1.
      -11    1    1    2    0    0 -0.16818335668E-01 -0.83497180915E-02  0.30410495033E-01  0.35744000000E-01  0.51099999109E-03 0.  1.
       11    1    1    2    0    0  0.16818335668E-01  0.83497180915E-02 -0.30410495033E-01  0.35744000000E-01  0.51099999109E-03 0. -1.
</event>
<event>
 4   0  0.3028200E+07  0.9118800E+02  0.7546771E-02  0.1180000E+00
      -11   -1    0    0    0    0  0.00000000000E+00  0.00000000000E+00  0.35740347158E-01  0.35744000000E-01  0.51099999109E-03 0.  1.
       11   -1    0    0    0    0 -0.00000000000E+00 -0.00000000000E+00 -0.35740347158E-01  0.35744000000E-01  0.51099999109E-03 0.  1.
      -11    1    1    2    0    0  0.10969085471E-01  0.10141362073E-01  0.32468513274E-01  0.35744000000E-01  0.51099999109E-03 0.  1.
       11    1    1    2    0    0 -0.10969085471E-01 -0.10141362073E-01 -0.32468513274E-01  0.35744000000E-01  0.51099999109E-03 0.  1.
</event>
<event>
 4   0  0.3028200E+07  0.9118800E+02  0.7546771E-02  0.1180000E+00
      -11   -1    0    0    0    0  0.00000000000E+00  0.00000000000E+00  0.35740347158E-01  0.35744000000E-01  0.51099999109E-03 0.  1.
       11   -1    0    0    0    0 -0.00000000000E+00 -0.00000000000E+00 -0.35740347158E-01  0.35744000000E-01  0.51099999109E-03 0.  1.
      -11    1    1    2    0    0 -0.81223884499E-02  0.18440504035E-01  0.29518587903E-01  0.35744000000E-01  0.51099999109E-03 0.  1.
       11    1    1    2    0    0  0.81223884499E-02 -0.18440504035E-01 -0.29518587903E-01  0.35744000000E-01  0.51099999109E-03 0.  1.
</event>
<event>
 4   0  0.3028200E+07  0.9118800E+02  0.7546771E-02  0.1180000E+00
      -11   -1    0    0    0    0  0.00000000000E+00  0.00000000000E+00  0.35740347158E-01  0.35744000000E-01  0.51099999109E-03 0. -1.
       11   -1    0    0    0    0 -0.00000000000E+00 -0.00000000000E+00 -0.35740347158E-01  0.35744000000E-01  0.51099999109E-03 0. -1.
      -11    1    1    2    0    0  0.24770429793E-01  0.52111083148E-02  0.25231777049E-01  0.35744000000E-01  0.51099999109E-03 0. -1.
       11    1    1    2    0    0 -0.24770429793E-01 -0.52111083148E-02 -0.25231777049E-01  0.35744000000E-01  0.51099999109E-03 0. -1.
</event>
<event>
 4   0  0.3028200E+07  0.9118800E+02  0.7546771E-02  0.1180000E+00
      -11   -1    0    0    0    0  0.00000000000E+00  0.00000000000E+00  0.35740347158E-01  0.35744000000E-01  0.51099999109E-03 0. -1.
       11   -1    0    0    0    0 -0.00000000000E+00 -0.00000000000E+00 -0.35740347158E-01  0.35744000000E-01  0.51099999109E-03 0.  1.
      -11    1    1    2    0    0  0.10672172490E-01 -0.66373641809E-02  0.33457772581E-01  0.35744000000E-01  0.51099999109E-03 0. -1.
       11    1    1    2    0    0 -0.10672172490E-01  0.66373641809E-02 -0.33457772581E-01  0.35744000000E-01  0.51099999109E-03 0.  1.
</event>
<event>
 4   0  0.3028200E+07  0.9118800E+02  0.7546771E-02  0.1180000E+00
      -11   -1    0    0    0    0  0.00000000000E+00  0.00000000000E+00  0.35740347158E-01  0.35744000000E-01  0.51099999109E-03 0. -1.
       11   -1    0    0    0    0 -0.00000000000E+00 -0.00000000000E+00 -0.35740347158E-01  0.35744000000E-01  0.51099999109E-03 0.  1.
      -11    1    1    2    0    0  0.11289531227E-01  0.12065140652E-01  0.31691501711E-01  0.35744000000E-01  0.51099999109E-03 0. -1.
       11    1    1    2    0    0 -0.11289531227E-01 -0.12065140652E-01 -0.31691501711E-01  0.35744000000E-01  0.51099999109E-03 0.  1.
</event>
<event>
 4   0  0.3028200E+07  0.9118800E+02  0.7546771E-02  0.1180000E+00
      -11   -1    0    0    0    0  0.00000000000E+00  0.00000000000E+00  0.35740347158E-01  0.35744000000E-01  0.51099999109E-03 0.  1.
       11   -1    0    0    0    0 -0.00000000000E+00 -0.00000000000E+00 -0.35740347158E-01  0.35744000000E-01  0.51099999109E-03 0.  1.
      -11    1    1    2    0    0  0.10566160493E-01 -0.77453954288E-02  0.33252631732E-01  0.35744000000E-01  0.51099999109E-03 0.  1.
       11    1    1    2    0    0 -0.10566160493E-01  0.77453954288E-02 -0.33252631732E-01  0.35744000000E-01  0.51099999109E-03 0.  1.
</event>
<event>
 4   0  0.3028200E+07  0.9118800E+02  0.7546771E-02  0.1180000E+00
      -11   -1    0    0    0    0  0.00000000000E+00  0.00000000000E+00  0.35740347158E-01  0.35744000000E-01  0.51099999109E-03 0. -1.
       11   -1    0    0    0    0 -0.00000000000E+00 -0.00000000000E+00 -0.35740347158E-01  0.35744000000E-01  0.51099999109E-03 0.  1.
      -11    1    1    2    0    0  0.67848571281E-02 -0.96626845167E-02  0.33733820665E-01  0.35744000000E-01  0.51099999109E-03 0. -1.
       11    1    1    2    0    0 -0.67848571281E-02  0.96626845167E-02 -0.33733820665E-01  0.35744000000E-01  0.51099999109E-03 0.  1.
</event>
<event>
 4   0  0.3028200E+07  0.9118800E+02  0.7546771E-02  0.1180000E+00
      -11   -1    0    0    0    0  0.00000000000E+00  0.00000000000E+00  0.35740347158E-01  0.35744000000E-01  0.51099999109E-03 0.  1.
       11   -1    0    0    0    0 -0.00000000000E+00 -0.00000000000E+00 -0.35740347158E-01  0.35744000000E-01  0.51099999109E-03 0.  1.
      -11    1    1    2    0    0 -0.10441968728E-01 -0.93933360573E-02  0.32864919623E-01  0.35744000000E-01  0.51099999109E-03 0.  1.
       11    1    1    2    0    0  0.10441968728E-01  0.93933360573E-02 -0.32864919623E-01  0.35744000000E-01  0.51099999109E-03 0.  1.
</event>
<event>
 4   0  0.3028200E+07  0.9118800E+02  0.7546771E-02  0.1180000E+00
      -11   -1    0    0    0    0  0.00000000000E+00  0.00000000000E+00  0.35740347158E-01  0.35744000000E-01  0.51099999109E-03 0. -1.
       11   -1    0    0    0    0 -0.00000000000E+00 -0.00000000000E+00 -0.35740347158E-01  0.35744000000E-01  0.51099999109E-03 0. -1.
      -11    1    1    2    0    0 -0.29827968301E-02 -0.11861503430E-01  0.33582436994E-01  0.35744000000E-01  0.51099999109E-03 0. -1.
       11    1    1    2    0    0  0.29827968301E-02  0.11861503430E-01 -0.33582436994E-01  0.35744000000E-01  0.51099999109E-03 0. -1.
</event>
<event>
 4   0  0.3028200E+07  0.9118800E+02  0.7546771E-02  0.1180000E+00
      -11   -1    0    0    0    0  0.00000000000E+00  0.00000000000E+00  0.35740347158E-01  0.35744000000E-01  0.51099999109E-03 0. -1.
       11   -1    0    0    0    0 -0.00000000000E+00 -0.00000000000E+00 -0.35740347158E-01  0.35744000000E-01  0.51099999109E-03 0. -1.
      -11    1    1    2    0    0  0.12090555091E-01  0.97202260228E-02  0.32197951778E-01  0.35744000000E-01  0.51099999109E-03 0. -1.
       11    1    1    2    0    0 -0.12090555091E-01 -0.97202260228E-02 -0.32197951778E-01  0.35744000000E-01  0.51099999109E-03 0. -1.
</event>
<event>
 4   0  0.3028200E+07  0.9118800E+02  0.7546771E-02  0.1180000E+00
      -11   -1    0    0    0    0  0.00000000000E+00  0.00000000000E+00  0.35740347158E-01  0.35744000000E-01  0.51099999109E-03 0.  1.
       11   -1    0    0    0    0 -0.00000000000E+00 -0.00000000000E+00 -0.35740347158E-01  0.35744000000E-01  0.51099999109E-03 0.  1.
      -11    1    1    2    0    0  0.29962618790E-02 -0.14311041788E-01  0.32612710907E-01  0.35744000000E-01  0.51099999109E-03 0.  1.
       11    1    1    2    0    0 -0.29962618790E-02  0.14311041788E-01 -0.32612710907E-01  0.35744000000E-01  0.51099999109E-03 0.  1.
</event>
<event>
 4   0  0.3028200E+07  0.9118800E+02  0.7546771E-02  0.1180000E+00
      -11   -1    0    0    0    0  0.00000000000E+00  0.00000000000E+00  0.35740347158E-01  0.35744000000E-01  0.51099999109E-03 0.  1.
       11   -1    0    0    0    0 -0.00000000000E+00 -0.00000000000E+00 -0.35740347158E-01  0.35744000000E-01  0.51099999109E-03 0.  1.
      -11    1    1    2    0    0 -0.19537042708E-01 -0.14706838260E-01  0.26065020346E-01  0.35744000000E-01  0.51099999109E-03 0.  1.
       11    1    1    2    0    0  0.19537042708E-01  0.14706838260E-01 -0.26065020346E-01  0.35744000000E-01  0.51099999109E-03 0.  1.
</event>
<event>
 4   0  0.3028200E+07  0.9118800E+02  0.7546771E-02  0.1180000E+00
      -11   -1    0    0    0    0  0.00000000000E+00  0.00000000000E+00  0.35740347158E-01  0.35744000000E-01  0.51099999109E-03 0.  1.
       11   -1    0    0    0    0 -0.00000000000E+00 -0.00000000000E+00 -0.35740347158E-01  0.35744000000E-01  0.51099999109E-03 0. -1.
      -11    1    1    2    0    0 -0.11916358753E-01  0.78634917800E-02  0.32764894416E-01  0.35744000000E-01  0.51099999109E-03 0.  1.
       11    1    1    2    0    0  0.11916358753E-01 -0.78634917800E-02 -0.32764894416E-01  0.35744000000E-01  0.51099999109E-03 0. -1.
</event>
<event>
 4   0  0.3028200E+07  0.9118800E+02  0.7546771E-02  0.1180000E+00
      -11   -1    0    0    0    0  0.00000000000E+00  0.00000000000E+00  0.35740347158E-01  0.35744000000E-01  0.51099999109E-03 0.  1.
       11   -1    0    0    0    0 -0.00000000000E+00 -0.00000000000E+00 -0.35740347158E-01  0.35744000000E-01  0.51099999109E-03 0.  1.
      -11    1    1    2    0    0  0.28057963334E-02  0.18629247963E-01  0.30371879137E-01  0.35744000000E-01  0.51099999109E-03 0.  1.
       11    1    1    2    0    0 -0.28057963334E-02 -0.18629247963E-01 -0.30371879137E-01  0.35744000000E-01  0.51099999109E-03 0.  1.
</event>
<event>
 4   0  0.3028200E+07  0.9118800E+02  0.7546771E-02  0.1180000E+00
      -11   -1    0    0    0    0  0.00000000000E+00  0.00000000000E+00  0.35740347158E-01  0.35744000000E-01  0.51099999109E-03 0. -1.
       11   -1    0    0    0    0 -0.00000000000E+00 -0.00000000000E+00 -0.35740347158E-01  0.35744000000E-01  0.51099999109E-03 0. -1.
      -11    1    1    2    0    0  0.46929091745E-02 -0.10888451716E-01  0.33716325982E-01  0.35744000000E-01  0.51099999109E-03 0. -1.
       11    1    1    2    0    0 -0.46929091745E-02  0.10888451716E-01 -0.33716325982E-01  0.35744000000E-01  0.51099999109E-03 0. -1.
</event>
<event>
 4   0  0.3028200E+07  0.9118800E+02  0.7546771E-02  0.1180000E+00
      -11   -1    0    0    0    0  0.00000000000E+00  0.00000000000E+00  0.35740347158E-01  0.35744000000E-01  0.51099999109E-03 0. -1.
       11   -1    0    0    0    0 -0.00000000000E+00 -0.00000000000E+00 -0.35740347158E-01  0.35744000000E-01  0.51099999109E-03 0. -1.
      -11    1    1    2    0    0  0.13581459901E-01 -0.10243232304E-01  0.31432348845E-01  0.35744000000E-01  0.51099999109E-03 0. -1.
       11    1    1    2    0    0 -0.13581459901E-01  0.10243232304E-01 -0.31432348845E-01  0.35744000000E-01  0.51099999109E-03 0. -1.
</event>
<event>
 4   0  0.3028200E+07  0.9118800E+02  0.7546771E-02  0.1180000E+00
      -11   -1    0    0    0    0  0.00000000000E+00  0.00000000000E+00  0.35740347158E-01  0.35744000000E-01  0.51099999109E-03 0.  1.
       11   -1    0    0    0    0 -0.00000000000E+00 -0.00000000000E+00 -0.35740347158E-01  0.35744000000E-01  0.51099999109E-03 0.  1.
      -11    1    1    2    0    0  0.78370426560E-02  0.11087016570E-01  0.33061022988E-01  0.35744000000E-01  0.51099999109E-03 0.  1.
       11    1    1    2    0    0 -0.78370426560E-02 -0.11087016570E-01 -0.33061022988E-01  0.35744000000E-01  0.51099999109E-03 0.  1.
</event>
<event>
 4   0  0.3028200E+07  0.9118800E+02  0.7546771E-02  0.1180000E+00
      -11   -1    0    0    0    0  0.00000000000E+00  0.00000000000E+00  0.35740347158E-01  0.35744000000E-01  0.51099999109E-03 0. -1.
       11   -1    0    0    0    0 -0.00000000000E+00 -0.00000000000E+00 -0.35740347158E-01  0.35744000000E-01  0.51099999109E-03 0. -1.
      -11    1    1    2    0    0  0.20970207854E-01 -0.46376960618E-02  0.28567719069E-01  0.35744000000E-01  0.51099999109E-03 0. -1.
       11    1    1    2    0    0 -0.20970207854E-01  0.46376960618E-02 -0.28567719069E-01  0.35744000000E-01  0.51099999109E-03 0. -1.
</event>
<event>
 4   0  0.3028200E+07  0.9118800E+02  0.7546771E-02  0.1180000E+00
      -11   -1    0    0    0    0  0.00000000000E+00  0.00000000000E+00  0.35740347158E-01  0.35744000000E-01  0.51099999109E-03 0.  1.
       11   -1    0    0    0    0 -0.00000000000E+00 -0.00000000000E+00 -0.35740347158E-01  0.35744000000E-01  0.51099999109E-03 0.  1.
      -11    1    1    2    0    0 -0.13600114879E-01  0.49454286330E-02  0.32679535277E-01  0.35744000000E-01  0.51099999109E-03 0.  1.
       11    1    1    2    0    0  0.13600114879E-01 -0.49454286330E-02 -0.32679535277E-01  0.35744000000E-01  0.51099999109E-03 0.  1.
</event>
<event>
 4   0  0.3028200E+07  0.9118800E+02  0.7546771E-02  0.1180000E+00
      -11   -1    0    0    0    0  0.00000000000E+00  0.00000000000E+00  0.35740347158E-01  0.35744000000E-01  0.51099999109E-03 0.  1.
       11   -1    0    0    0    0 -0.00000000000E+00 -0.00000000000E+00 -0.35740347158E-01  0.35744000000E-01  0.51099999109E-03 0.  1.
      -11    1    1    2    0    0  0.20589273126E-02 -0.12775501421E-01  0.33315458826E-01  0.35744000000E-01  0.51099999109E-03 0.  1.
       11    1    1    2    0    0 -0.20589273126E-02  0.12775501421E-01 -0.33315458826E-01  0.35744000000E-01  0.51099999109E-03 0.  1.
</event>
<event>
 4   0  0.3028200E+07  0.9118800E+02  0.7546771E-02  0.1180000E+00
      -11   -1    0    0    0    0  0.00000000000E+00  0.00000000000E+00  0.35740347158E-01  0.35744000000E-01  0.51099999109E-03 0.  1.
       11   -1    0    0    0    0 -0.00000000000E+00 -0.00000000000E+00 -0.35740347158E-01  0.35744000000E-01  0.51099999109E-03 0.  1.
      -11    1    1    2    0    0  0.49355579995E-02  0.13688775342E-01  0.32643990441E-01  0.35744000000E-01  0.51099999109E-03 0.  1.
       11    1    1    2    0    0 -0.49355579995E-02 -0.13688775342E-01 -0.32643990441E-01  0.35744000000E-01  0.51099999109E-03 0.  1.
</event>
<event>
 4   0  0.3028200E+07  0.9118800E+02  0.7546771E-02  0.1180000E+00
      -11   -1    0    0    0    0  0.00000000000E+00  0.00000000000E+00  0.35740347158E-01  0.35744000000E-01  0.51099999109E-03 0. -1.
       11   -1    0    0    0    0 -0.00000000000E+00 -0.00000000000E+00 -0.35740347158E-01  0.35744000000E-01  0.51099999109E-03 0.  1.
      -11    1    1    2    0    0  0.84671364655E-02  0.21038691422E-01  0.27623422640E-01  0.35744000000E-01  0.51099999109E-03 0. -1.
       11    1    1    2    0    0 -0.84671364655E-02 -0.21038691422E-01 -0.27623422640E-01  0.35744000000E-01  0.51099999109E-03 0.  1.
</event>
<event>
 4   0  0.3028200E+07  0.9118800E+02  0.7546771E-02  0.1180000E+00
      -11   -1    0    0    0    0  0.00000000000E+00  0.00000000000E+00  0.35740347158E-01  0.35744000000E-01  0.51099999109E-03 0. -1.
       11   -1    0    0    0    0 -0.00000000000E+00 -0.00000000000E+00 -0.35740347158E-01  0.35744000000E-01  0.51099999109E-03 0. -1.
      -11    1    1    2    0    0 -0.12924416245E-01 -0.55254780932E-03  0.33317061255E-01  0.35744000000E-01  0.51099999109E-03 0. -1.
       11    1    1    2    0    0  0.12924416245E-01  0.55254780932E-03 -0.33317061255E-01  0.35744000000E-01  0.51099999109E-03 0. -1.
</event>
<event>
 4   0  0.3028200E+07  0.9118800E+02  0.7546771E-02  0.1180000E+00
      -11   -1    0    0    0    0  0.00000000000E+00  0.00000000000E+00  0.35740347158E-01  0.35744000000E-01  0.51099999109E-03 0.  1.
       11   -1    0    0    0    0 -0.00000000000E+00 -0.00000000000E+00 -0.35740347158E-01  0.35744000000E-01  0.51099999109E-03 0. -1.
      -11    1    1    2    0    0  0.14592252384E-01 -0.53569956078E-03  0.32621336750E-01  0.35744000000E-01  0.51099999109E-03 0.  1.
       11    1    1    2    0    0 -0.14592252384E-01  0.53569956078E-03 -0.32621336750E-01  0.35744000000E-01  0.51099999109E-03 0. -1.
</event>
<event>
 4   0  0.3028200E+07  0.9118800E+02  0.7546771E-02  0.1180000E+00
      -11   -1    0    0    0    0  0.00000000000E+00  0.00000000000E+00  0.35740347158E-01  0.35744000000E-01  0.51099999109E-03 0. -1.
       11   -1    0    0    0    0 -0.00000000000E+00 -0.00000000000E+00 -0.35740347158E-01  0.35744000000E-01  0.51099999109E-03 0. -1.
      -11    1    1    2    0    0  0.11290086241E-01  0.57627595337E-02  0.33417016178E-01  0.35744000000E-01  0.51099999109E-03 0. -1.
       11    1    1    2    0    0 -0.11290086241E-01 -0.57627595337E-02 -0.33417016178E-01  0.35744000000E-01  0.51099999109E-03 0. -1.
</event>
<event>
 4   0  0.3028200E+07  0.9118800E+02  0.7546771E-02  0.1180000E+00
      -11   -1    0    0    0    0  0.00000000000E+00  0.00000000000E+00  0.35740347158E-01  0.35744000000E-01  0.51099999109E-03 0. -1.
       11   -1    0    0    0    0 -0.00000000000E+00 -0.00000000000E+00 -0.35740347158E-01  0.35744000000E-01  0.51099999109E-03 0.  1.
      -11    1    1    2    0    0 -0.47976296989E-02  0.12984444897E-01  0.32950862735E-01  0.35744000000E-01  0.51099999109E-03 0. -1.
       11    1    1    2    0    0  0.47976296989E-02 -0.12984444897E-01 -0.32950862735E-01  0.35744000000E-01  0.51099999109E-03 0.  1.
</event>
<event>
 4   0  0.3028200E+07  0.9118800E+02  0.7546771E-02  0.1180000E+00
      -11   -1    0    0    0    0  0.00000000000E+00  0.00000000000E+00  0.35740347158E-01  0.35744000000E-01  0.51099999109E-03 0.  1.
       11   -1    0    0    0    0 -0.00000000000E+00 -0.00000000000E+00 -0.35740347158E-01  0.35744000000E-01  0.51099999109E-03 0.  1.
      -11    1    1    2    0    0  0.12272460445E-01  0.18189436719E-02  0.33517914219E-01  0.35744000000E-01  0.51099999109E-03 0.  1.
       11    1    1    2    0    0 -0.12272460445E-01 -0.18189436719E-02 -0.33517914219E-01  0.35744000000E-01  0.51099999109E-03 0.  1.
</event>
<event>
 4   0  0.3028200E+07  0.9118800E+02  0.7546771E-02  0.1180000E+00
      -11   -1    0    0    0    0  0.00000000000E+00  0.00000000000E+00  0.35740347158E-01  0.35744000000E-01  0.51099999109E-03 0. -1.
       11   -1    0    0    0    0 -0.00000000000E+00 -0.00000000000E+00 -0.35740347158E-01  0.35744000000E-01  0.51099999109E-03 0.  1.
      -11    1    1    2    0    0 -0.13912611465E-01  0.71569684702E-02  0.32133930036E-01  0.35744000000E-01  0.51099999109E-03 0. -1.
       11    1    1    2    0    0  0.13912611465E-01 -0.71569684702E-02 -0.32133930036E-01  0.35744000000E-01  0.51099999109E-03 0.  1.
</event>
<event>
 4   0  0.3028200E+07  0.9118800E+02  0.7546771E-02  0.1180000E+00
      -11   -1    0    0    0    0  0.00000000000E+00  0.00000000000E+00  0.35740347158E-01  0.35744000000E-01  0.51099999109E-03 0.  1.
       11   -1    0    0    0    0 -0.00000000000E+00 -0.00000000000E+00 -0.35740347158E-01  0.35744000000E-01  0.51099999109E-03 0. -1.
      -11    1    1    2    0    0 -0.92289017546E-02  0.71599005084E-02  0.33777738410E-01  0.35744000000E-01  0.51099999109E-03 0.  1.
       11    1    1    2    0    0  0.92289017546E-02 -0.71599005084E-02 -0.33777738410E-01  0.35744000000E-01  0.51099999109E-03 0. -1.
</event>
<event>
 4   0  0.3028200E+07  0.9118800E+02  0.7546771E-02  0.1180000E+00
      -11   -1    0    0    0    0  0.00000000000E+00  0.00000000000E+00  0.35740347158E-01  0.35744000000E-01  0.51099999109E-03 0. -1.
       11   -1    0    0    0    0 -0.00000000000E+00 -0.00000000000E+00 -0.35740347158E-01  0.35744000000E-01  0.51099999109E-03 0.  1.
      -11    1    1    2    0    0  0.13845163467E-01  0.11866978622E-01  0.30738553674E-01  0.35744000000E-01  0.51099999109E-03 0. -1.
       11    1    1    2    0    0 -0.13845163467E-01 -0.11866978622E-01 -0.30738553674E-01  0.35744000000E-01  0.51099999109E-03 0.  1.
</event>
<event>
 4   0  0.3028200E+07  0.9118800E+02  0.7546771E-02  0.1180000E+00
      -11   -1    0    0    0    0  0.00000000000E+00  0.00000000000E+00  0.35740347158E-01  0.35744000000E-01  0.51099999109E-03 0.  1.
       11   -1    0    0    0    0 -0.00000000000E+00 -0.00000000000E+00 -0.35740347158E-01  0.35744000000E-01  0.51099999109E-03 0. -1.
      -11    1    1    2    0    0  0.18344347425E-01 -0.89727842458E-02  0.29331663360E-01  0.35744000000E-01  0.51099999109E-03 0.  1.
       11    1    1    2    0    0 -0.18344347425E-01  0.89727842458E-02 -0.29331663360E-01  0.35744000000E-01  0.51099999109E-03 0. -1.
</event>
<event>
 4   0  0.3028200E+07  0.9118800E+02  0.7546771E-02  0.1180000E+00
      -11   -1    0    0    0    0  0.00000000000E+00  0.00000000000E+00  0.35740347158E-01  0.35744000000E-01  0.51099999109E-03 0. -1.
       11   -1    0    0    0    0 -0.00000000000E+00 -0.00000000000E+00 -0.35740347158E-01  0.35744000000E-01  0.51099999109E-03 0. -1.
      -11    1    1    2    0    0  0.40869183342E-02  0.12005972020E-01  0.33414460184E-01  0.35744000000E-01  0.51099999109E-03 0. -1.
       11    1    1    2    0    0 -0.40869183342E-02 -0.12005972020E-01 -0.33414460184E-01  0.35744000000E-01  0.51099999109E-03 0. -1.
</event>
<event>
 4   0  0.3028200E+07  0.9118800E+02  0.7546771E-02  0.1180000E+00
      -11   -1    0    0    0    0  0.00000000000E+00  0.00000000000E+00  0.35740347158E-01  0.35744000000E-01  0.51099999109E-03 0. -1.
       11   -1    0    0    0    0 -0.00000000000E+00 -0.00000000000E+00 -0.35740347158E-01  0.35744000000E-01  0.51099999109E-03 0.  1.
      -11    1    1    2    0    0 -0.84735939501E-02  0.89103524936E-02  0.33558549418E-01  0.35744000000E-01  0.51099999109E-03 0. -1.
       11    1    1    2    0    0  0.84735939501E-02 -0.89103524936E-02 -0.33558549418E-01  0.35744000000E-01  0.51099999109E-03 0.  1.
</event>
<event>
 4   0  0.3028200E+07  0.9118800E+02  0.7546771E-02  0.1180000E+00
      -11   -1    0    0    0    0  0.00000000000E+00  0.00000000000E+00  0.35740347158E-01  0.35744000000E-01  0.51099999109E-03 0. -1.
       11   -1    0    0    0    0 -0.00000000000E+00 -0.00000000000E+00 -0.35740347158E-01  0.35744000000E-01  0.51099999109E-03 0. -1.
      -11    1    1    2    0    0 -0.17949667182E-01 -0.22683003526E-02  0.30822664982E-01  0.35744000000E-01  0.51099999109E-03 0. -1.
       11    1    1    2    0    0  0.17949667182E-01  0.22683003526E-02 -0.30822664982E-01  0.35744000000E-01  0.51099999109E-03 0. -1.
</event>
<event>
 4   0  0.3028200E+07  0.9118800E+02  0.7546771E-02  0.1180000E+00
      -11   -1    0    0    0    0  0.00000000000E+00  0.00000000000E+00  0.35740347158E-01  0.35744000000E-01  0.51099999109E-03 0.  1.
       11   -1    0    0    0    0 -0.00000000000E+00 -0.00000000000E+00 -0.35740347158E-01  0.35744000000E-01  0.51099999109E-03 0. -1.
      -11    1    1    2    0    0 -0.11341112284E-01 -0.34205844187E-02  0.33720189641E-01  0.35744000000E-01  0.51099999109E-03 0.  1.
       11    1    1    2    0    0  0.11341112284E-01  0.34205844187E-02 -0.33720189641E-01  0.35744000000E-01  0.51099999109E-03 0. -1.
</event>
<event>
 4   0  0.3028200E+07  0.9118800E+02  0.7546771E-02  0.1180000E+00
      -11   -1    0    0    0    0  0.00000000000E+00  0.00000000000E+00  0.35740347158E-01  0.35744000000E-01  0.51099999109E-03 0. -1.
       11   -1    0    0    0    0 -0.00000000000E+00 -0.00000000000E+00 -0.35740347158E-01  0.35744000000E-01  0.51099999109E-03 0. -1.
      -11    1    1    2    0    0 -0.24323670348E-03  0.12222321855E-01  0.33584640826E-01  0.35744000000E-01  0.51099999109E-03 0. -1.
       11    1    1    2    0    0  0.24323670348E-03 -0.12222321855E-01 -0.33584640826E-01  0.35744000000E-01  0.51099999109E-03 0. -1.
</event>
<event>
 4   0  0.3028200E+07  0.9118800E+02  0.7546771E-02  0.1180000E+00
      -11   -1    0    0    0    0  0.00000000000E+00  0.00000000000E+00  0.35740347158E-01  0.35744000000E-01  0.51099999109E-03 0. -1.
       11   -1    0    0    0    0 -0.00000000000E+00 -0.00000000000E+00 -0.35740347158E-01  0.35744000000E-01  0.51099999109E-03 0. -1.
      -11    1    1    2    0    0  0.31781663735E-02  0.18433268689E-01  0.30454659396E-01  0.35744000000E-01  0.51099999109E-03 0. -1.
       11    1    1    2    0    0 -0.31781663735E-02 -0.18433268689E-01 -0.30454659396E-01  0.35744000000E-01  0.51099999109E-03 0. -1.
</event>
<event>
 4   0  0.3028200E+07  0.9118800E+02  0.7546771E-02  0.1180000E+00
      -11   -1    0    0    0    0  0.00000000000E+00  0.00000000000E+00  0.35740347158E-01  0.35744000000E-01  0.51099999109E-03 0. -1.
       11   -1    0    0    0    0 -0.00000000000E+00 -0.00000000000E+00 -0.35740347158E-01  0.35744000000E-01  0.51099999109E-03 0.  1.
      -11    1    1    2    0    0 -0.85994011784E-02  0.78703975112E-02  0.33785789282E-01  0.35744000000E-01  0.51099999109E-03 0. -1.
       11    1    1    2    0    0  0.85994011784E-02 -0.78703975112E-02 -0.33785789282E-01  0.35744000000E-01  0.51099999109E-03 0.  1.
</event>
<event>
 4   0  0.3028200E+07  0.9118800E+02  0.7546771E-02  0.1180000E+00
      -11   -1    0    0    0    0  0.00000000000E+00  0.00000000000E+00  0.35740347158E-01  0.35744000000E-01  0.51099999109E-03 0.  1.
       11   -1    0    0    0    0 -0.00000000000E+00 -0.00000000000E+00 -0.35740347158E-01  0.35744000000E-01  0.51099999109E-03 0.  1.
      -11    1    1    2    0    0  0.13990938668E-01  0.50385986846E-02  0.32499824207E-01  0.35744000000E-01  0.51099999109E-03 0.  1.
       11    1    1    2    0    0 -0.13990938668E-01 -0.50385986846E-02 -0.32499824207E-01  0.35744000000E-01  0.51099999109E-03 0.  1.
</event>
<event>
 4   0  0.3028200E+07  0.9118800E+02  0.7546771E-02  0.1180000E+00
      -11   -1    0    0    0    0  0.00000000000E+00  0.00000000000E+00  0.35740347158E-01  0.35744000000E-01  0.51099999109E-03 0.  1.
       11   -1    0    0    0    0 -0.00000000000E+00 -0.00000000000E+00 -0.35740347158E-01  0.35744000000E-01  0.51099999109E-03 0.  1.
      -11    1    1    2    0    0 -0.50410207253E-02 -0.12498477186E-01  0.33102093485E-01  0.35744000000E-01  0.51099999109E-03 0.  1.
       11    1    1    2    0    0  0.50410207253E-02  0.12498477186E-01 -0.33102093485E-01  0.35744000000E-01  0.51099999109E-03 0.  1.
</event>
<event>
 4   0  0.3028200E+07  0.9118800E+02  0.7546771E-02  0.1180000E+00
      -11   -1    0    0    0    0  0.00000000000E+00  0.00000000000E+00  0.35740347158E-01  0.35744000000E-01  0.51099999109E-03 0.  1.
       11   -1    0    0    0    0 -0.00000000000E+00 -0.00000000000E+00 -0.35740347158E-01  0.35744000000E-01  0.51099999109E-03 0. -1.
      -11    1    1    2    0    0  0.11998263364E-01 -0.16165637876E-01  0.29531106368E-01  0.35744000000E-01  0.51099999109E-03 0.  1.
       11    1    1    2    0    0 -0.11998263364E-01  0.16165637876E-01 -0.29531106368E-01  0.35744000000E-01  0.51099999109E-03 0. -1.
</event>
<event>
 4   0  0.3028200E+07  0.9118800E+02  0.7546771E-02  0.1180000E+00
      -11   -1    0    0    0    0  0.00000000000E+00  0.00000000000E+00  0.35740347158E-01  0.35744000000E-01  0.51099999109E-03 0.  1.
       11   -1    0    0    0    0 -0.00000000000E+00 -0.00000000000E+00 -0.35740347158E-01  0.35744000000E-01  0.51099999109E-03 0.  1.
      -11    1    1    2    0    0  0.93958881979E-02  0.69284491384E-02  0.33779968806E-01  0.35744000000E-01  0.51099999109E-03 0.  1.
       11    1    1    2    0    0 -0.93958881979E-02 -0.69284491384E-02 -0.33779968806E-01  0.35744000000E-01  0.51099999109E-03 0.  1.
</event>
<event>
 4   0  0.3028200E+07  0.9118800E+02  0.7546771E-02  0.1180000E+00
      -11   -1    0    0    0    0  0.00000000000E+00  0.00000000000E+00  0.35740347158E-01  0.35744000000E-01  0.51099999109E-03 0. -1.
       11   -1    0    0    0    0 -0.00000000000E+00 -0.00000000000E+00 -0.35740347158E-01  0.35744000000E-01  0.51099999109E-03 0. -1.
      -11    1    1    2    0    0 -0.12765747826E-01  0.11054166554E-01  0.31499420617E-01  0.35744000000E-01  0.51099999109E-03 0. -1.
       11    1    1    2    0    0  0.12765747826E-01 -0.11054166554E-01 -0.31499420617E-01  0.35744000000E-01  0.51099999109E-03 0. -1.
</event>
<event>
 4   0  0.3028200E+07  0.9118800E+02  0.7546771E-02  0.1180000E+00
      -11   -1    0    0    0    0  0.00000000000E+00  0.00000000000E+00  0.35740347158E-01  0.35744000000E-01  0.51099999109E-03 0. -1.
       11   -1    0    0    0    0 -0.00000000000E+00 -0.00000000000E+00 -0.35740347158E-01  0.35744000000E-01  0.51099999109E-03 0. -1.
      -11    1    1    2    0    0  0.17829636650E-01 -0.48182360963E-02  0.30598383501E-01  0.35744000000E-01  0.51099999109E-03 0. -1.
       11    1    1    2    0    0 -0.17829636650E-01  0.48182360963E-02 -0.30598383501E-01  0.35744000000E-01  0.51099999109E-03 0. -1.
</event>
<event>
 4   0  0.3028200E+07  0.9118800E+02  0.7546771E-02  0.1180000E+00
      -11   -1    0    0    0    0  0.00000000000E+00  0.00000000000E+00  0.35740347158E-01  0.35744000000E-01  0.51099999109E-03 0.  1.
       11   -1    0    0    0    0 -0.00000000000E+00 -0.00000000000E+00 -0.35740347158E-01  0.35744000000E-01  0.51099999109E-03 0. -1.
      -11    1    1    2    0    0 -0.14895258409E-01 -0.17892830809E-01  0.27117343115E-01  0.35744000000E-01  0.51099999109E-03 0.  1.
       11    1    1    2    0    0  0.14895258409E-01  0.17892830809E-01 -0.27117343115E-01  0.35744000000E-01  0.51099999109E-03 0. -1.
</event>
<event>
 4   0  0.3028200E+07  0.9118800E+02  0.7546771E-02  0.1180000E+00
      -11   -1    0    0    0    0  0.00000000000E+00  0.00000000000E+00  0.35740347158E-01  0.35744000000E-01  0.51099999109E-03 0. -1.
       11   -1    0    0    0    0 -0.00000000000E+00 -0.00000000000E+00 -0.35740347158E-01  0.35744000000E-01  0.51099999109E-03 0.  1.
      -11    1    1    2    0    0  0.49602946564E-02 -0.12211309816E-01  0.33221255312E-01  0.35744000000E-01  0.51099999109E-03 0. -1.
       11    1    1    2    0    0 -0.49602946564E-02  0.12211309816E-01 -0.33221255312E-01  0.35744000000E-01  0.51099999109E-03 0.  1.
</event>
<event>
 4   0  0.3028200E+07  0.9118800E+02  0.7546771E-02  0.1180000E+00
      -11   -1    0    0    0    0  0.00000000000E+00  0.00000000000E+00  0.35740347158E-01  0.35744000000E-01  0.51099999109E-03 0.  1.
       11   -1    0    0    0    0 -0.00000000000E+00 -0.00000000000E+00 -0.35740347158E-01  0.35744000000E-01  0.51099999109E-03 0. -1.
      -11    1    1    2    0    0  0.10379628602E-01  0.59152181023E-02  0.33684505635E-01  0.35744000000E-01  0.51099999109E-03 0.  1.
       11    1    1    2    0    0 -0.10379628602E-01 -0.59152181023E-02 -0.33684505635E-01  0.35744000000E-01  0.51099999109E-03 0. -1.
</event>
<event>
 4   0  0.3028200E+07  0.9118800E+02  0.7546771E-02  0.1180000E+00
      -11   -1    0    0    0    0  0.00000000000E+00  0.00000000000E+00  0.35740347158E-01  0.35744000000E-01  0.51099999109E-03 0. -1.
       11   -1    0    0    0    0 -0.00000000000E+00 -0.00000000000E+00 -0.35740347158E-01  0.35744000000E-01  0.51099999109E-03 0. -1.
      -11    1    1    2    0    0 -0.11353947928E-01  0.40715480863E-02  0.33643465601E-01  0.35744000000E-01  0.51099999109E-03 0. -1.
       11    1    1    2    0    0  0.11353947928E-01 -0.40715480863E-02 -0.33643465601E-01  0.35744000000E-01  0.51099999109E-03 0. -1.
</event>
<event>
 4   0  0.3028200E+07  0.9118800E+02  0.7546771E-02  0.1180000E+00
      -11   -1    0    0    0    0  0.00000000000E+00  0.00000000000E+00  0.35740347158E-01  0.35744000000E-01  0.51099999109E-03 0.  1.
       11   -1    0    0    0    0 -0.00000000000E+00 -0.00000000000E+00 -0.35740347158E-01  0.35744000000E-01  0.51099999109E-03 0.  1.
      -11    1    1    2    0    0 -0.13970004784E-01  0.11848036046E-01  0.30689337289E-01  0.35744000000E-01  0.51099999109E-03 0.  1.
       11    1    1    2    0    0  0.13970004784E-01 -0.11848036046E-01 -0.30689337289E-01  0.35744000000E-01  0.51099999109E-03 0.  1.
</event>
<event>
 4   0  0.3028200E+07  0.9118800E+02  0.7546771E-02  0.1180000E+00
      -11   -1    0    0    0    0  0.00000000000E+00  0.00000000000E+00  0.35740347158E-01  0.35744000000E-01  0.51099999109E-03 0. -1.
       11   -1    0    0    0    0 -0.00000000000E+00 -0.00000000000E+00 -0.35740347158E-01  0.35744000000E-01  0.51099999109E-03 0.  1.
      -11    1    1    2    0    0  0.67367606654E-02 -0.13130496521E-01  0.32551167903E-01  0.35744000000E-01  0.51099999109E-03 0. -1.
       11    1    1    2    0    0 -0.67367606654E-02  0.13130496521E-01 -0.32551167903E-01  0.35744000000E-01  0.51099999109E-03 0.  1.
</event>
<event>
 4   0  0.3028200E+07  0.9118800E+02  0.7546771E-02  0.1180000E+00
      -11   -1    0    0    0    0  0.00000000000E+00  0.00000000000E+00  0.35740347158E-01  0.35744000000E-01  0.51099999109E-03 0.  1.
       11   -1    0    0    0    0 -0.00000000000E+00 -0.00000000000E+00 -0.35740347158E-01  0.35744000000E-01  0.51099999109E-03 0. -1.
      -11    1    1    2    0    0  0.12344755637E-01  0.76313769451E-02  0.32661009005E-01  0.35744000000E-01  0.51099999109E-03 0.  1.
       11    1    1    2    0    0 -0.12344755637E-01 -0.76313769451E-02 -0.32661009005E-01  0.35744000000E-01  0.51099999109E-03 0. -1.
</event>
<event>
 4   0  0.3028200E+07  0.9118800E+02  0.7546771E-02  0.1180000E+00
      -11   -1    0    0    0    0  0.00000000000E+00  0.00000000000E+00  0.35740347158E-01  0.35744000000E-01  0.51099999109E-03 0. -1.
       11   -1    0    0    0    0 -0.00000000000E+00 -0.00000000000E+00 -0.35740347158E-01  0.35744000000E-01  0.51099999109E-03 0.  1.
      -11    1    1    2    0    0 -0.17414470010E-02 -0.13176220412E-01  0.33177205925E-01  0.35744000000E-01  0.51099999109E-03 0. -1.
       11    1    1    2    0    0  0.17414470010E-02  0.13176220412E-01 -0.33177205925E-01  0.35744000000E-01  0.51099999109E-03 0.  1.
</event>
<event>
 4   0  0.3028200E+07  0.9118800E+02  0.7546771E-02  0.1180000E+00
      -11   -1    0    0    0    0  0.00000000000E+00  0.00000000000E+00  0.35740347158E-01  0.35744000000E-01  0.51099999109E-03 0.  1.
       11   -1    0    0    0    0 -0.00000000000E+00 -0.00000000000E+00 -0.35740347158E-01  0.35744000000E-01  0.51099999109E-03 0.  1.
      -11    1    1    2    0    0 -0.39701468733E-02 -0.12731789089E-01  0.33158888634E-01  0.35744000000E-01  0.51099999109E-03 0.  1.
       11    1    1    2    0    0  0.39701468733E-02  0.12731789089E-01 -0.33158888634E-01  0.35744000000E-01  0.51099999109E-03 0.  1.
</event>
<event>
 4   0  0.3028200E+07  0.9118800E+02  0.7546771E-02  0.1180000E+00
      -11   -1    0    0    0    0  0.00000000000E+00  0.00000000000E+00  0.35740347158E-01  0.35744000000E-01  0.51099999109E-03 0. -1.
       11   -1    0    0    0    0 -0.00000000000E+00 -0.00000000000E+00 -0.35740347158E-01  0.35744000000E-01  0.51099999109E-03 0. -1.
      -11    1    1    2    0    0  0.12528527114E-02  0.17447278108E-01  0.31167214532E-01  0.35744000000E-01  0.51099999109E-03 0. -1.
       11    1    1    2    0    0 -0.12528527114E-02 -0.17447278108E-01 -0.31167214532E-01  0.35744000000E-01  0.51099999109E-03 0. -1.
</event>
<event>
 4   0  0.3028200E+07  0.9118800E+02  0.7546771E-02  0.1180000E+00
      -11   -1    0    0    0    0  0.00000000000E+00  0.00000000000E+00  0.35740347158E-01  0.35744000000E-01  0.51099999109E-03 0. -1.
       11   -1    0    0    0    0 -0.00000000000E+00 -0.00000000000E+00 -0.35740347158E-01  0.35744000000E-01  0.51099999109E-03 0. -1.
      -11    1    1    2    0    0 -0.15433824675E-01 -0.11199555123E-01  0.30228123262E-01  0.35744000000E-01  0.51099999109E-03 0. -1.
       11    1    1    2    0    0  0.15433824675E-01  0.11199555123E-01 -0.30228123262E-01  0.35744000000E-01  0.51099999109E-03 0. -1.
</event>
<event>
 4   0  0.3028200E+07  0.9118800E+02  0.7546771E-02  0.1180000E+00
      -11   -1    0    0    0    0  0.00000000000E+00  0.00000000000E+00  0.35740347158E-01  0.35744000000E-01  0.51099999109E-03 0.  1.
       11   -1    0    0    0    0 -0.00000000000E+00 -0.00000000000E+00 -0.35740347158E-01  0.35744000000E-01  0.51099999109E-03 0.  1.
      -11    1    1    2    0    0 -0.89077252681E-02  0.86337244323E-02  0.33518407599E-01  0.35744000000E-01  0.51099999109E-03 0.  1.
       11    1    1    2    0    0  0.89077252681E-02 -0.86337244323E-02 -0.33518407599E-01  0.35744000000E-01  0.51099999109E-03 0.  1.
</event>
<event>
 4   0  0.3028200E+07  0.9118800E+02  0.7546771E-02  0.1180000E+00
      -11   -1    0    0    0    0  0.00000000000E+00  0.00000000000E+00  0.35740347158E-01  0.35744000000E-01  0.51099999109E-03 0. -1.
       11   -1    0    0    0    0 -0.00000000000E+00 -0.00000000000E+00 -0.35740347158E-01  0.35744000000E-01  0.51099999109E-03 0. -1.
      -11    1    1    2    0    0  0.28948165782E-02 -0.16572497679E-01  0.31533232829E-01  0.35744000000E-01  0.51099999109E-03 0. -1.
       11    1    1    2    0    0 -0.28948165782E-02  0.16572497679E-01 -0.31533232829E-01  0.35744000000E-01  0.51099999109E-03 0. -1.
</event>
<event>
 4   0  0.3028200E+07  0.9118800E+02  0.7546771E-02  0.1180000E+00
      -11   -1    0    0    0    0  0.00000000000E+00  0.00000000000E+00  0.35740347158E-01  0.35744000000E-01  0.51099999109E-03 0. -1.
       11   -1    0    0    0    0 -0.00000000000E+00 -0.00000000000E+00 -0.35740347158E-01  0.35744000000E-01  0.51099999109E-03 0. -1.
      -11    1    1    2    0    0 -0.13748701284E-01 -0.11199702274E-02  0.32971067540E-01  0.35744000000E-01  0.51099999109E-03 0. -1.
       11    1    1    2    0    0  0.13748701284E-01  0.11199702274E-02 -0.32971067540E-01  0.35744000000E-01  0.51099999109E-03 0. -1.
</event>
<event>
 4   0  0.3028200E+07  0.9118800E+02  0.7546771E-02  0.1180000E+00
      -11   -1    0    0    0    0  0.00000000000E+00  0.00000000000E+00  0.35740347158E-01  0.35744000000E-01  0.51099999109E-03 0.  1.
       11   -1    0    0    0    0 -0.00000000000E+00 -0.00000000000E+00 -0.35740347158E-01  0.35744000000E-01  0.51099999109E-03 0. -1.
      -11    1    1    2    0    0 -0.33830310560E-02 -0.13091018284E-01  0.33084025695E-01  0.35744000000E-01  0.51099999109E-03 0.  1.
       11    1    1    2    0    0  0.33830310560E-02  0.13091018284E-01 -0.33084025695E-01  0.35744000000E-01  0.51099999109E-03 0. -1.
</event>
<event>
 4   0  0.3028200E+07  0.9118800E+02  0.7546771E-02  0.1180000E+00
      -11   -1    0    0    0    0  0.00000000000E+00  0.00000000000E+00  0.35740347158E-01  0.35744000000E-01  0.51099999109E-03 0. -1.
       11   -1    0    0    0    0 -0.00000000000E+00 -0.00000000000E+00 -0.35740347158E-01  0.35744000000E-01  0.51099999109E-03 0. -1.
      -11    1    1    2    0    0  0.94406569163E-02 -0.68459612980E-02  0.33784304431E-01  0.35744000000E-01  0.51099999109E-03 0. -1.
       11    1    1    2    0    0 -0.94406569163E-02  0.68459612980E-02 -0.33784304431E-01  0.35744000000E-01  0.51099999109E-03 0. -1.
</event>
<event>
 4   0  0.3028200E+07  0.9118800E+02  0.7546771E-02  0.1180000E+00
      -11   -1    0    0    0    0  0.00000000000E+00  0.00000000000E+00  0.35740347158E-01  0.35744000000E-01  0.51099999109E-03 0. -1.
       11   -1    0    0    0    0 -0.00000000000E+00 -0.00000000000E+00 -0.35740347158E-01  0.35744000000E-01  0.51099999109E-03 0. -1.
      -11    1    1    2    0    0 -0.46170972280E-02 -0.10708286663E-01  0.33784425775E-01  0.35744000000E-01  0.51099999109E-03 0. -1.
       11    1    1    2    0    0  0.46170972280E-02  0.10708286663E-01 -0.33784425775E-01  0.35744000000E-01  0.51099999109E-03 0. -1.
</event>
<event>
 4   0  0.3028200E+07  0.9118800E+02  0.7546771E-02  0.1180000E+00
      -11   -1    0    0    0    0  0.00000000000E+00  0.00000000000E+00  0.35740347158E-01  0.35744000000E-01  0.51099999109E-03 0. -1.
       11   -1    0    0    0    0 -0.00000000000E+00 -0.00000000000E+00 -0.35740347158E-01  0.35744000000E-01  0.51099999109E-03 0. -1.
      -11    1    1    2    0    0 -0.63503893376E-02  0.15257067048E-01  0.31690170011E-01  0.35744000000E-01  0.51099999109E-03 0. -1.
       11    1    1    2    0    0  0.63503893376E-02 -0.15257067048E-01 -0.31690170011E-01  0.35744000000E-01  0.51099999109E-03 0. -1.
</event>
<event>
 4   0  0.3028200E+07  0.9118800E+02  0.7546771E-02  0.1180000E+00
      -11   -1    0    0    0    0  0.00000000000E+00  0.00000000000E+00  0.35740347158E-01  0.35744000000E-01  0.51099999109E-03 0.  1.
       11   -1    0    0    0    0 -0.00000000000E+00 -0.00000000000E+00 -0.35740347158E-01  0.35744000000E-01  0.51099999109E-03 0.  1.
      -11    1    1    2    0    0 -0.78896086724E-02  0.94331188711E-02  0.33558050575E-01  0.35744000000E-01  0.51099999109E-03 0.  1.
       11    1    1    2    0    0  0.78896086724E-02 -0.94331188711E-02 -0.33558050575E-01  0.35744000000E-01  0.51099999109E-03 0.  1.
</event>
<event>
 4   0  0.3028200E+07  0.9118800E+02  0.7546771E-02  0.1180000E+00
      -11   -1    0    0    0    0  0.00000000000E+00  0.00000000000E+00  0.35740347158E-01  0.35744000000E-01  0.51099999109E-03 0.  1.
       11   -1    0    0    0    0 -0.00000000000E+00 -0.00000000000E+00 -0.35740347158E-01  0.35744000000E-01  0.51099999109E-03 0. -1.
      -11    1    1    2    0    0  0.12021082902E-01 -0.35800224574E-02  0.33467139407E-01  0.35744000000E-01  0.51099999109E-03 0.  1.
       11    1    1    2    0    0 -0.12021082902E-01  0.35800224574E-02 -0.33467139407E-01  0.35744000000E-01  0.51099999109E-03 0. -1.
</event>
<event>
 4   0  0.3028200E+07  0.9118800E+02  0.7546771E-02  0.1180000E+00
      -11   -1    0    0    0    0  0.00000000000E+00  0.00000000000E+00  0.35740347158E-01  0.35744000000E-01  0.51099999109E-03 0.  1.
       11   -1    0    0    0    0 -0.00000000000E+00 -0.00000000000E+00 -0.35740347158E-01  0.35744000000E-01  0.51099999109E-03 0.  1.
      -11    1    1    2    0    0 -0.38169564719E-02 -0.14011726756E-01  0.32656925324E-01  0.35744000000E-01  0.51099999109E-03 0.  1.
       11    1    1    2    0    0  0.38169564719E-02  0.14011726756E-01 -0.32656925324E-01  0.35744000000E-01  0.51099999109E-03 0.  1.
</event>
<event>
 4   0  0.3028200E+07  0.9118800E+02  0.7546771E-02  0.1180000E+00
      -11   -1    0    0    0    0  0.00000000000E+00  0.00000000000E+00  0.35740347158E-01  0.35744000000E-01  0.51099999109E-03 0. -1.
       11   -1    0    0    0    0 -0.00000000000E+00 -0.00000000000E+00 -0.35740347158E-01  0.35744000000E-01  0.51099999109E-03 0. -1.
      -11    1    1    2    0    0 -0.27755052506E-02  0.11299205601E-01  0.33793445199E-01  0.35744000000E-01  0.51099999109E-03 0. -1.
       11    1    1    2    0    0  0.27755052506E-02 -0.11299205601E-01 -0.33793445199E-01  0.35744000000E-01  0.51099999109E-03 0. -1.
</event>
<event>
 4   0  0.3028200E+07  0.9118800E+02  0.7546771E-02  0.1180000E+00
      -11   -1    0    0    0    0  0.00000000000E+00  0.00000000000E+00  0.35740347158E-01  0.35744000000E-01  0.51099999109E-03 0. -1.
       11   -1    0    0    0    0 -0.00000000000E+00 -0.00000000000E+00 -0.35740347158E-01  0.35744000000E-01  0.51099999109E-03 0. -1.
      -11    1    1    2    0    0  0.83312119515E-02  0.12990152788E-01  0.32236923752E-01  0.35744000000E-01  0.51099999109E-03 0. -1.
       11    1    1    2    0    0 -0.83312119515E-02 -0.12990152788E-01 -0.32236923752E-01  0.35744000000E-01  0.51099999109E-03 0. -1.
</event>
<event>
 4   0  0.3028200E+07  0.9118800E+02  0.7546771E-02  0.1180000E+00
      -11   -1    0    0    0    0  0.00000000000E+00  0.00000000000E+00  0.35740347158E-01  0.35744000000E-01  0.51099999109E-03 0. -1.
       11   -1    0    0    0    0 -0.00000000000E+00 -0.00000000000E+00 -0.35740347158E-01  0.35744000000E-01  0.51099999109E-03 0.  1.
      -11    1    1    2    0    0  0.13381977820E-01 -0.42646432232E-02  0.32864995098E-01  0.35744000000E-01  0.51099999109E-03 0. -1.
       11    1    1    2    0    0 -0.13381977820E-01  0.42646432232E-02 -0.32864995098E-01  0.35744000000E-01  0.51099999109E-03 0.  1.
</event>
<event>
 4   0  0.3028200E+07  0.9118800E+02  0.7546771E-02  0.1180000E+00
      -11   -1    0    0    0    0  0.00000000000E+00  0.00000000000E+00  0.35740347158E-01  0.35744000000E-01  0.51099999109E-03 0.  1.
       11   -1    0    0    0    0 -0.00000000000E+00 -0.00000000000E+00 -0.35740347158E-01  0.35744000000E-01  0.51099999109E-03 0.  1.
      -11    1    1    2    0    0 -0.11163845780E-01 -0.48407126783E-02  0.33605185064E-01  0.35744000000E-01  0.51099999109E-03 0.  1.
       11    1    1    2    0    0  0.11163845780E-01  0.48407126783E-02 -0.33605185064E-01  0.35744000000E-01  0.51099999109E-03 0.  1.
</event>
<event>
 4   0  0.3028200E+07  0.9118800E+02  0.7546771E-02  0.1180000E+00
      -11   -1    0    0    0    0  0.00000000000E+00  0.00000000000E+00  0.35740347158E-01  0.35744000000E-01  0.51099999109E-03 0. -1.
       11   -1    0    0    0    0 -0.00000000000E+00 -0.00000000000E+00 -0.35740347158E-01  0.35744000000E-01  0.51099999109E-03 0. -1.
      -11    1    1    2    0    0  0.23142395045E-03 -0.12648725739E-01  0.33426465490E-01  0.35744000000E-01  0.51099999109E-03 0. -1.
       11    1    1    2    0    0 -0.23142395045E-03  0.12648725739E-01 -0.33426465490E-01  0.35744000000E-01  0.51099999109E-03 0. -1.
</event>
<event>
 4   0  0.3028200E+07  0.9118800E+02  0.7546771E-02  0.1180000E+00
      -11   -1    0    0    0    0  0.00000000000E+00  0.00000000000E+00  0.35740347158E-01  0.35744000000E-01  0.51099999109E-03 0. -1.
       11   -1    0    0    0    0 -0.00000000000E+00 -0.00000000000E+00 -0.35740347158E-01  0.35744000000E-01  0.51099999109E-03 0.  1.
      -11    1    1    2    0    0  0.12203459819E-01 -0.89989743576E-02  0.32364586263E-01  0.35744000000E-01  0.51099999109E-03 0. -1.
       11    1    1    2    0    0 -0.12203459819E-01  0.89989743576E-02 -0.32364586263E-01  0.35744000000E-01  0.51099999109E-03 0.  1.
</event>
<event>
 4   0  0.3028200E+07  0.9118800E+02  0.7546771E-02  0.1180000E+00
      -11   -1    0    0    0    0  0.00000000000E+00  0.00000000000E+00  0.35740347158E-01  0.35744000000E-01  0.51099999109E-03 0. -1.
       11   -1    0    0    0    0 -0.00000000000E+00 -0.00000000000E+00 -0.35740347158E-01  0.35744000000E-01  0.51099999109E-03 0. -1.
      -11    1    1    2    0    0 -0.22838527232E-01  0.76659648055E-02  0.26400891509E-01  0.35744000000E-01  0.51099999109E-03 0. -1.
       11    1    1    2    0    0  0.22838527232E-01 -0.76659648055E-02 -0.26400891509E-01  0.35744000000E-01  0.51099999109E-03 0. -1.
</event>
<event>
 4   0  0.3028200E+07  0.9118800E+02  0.7546771E-02  0.1180000E+00
      -11   -1    0    0    0    0  0.00000000000E+00  0.00000000000E+00  0.35740347158E-01  0.35744000000E-01  0.51099999109E-03 0.  1.
       11   -1    0    0    0    0 -0.00000000000E+00 -0.00000000000E+00 -0.35740347158E-01  0.35744000000E-01  0.51099999109E-03 0. -1.
      -11    1    1    2    0    0 -0.85810739459E-02 -0.88120766958E-02  0.33557188339E-01  0.35744000000E-01  0.51099999109E-03 0.  1.
       11    1    1    2    0    0  0.85810739459E-02  0.88120766958E-02 -0.33557188339E-01  0.35744000000E-01  0.51099999109E-03 0. -1.
</event>
<event>
 4   0  0.3028200E+07  0.9118800E+02  0.7546771E-02  0.1180000E+00
      -11   -1    0    0    0    0  0.00000000000E+00  0.00000000000E+00  0.35740347158E-01  0.35744000000E-01  0.51099999109E-03 0. -1.
       11   -1    0    0    0    0 -0.00000000000E+00 -0.00000000000E+00 -0.35740347158E-01  0.35744000000E-01  0.51099999109E-03 0. -1.
      -11    1    1    2    0    0 -0.13079763112E-01 -0.55228360959E-02  0.32799245317E-01  0.35744000000E-01  0.51099999109E-03 0. -1.
       11    1    1    2    0    0  0.13079763112E-01  0.55228360959E-02 -0.32799245317E-01  0.35744000000E-01  0.51099999109E-03 0. -1.
</event>
<event>
 4   0  0.3028200E+07  0.9118800E+02  0.7546771E-02  0.1180000E+00
      -11   -1    0    0    0    0  0.00000000000E+00  0.00000000000E+00  0.35740347158E-01  0.35744000000E-01  0.51099999109E-03 0. -1.
       11   -1    0    0    0    0 -0.00000000000E+00 -0.00000000000E+00 -0.35740347158E-01  0.35744000000E-01  0.51099999109E-03 0. -1.
      -11    1    1    2    0    0  0.10989934167E-01 -0.45824436876E-02  0.33698590058E-01  0.35744000000E-01  0.51099999109E-03 0. -1.
       11    1    1    2    0    0 -0.10989934167E-01  0.45824436876E-02 -0.33698590058E-01  0.35744000000E-01  0.51099999109E-03 0. -1.
</event>
<event>
 4   0  0.3028200E+07  0.9118800E+02  0.7546771E-02  0.1180000E+00
      -11   -1    0    0    0    0  0.00000000000E+00  0.00000000000E+00  0.35740347158E-01  0.35744000000E-01  0.51099999109E-03 0. -1.
       11   -1    0    0    0    0 -0.00000000000E+00 -0.00000000000E+00 -0.35740347158E-01  0.35744000000E-01  0.51099999109E-03 0.  1.
      -11    1    1    2    0    0  0.92647674282E-02  0.99299833190E-02  0.33059521031E-01  0.35744000000E-01  0.51099999109E-03 0. -1.
       11    1    1    2    0    0 -0.92647674282E-02 -0.99299833190E-02 -0.33059521031E-01  0.35744000000E-01  0.51099999109E-03 0.  1.
</event>
<event>
 4   0  0.3028200E+07  0.9118800E+02  0.7546771E-02  0.1180000E+00
      -11   -1    0    0    0    0  0.00000000000E+00  0.00000000000E+00  0.35740347158E-01  0.35744000000E-01  0.51099999109E-03 0.  1.
       11   -1    0    0    0    0 -0.00000000000E+00 -0.00000000000E+00 -0.35740347158E-01  0.35744000000E-01  0.51099999109E-03 0. -1.
      -11    1    1    2    0    0 -0.37123443384E-02 -0.13994277734E-01  0.32676461027E-01  0.35744000000E-01  0.51099999109E-03 0.  1.
       11    1    1    2    0    0  0.37123443384E-02  0.13994277734E-01 -0.32676461027E-01  0.35744000000E-01  0.51099999109E-03 0. -1.
</event>
<event>
 4   0  0.3028200E+07  0.9118800E+02  0.7546771E-02  0.1180000E+00
      -11   -1    0    0    0    0  0.00000000000E+00  0.00000000000E+00  0.35740347158E-01  0.35744000000E-01  0.51099999109E-03 0. -1.
       11   -1    0    0    0    0 -0.00000000000E+00 -0.00000000000E+00 -0.35740347158E-01  0.35744000000E-01  0.51099999109E-03 0.  1.
      -11    1    1    2    0    0 -0.12280049302E-01 -0.75369552672E-02  0.32707294438E-01  0.35744000000E-01  0.51099999109E-03 0. -1.
       11    1    1    2    0    0  0.12280049302E-01  0.75369552672E-02 -0.32707294438E-01  0.35744000000E-01  0.51099999109E-03 0.  1.
</event>
<event>
 4   0  0.3028200E+07  0.9118800E+02  0.7546771E-02  0.1180000E+00
      -11   -1    0    0    0    0  0.00000000000E+00  0.00000000000E+00  0.35740347158E-01  0.35744000000E-01  0.51099999109E-03 0. -1.
       11   -1    0    0    0    0 -0.00000000000E+00 -0.00000000000E+00 -0.35740347158E-01  0.35744000000E-01  0.51099999109E-03 0.  1.
      -11    1    1    2    0    0  0.13650252944E-01  0.62509655503E-02  0.32434062947E-01  0.35744000000E-01  0.51099999109E-03 0. -1.
       11    1    1    2    0    0 -0.13650252944E-01 -0.62509655503E-02 -0.32434062947E-01  0.35744000000E-01  0.51099999109E-03 0.  1.
</event>
<event>
 4   0  0.3028200E+07  0.9118800E+02  0.7546771E-02  0.1180000E+00
      -11   -1    0    0    0    0  0.00000000000E+00  0.00000000000E+00  0.35740347158E-01  0.35744000000E-01  0.51099999109E-03 0. -1.
       11   -1    0    0    0    0 -0.00000000000E+00 -0.00000000000E+00 -0.35740347158E-01  0.35744000000E-01  0.51099999109E-03 0. -1.
      -11    1    1    2    0    0 -0.52057481007E-02  0.10432759803E-01  0.33785057712E-01  0.35744000000E-01  0.51099999109E-03 0. -1.
       11    1    1    2    0    0  0.52057481007E-02 -0.10432759803E-01 -0.33785057712E-01  0.35744000000E-01  0.51099999109E-03 0. -1.
</event>
<event>
 4   0  0.3028200E+07  0.9118800E+02  0.7546771E-02  0.1180000E+00
      -11   -1    0    0    0    0  0.00000000000E+00  0.00000000000E+00  0.35740347158E-01  0.35744000000E-01  0.51099999109E-03 0. -1.
       11   -1    0    0    0    0 -0.00000000000E+00 -0.00000000000E+00 -0.35740347158E-01  0.35744000000E-01  0.51099999109E-03 0.  1.
      -11    1    1    2    0    0 -0.13357617766E-01 -0.94283539940E-02  0.31781324761E-01  0.35744000000E-01  0.51099999109E-03 0. -1.
       11    1    1    2    0    0  0.13357617766E-01  0.94283539940E-02 -0.31781324761E-01  0.35744000000E-01  0.51099999109E-03 0.  1.
</event>
<event>
 4   0  0.3028200E+07  0.9118800E+02  0.7546771E-02  0.1180000E+00
      -11   -1    0    0    0    0  0.00000000000E+00  0.00000000000E+00  0.35740347158E-01  0.35744000000E-01  0.51099999109E-03 0. -1.
       11   -1    0    0    0    0 -0.00000000000E+00 -0.00000000000E+00 -0.35740347158E-01  0.35744000000E-01  0.51099999109E-03 0. -1.
      -11    1    1    2    0    0 -0.19050792271E-01  0.12016895676E-01  0.27749485530E-01  0.35744000000E-01  0.51099999109E-03 0. -1.
       11    1    1    2    0    0  0.19050792271E-01 -0.12016895676E-01 -0.27749485530E-01  0.35744000000E-01  0.51099999109E-03 0. -1.
</event>
<event>
 4   0  0.3028200E+07  0.9118800E+02  0.7546771E-02  0.1180000E+00
      -11   -1    0    0    0    0  0.00000000000E+00  0.00000000000E+00  0.35740347158E-01  0.35744000000E-01  0.51099999109E-03 0.  1.
       11   -1    0    0    0    0 -0.00000000000E+00 -0.00000000000E+00 -0.35740347158E-01  0.35744000000E-01  0.51099999109E-03 0. -1.
      -11    1    1    2    0    0  0.78516841219E-02 -0.14440697204E-01  0.31736252704E-01  0.35744000000E-01  0.51099999109E-03 0.  1.
       11    1    1    2    0    0 -0.78516841219E-02  0.14440697204E-01 -0.31736252704E-01  0.35744000000E-01  0.51099999109E-03 0. -1.
</event>
<event>
 4   0  0.3028200E+07  0.9118800E+02  0.7546771E-02  0.1180000E+00
      -11   -1    0    0    0    0  0.00000000000E+00  0.00000000000E+00  0.35740347158E-01  0.35744000000E-01  0.51099999109E-03 0. -1.
       11   -1    0    0    0    0 -0.00000000000E+00 -0.00000000000E+00 -0.35740347158E-01  0.35744000000E-01  0.51099999109E-03 0. -1.
      -11    1    1    2    0    0  0.10503129887E-01  0.90580761233E-02  0.32939458625E-01  0.35744000000E-01  0.51099999109E-03 0. -1.
       11    1    1    2    0    0 -0.10503129887E-01 -0.90580761233E-02 -0.32939458625E-01  0.35744000000E-01  0.51099999109E-03 0. -1.
</event>
<event>
 4   0  0.3028200E+07  0.9118800E+02  0.7546771E-02  0.1180000E+00
      -11   -1    0    0    0    0  0.00000000000E+00  0.00000000000E+00  0.35740347158E-01  0.35744000000E-01  0.51099999109E-03 0. -1.
       11   -1    0    0    0    0 -0.00000000000E+00 -0.00000000000E+00 -0.35740347158E-01  0.35744000000E-01  0.51099999109E-03 0.  1.
      -11    1    1    2    0    0 -0.24645248967E-02  0.13278103008E-01  0.33090640860E-01  0.35744000000E-01  0.51099999109E-03 0. -1.
       11    1    1    2    0    0  0.24645248967E-02 -0.13278103008E-01 -0.33090640860E-01  0.35744000000E-01  0.51099999109E-03 0.  1.
</event>
<event>
 4   0  0.3028200E+07  0.9118800E+02  0.7546771E-02  0.1180000E+00
      -11   -1    0    0    0    0  0.00000000000E+00  0.00000000000E+00  0.35740347158E-01  0.35744000000E-01  0.51099999109E-03 0.  1.
       11   -1    0    0    0    0 -0.00000000000E+00 -0.00000000000E+00 -0.35740347158E-01  0.35744000000E-01  0.51099999109E-03 0.  1.
      -11    1    1    2    0    0  0.37469301982E-02 -0.12896331423E-01  0.33121255485E-01  0.35744000000E-01  0.51099999109E-03 0.  1.
       11    1    1    2    0    0 -0.37469301982E-02  0.12896331423E-01 -0.33121255485E-01  0.35744000000E-01  0.51099999109E-03 0.  1.
</event>
<event>
 4   0  0.3028200E+07  0.9118800E+02  0.7546771E-02  0.1180000E+00
      -11   -1    0    0    0    0  0.00000000000E+00  0.00000000000E+00  0.35740347158E-01  0.35744000000E-01  0.51099999109E-03 0. -1.
       11   -1    0    0    0    0 -0.00000000000E+00 -0.00000000000E+00 -0.35740347158E-01  0.35744000000E-01  0.51099999109E-03 0.  1.
      -11    1    1    2    0    0 -0.28831109052E-02 -0.22014393918E-01  0.28007615874E-01  0.35744000000E-01  0.51099999109E-03 0. -1.
       11    1    1    2    0    0  0.28831109052E-02  0.22014393918E-01 -0.28007615874E-01  0.35744000000E-01  0.51099999109E-03 0.  1.
</event>
<event>
 4   0  0.3028200E+07  0.9118800E+02  0.7546771E-02  0.1180000E+00
      -11   -1    0    0    0    0  0.00000000000E+00  0.00000000000E+00  0.35740347158E-01  0.35744000000E-01  0.51099999109E-03 0.  1.
       11   -1    0    0    0    0 -0.00000000000E+00 -0.00000000000E+00 -0.35740347158E-01  0.35744000000E-01  0.51099999109E-03 0. -1.
      -11    1    1    2    0    0  0.10885469809E-01 -0.65569146017E-02  0.33404877383E-01  0.35744000000E-01  0.51099999109E-03 0.  1.
       11    1    1    2    0    0 -0.10885469809E-01  0.65569146017E-02 -0.33404877383E-01  0.35744000000E-01  0.51099999109E-03 0. -1.
</event>
<event>
 4   0  0.3028200E+07  0.9118800E+02  0.7546771E-02  0.1180000E+00
      -11   -1    0    0    0    0  0.00000000000E+00  0.00000000000E+00  0.35740347158E-01  0.35744000000E-01  0.51099999109E-03 0. -1.
       11   -1    0    0    0    0 -0.00000000000E+00 -0.00000000000E+00 -0.35740347158E-01  0.35744000000E-01  0.51099999109E-03 0.  1.
      -11    1    1    2    0    0 -0.17342092988E-02  0.16416295861E-01  0.31699687117E-01  0.35744000000E-01  0.51099999109E-03 0. -1.
       11    1    1    2    0    0  0.17342092988E-02 -0.16416295861E-01 -0.31699687117E-01  0.35744000000E-01  0.51099999109E-03 0.  1.
</event>
<event>
 4   0  0.3028200E+07  0.9118800E+02  0.7546771E-02  0.1180000E+00
      -11   -1    0    0    0    0  0.00000000000E+00  0.00000000000E+00  0.35740347158E-01  0.35744000000E-01  0.51099999109E-03 0.  1.
       11   -1    0    0    0    0 -0.00000000000E+00 -0.00000000000E+00 -0.35740347158E-01  0.35744000000E-01  0.51099999109E-03 0.  1.
      -11    1    1    2    0    0 -0.10915926015E-01  0.52160212728E-02  0.33630463814E-01  0.35744000000E-01  0.51099999109E-03 0.  1.
       11    1    1    2    0    0  0.10915926015E-01 -0.52160212728E-02 -0.33630463814E-01  0.35744000000E-01  0.51099999109E-03 0.  1.
</event>
<event>
 4   0  0.3028200E+07  0.9118800E+02  0.7546771E-02  0.1180000E+00
      -11   -1    0    0    0    0  0.00000000000E+00  0.00000000000E+00  0.35740347158E-01  0.35744000000E-01  0.51099999109E-03 0. -1.
       11   -1    0    0    0    0 -0.00000000000E+00 -0.00000000000E+00 -0.35740347158E-01  0.35744000000E-01  0.51099999109E-03 0.  1.
      -11    1    1    2    0    0 -0.37406987316E-02 -0.15012288280E-01  0.32218174818E-01  0.35744000000E-01  0.51099999109E-03 0. -1.
       11    1    1    2    0    0  0.37406987316E-02  0.15012288280E-01 -0.32218174818E-01  0.35744000000E-01  0.51099999109E-03 0.  1.
</event>
<event>
 4   0  0.3028200E+07  0.9118800E+02  0.7546771E-02  0.1180000E+00
      -11   -1    0    0    0    0  0.00000000000E+00  0.00000000000E+00  0.35740347158E-01  0.35744000000E-01  0.51099999109E-03 0. -1.
       11   -1    0    0    0    0 -0.00000000000E+00 -0.00000000000E+00 -0.35740347158E-01  0.35744000000E-01  0.51099999109E-03 0. -1.
      -11    1    1    2    0    0 -0.26320200397E-02 -0.12046552196E-01  0.33545871068E-01  0.35744000000E-01  0.51099999109E-03 0. -1.
       11    1    1    2    0    0  0.26320200397E-02  0.12046552196E-01 -0.33545871068E-01  0.35744000000E-01  0.51099999109E-03 0. -1.
</event>
<event>
 4   0  0.3028200E+07  0.9118800E+02  0.7546771E-02  0.1180000E+00
      -11   -1    0    0    0    0  0.00000000000E+00  0.00000000000E+00  0.35740347158E-01  0.35744000000E-01  0.51099999109E-03 0.  1.
       11   -1    0    0    0    0 -0.00000000000E+00 -0.00000000000E+00 -0.35740347158E-01  0.35744000000E-01  0.51099999109E-03 0.  1.
      -11    1    1    2    0    0 -0.46876514334E-03  0.11763172058E-01  0.33745821332E-01  0.35744000000E-01  0.51099999109E-03 0.  1.
       11    1    1    2    0    0  0.46876514334E-03 -0.11763172058E-01 -0.33745821332E-01  0.35744000000E-01  0.51099999109E-03 0.  1.
</event>
<event>
 4   0  0.3028200E+07  0.9118800E+02  0.7546771E-02  0.1180000E+00
      -11   -1    0    0    0    0  0.00000000000E+00  0.00000000000E+00  0.35740347158E-01  0.35744000000E-01  0.51099999109E-03 0.  1.
       11   -1    0    0    0    0 -0.00000000000E+00 -0.00000000000E+00 -0.35740347158E-01  0.35744000000E-01  0.51099999109E-03 0.  1.
      -11    1    1    2    0    0  0.59676333172E-02 -0.17136229040E-01  0.30791385514E-01  0.35744000000E-01  0.51099999109E-03 0.  1.
       11    1    1    2    0    0 -0.59676333172E-02  0.17136229040E-01 -0.30791385514E-01  0.35744000000E-01  0.51099999109E-03 0.  1.
</event>
<event>
 4   0  0.3028200E+07  0.9118800E+02  0.7546771E-02  0.1180000E+00
      -11   -1    0    0    0    0  0.00000000000E+00  0.00000000000E+00  0.35740347158E-01  0.35744000000E-01  0.51099999109E-03 0. -1.
       11   -1    0    0    0    0 -0.00000000000E+00 -0.00000000000E+00 -0.35740347158E-01  0.35744000000E-01  0.51099999109E-03 0. -1.
      -11    1    1    2    0    0 -0.39445901728E-02 -0.12753779551E-01  0.33153487457E-01  0.35744000000E-01  0.51099999109E-03 0. -1.
       11    1    1    2    0    0  0.39445901728E-02  0.12753779551E-01 -0.33153487457E-01  0.35744000000E-01  0.51099999109E-03 0. -1.
</event>
<event>
 4   0  0.3028200E+07  0.9118800E+02  0.7546771E-02  0.1180000E+00
      -11   -1    0    0    0    0  0.00000000000E+00  0.00000000000E+00  0.35740347158E-01  0.35744000000E-01  0.51099999109E-03 0. -1.
       11   -1    0    0    0    0 -0.00000000000E+00 -0.00000000000E+00 -0.35740347158E-01  0.35744000000E-01  0.51099999109E-03 0. -1.
      -11    1    1    2    0    0  0.56975349150E-02  0.10652378438E-01  0.33636845044E-01  0.35744000000E-01  0.51099999109E-03 0. -1.
       11    1    1    2    0    0 -0.56975349150E-02 -0.10652378438E-01 -0.33636845044E-01  0.35744000000E-01  0.51099999109E-03 0. -1.
</event>
<event>
 4   0  0.3028200E+07  0.9118800E+02  0.7546771E-02  0.1180000E+00
      -11   -1    0    0    0    0  0.00000000000E+00  0.00000000000E+00  0.35740347158E-01  0.35744000000E-01  0.51099999109E-03 0.  1.
       11   -1    0    0    0    0 -0.00000000000E+00 -0.00000000000E+00 -0.35740347158E-01  0.35744000000E-01  0.51099999109E-03 0.  1.
      -11    1    1    2    0    0 -0.12031496054E-01  0.14249598643E-02  0.33624172958E-01  0.35744000000E-01  0.51099999109E-03 0.  1.
       11    1    1    2    0    0  0.12031496054E-01 -0.14249598643E-02 -0.33624172958E-01  0.35744000000E-01  0.51099999109E-03 0.  1.
</event>
<event>
 4   0  0.3028200E+07  0.9118800E+02  0.7546771E-02  0.1180000E+00
      -11   -1    0    0    0    0  0.00000000000E+00  0.00000000000E+00  0.35740347158E-01  0.35744000000E-01  0.51099999109E-03 0. -1.
       11   -1    0    0    0    0 -0.00000000000E+00 -0.00000000000E+00 -0.35740347158E-01  0.35744000000E-01  0.51099999109E-03 0. -1.
      -11    1    1    2    0    0 -0.14205913693E-01  0.11601922332E-01  0.30675068531E-01  0.35744000000E-01  0.51099999109E-03 0. -1.
       11    1    1    2    0    0  0.14205913693E-01 -0.11601922332E-01 -0.30675068531E-01  0.35744000000E-01  0.51099999109E-03 0. -1.
</event>
<event>
 4   0  0.3028200E+07  0.9118800E+02  0.7546771E-02  0.1180000E+00
      -11   -1    0    0    0    0  0.00000000000E+00  0.00000000000E+00  0.35740347158E-01  0.35744000000E-01  0.51099999109E-03 0.  1.
       11   -1    0    0    0    0 -0.00000000000E+00 -0.00000000000E+00 -0.35740347158E-01  0.35744000000E-01  0.51099999109E-03 0.  1.
      -11    1    1    2    0    0 -0.11754601029E-01  0.45954489791E-03  0.33748934622E-01  0.35744000000E-01  0.51099999109E-03 0.  1.
       11    1    1    2    0    0  0.11754601029E-01 -0.45954489791E-03 -0.33748934622E-01  0.35744000000E-01  0.51099999109E-03 0.  1.
</event>
<event>
 4   0  0.3028200E+07  0.9118800E+02  0.7546771E-02  0.1180000E+00
      -11   -1    0    0    0    0  0.00000000000E+00  0.00000000000E+00  0.35740347158E-01  0.35744000000E-01  0.51099999109E-03 0. -1.
       11   -1    0    0    0    0 -0.00000000000E+00 -0.00000000000E+00 -0.35740347158E-01  0.35744000000E-01  0.51099999109E-03 0.  1.
      -11    1    1    2    0    0  0.41882786611E-02 -0.11277250016E-01  0.33654930826E-01  0.35744000000E-01  0.51099999109E-03 0. -1.
       11    1    1    2    0    0 -0.41882786611E-02  0.11277250016E-01 -0.33654930826E-01  0.35744000000E-01  0.51099999109E-03 0.  1.
</event>
<event>
 4   0  0.3028200E+07  0.9118800E+02  0.7546771E-02  0.1180000E+00
      -11   -1    0    0    0    0  0.00000000000E+00  0.00000000000E+00  0.35740347158E-01  0.35744000000E-01  0.51099999109E-03 0. -1.
       11   -1    0    0    0    0 -0.00000000000E+00 -0.00000000000E+00 -0.35740347158E-01  0.35744000000E-01  0.51099999109E-03 0. -1.
      -11    1    1    2    0    0 -0.13819447500E-01  0.13390392681E-01  0.30117979176E-01  0.35744000000E-01  0.51099999109E-03 0. -1.
       11    1    1    2    0    0  0.13819447500E-01 -0.13390392681E-01 -0.30117979176E-01  0.35744000000E-01  0.51099999109E-03 0. -1.
</event>
<event>
 4   0  0.3028200E+07  0.9118800E+02  0.7546771E-02  0.1180000E+00
      -11   -1    0    0    0    0  0.00000000000E+00  0.00000000000E+00  0.35740347158E-01  0.35744000000E-01  0.51099999109E-03 0. -1.
       11   -1    0    0    0    0 -0.00000000000E+00 -0.00000000000E+00 -0.35740347158E-01  0.35744000000E-01  0.51099999109E-03 0. -1.
      -11    1    1    2    0    0 -0.12972599044E-01 -0.13385442441E-03  0.33302645121E-01  0.35744000000E-01  0.51099999109E-03 0. -1.
       11    1    1    2    0    0  0.12972599044E-01  0.13385442441E-03 -0.33302645121E-01  0.35744000000E-01  0.51099999109E-03 0. -1.
</event>
<event>
 4   0  0.3028200E+07  0.9118800E+02  0.7546771E-02  0.1180000E+00
      -11   -1    0    0    0    0  0.00000000000E+00  0.00000000000E+00  0.35740347158E-01  0.35744000000E-01  0.51099999109E-03 0.  1.
       11   -1    0    0    0    0 -0.00000000000E+00 -0.00000000000E+00 -0.35740347158E-01  0.35744000000E-01  0.51099999109E-03 0.  1.
      -11    1    1    2    0    0  0.17379212860E-01 -0.18097849864E-01  0.25451978423E-01  0.35744000000E-01  0.51099999109E-03 0.  1.
       11    1    1    2    0    0 -0.17379212860E-01  0.18097849864E-01 -0.25451978423E-01  0.35744000000E-01  0.51099999109E-03 0.  1.
</event>
<event>
 4   0  0.3028200E+07  0.9118800E+02  0.7546771E-02  0.1180000E+00
      -11   -1    0    0    0    0  0.00000000000E+00  0.00000000000E+00  0.35740347158E-01  0.35744000000E-01  0.51099999109E-03 0.  1.
       11   -1    0    0    0    0 -0.00000000000E+00 -0.00000000000E+00 -0.35740347158E-01  0.35744000000E-01  0.51099999109E-03 0. -1.
      -11    1    1    2    0    0  0.69205741649E-02  0.10383046611E-01  0.33491348305E-01  0.35744000000E-01  0.51099999109E-03 0.  1.
       11    1    1    2    0    0 -0.69205741649E-02 -0.10383046611E-01 -0.33491348305E-01  0.35744000000E-01  0.51099999109E-03 0. -1.
</event>
<event>
 4   0  0.3028200E+07  0.9118800E+02  0.7546771E-02  0.1180000E+00
      -11   -1    0    0    0    0  0.00000000000E+00  0.00000000000E+00  0.35740347158E-01  0.35744000000E-01  0.51099999109E-03 0. -1.
       11   -1    0    0    0    0 -0.00000000000E+00 -0.00000000000E+00 -0.35740347158E-01  0.35744000000E-01  0.51099999109E-03 0.  1.
      -11    1    1    2    0    0 -0.11886027576E-01  0.71275557080E-02  0.32943781099E-01  0.35744000000E-01  0.51099999109E-03 0. -1.
       11    1    1    2    0    0  0.11886027576E-01 -0.71275557080E-02 -0.32943781099E-01  0.35744000000E-01  0.51099999109E-03 0.  1.
</event>
<event>
 4   0  0.3028200E+07  0.9118800E+02  0.7546771E-02  0.1180000E+00
      -11   -1    0    0    0    0  0.00000000000E+00  0.00000000000E+00  0.35740347158E-01  0.35744000000E-01  0.51099999109E-03 0.  1.
       11   -1    0    0    0    0 -0.00000000000E+00 -0.00000000000E+00 -0.35740347158E-01  0.35744000000E-01  0.51099999109E-03 0.  1.
      -11    1    1    2    0    0 -0.10517128820E-01  0.10696916615E-01  0.32439765587E-01  0.35744000000E-01  0.51099999109E-03 0.  1.
       11    1    1    2    0    0  0.10517128820E-01 -0.10696916615E-01 -0.32439765587E-01  0.35744000000E-01  0.51099999109E-03 0.  1.
</event>
<event>
 4   0  0.3028200E+07  0.9118800E+02  0.7546771E-02  0.1180000E+00
      -11   -1    0    0    0    0  0.00000000000E+00  0.00000000000E+00  0.35740347158E-01  0.35744000000E-01  0.51099999109E-03 0. -1.
       11   -1    0    0    0    0 -0.00000000000E+00 -0.00000000000E+00 -0.35740347158E-01  0.35744000000E-01  0.51099999109E-03 0. -1.
      -11    1    1    2    0    0 -0.24359048423E-01 -0.28486661858E-02  0.25997966765E-01  0.35744000000E-01  0.51099999109E-03 0. -1.
       11    1    1    2    0    0  0.24359048423E-01  0.28486661858E-02 -0.25997966765E-01  0.35744000000E-01  0.51099999109E-03 0. -1.
</event>
<event>
 4   0  0.3028200E+07  0.9118800E+02  0.7546771E-02  0.1180000E+00
      -11   -1    0    0    0    0  0.00000000000E+00  0.00000000000E+00  0.35740347158E-01  0.35744000000E-01  0.51099999109E-03 0.  1.
       11   -1    0    0    0    0 -0.00000000000E+00 -0.00000000000E+00 -0.35740347158E-01  0.35744000000E-01  0.51099999109E-03 0.  1.
      -11    1    1    2    0    0  0.87491531665E-02  0.17244971891E-01  0.30057206763E-01  0.35744000000E-01  0.51099999109E-03 0.  1.
       11    1    1    2    0    0 -0.87491531665E-02 -0.17244971891E-01 -0.30057206763E-01  0.35744000000E-01  0.51099999109E-03 0.  1.
</event>
</LesHouchesEvents>
