<LesHouchesEvents version="3.0">
<header>
<!--
#*********************************************************************
#                                                                    *
#                        MadGraph5_aMC@NLO                           *
#                                                                    *
#                           Going Beyond                             *
#                                                                    *
#                   http://madgraph.hep.uiuc.edu                     *
#                   http://madgraph.phys.ucl.ac.be                   *
#                   http://amcatnlo.cern.ch                          *
#                                                                    *
#                     The MadGraph5_aMC@NLO team                     *
#                                                                    *
#....................................................................*
#                                                                    *
# This file contains all the information necessary to reproduce      *
# the events generated:                                              *
#                                                                    *
# 1. software version                                                *
# 2. proc_card          : code generation info including model       *
# 3. param_card         : model primary parameters in the LH format  *
# 4. run_card           : running parameters (collider and cuts)     *
# 5. pythia_card        : present only if pythia has been run        *
# 6. pgs_card           : present only if pgs has been run           *
# 7. delphes_cards      : present only if delphes has been run       *
#                                                                    *
#                                                                    *
#*********************************************************************
-->
<MGVersion>
#5.2.1.2
</MGVersion>
<MG5ProcCard>
#************************************************************
#*                     MadGraph5_aMC@NLO                    *
#*                                                          *
#*                *                       *                 *
#*                  *        * *        *                   *
#*                    * * * * 5 * * * *                     *
#*                  *        * *        *                   *
#*                *                       *                 *
#*                                                          *
#*                                                          *
#*         VERSION 2.1.2                 2014-07-03         *
#*                                                          *
#*    The MadGraph5_aMC@NLO Development Team - Find us at   *
#*    https://server06.fynu.ucl.ac.be/projects/madgraph     *
#*                                                          *
#************************************************************
#*                                                          *
#*               Command File for MadGraph5_aMC@NLO         *
#*                                                          *
#*     run as ./bin/mg5_aMC  filename                       *
#*                                                          *
#************************************************************
set group_subprocesses Auto
set ignore_six_quark_processes False
set gauge unitary
set complex_mass_scheme False
import model sm-lepton_masses
define p = g u c d s u~ c~ d~ s~
define j = g u c d s u~ c~ d~ s~
define l+ = e+ mu+
define l- = e- mu-
define vl = ve vm vt
define vl~ = ve~ vm~ vt~
generate e+ e- > a a a
output ../../e+e-2yyy
</MG5ProcCard>
<MGProcCard>
#*********************************************************************
#                        MadGraph/MadEvent                           *
#                   http://madgraph.hep.uiuc.edu                     *
#                                                                    *
#                          proc_card.dat                             *
#*********************************************************************
#                                                                    *
#            This Files is generated by MADGRAPH 5                   *
#                                                                    *
# WARNING: This Files is generated for MADEVENT (compatibility issue)*
#          This files is NOT a valid MG4 proc_card.dat               *
#          Running this in MG4 will NEVER reproduce the result of MG5*
#                                                                    *
#*********************************************************************
#*********************************************************************
# Process(es) requested : mg2 input                                  *
#*********************************************************************
# Begin PROCESS # This is TAG. Do not modify this line
e+ e- > a a a           #Process
# Be carefull the coupling are here in MG5 convention
          
end_coup           # End the couplings input

done               # this tells MG there are no more procs
# End PROCESS  # This is TAG. Do not modify this line
#*********************************************************************
# Model information                                                  *
#*********************************************************************
# Begin MODEL  # This is TAG. Do not modify this line
sm-lepton_masses
# End   MODEL  # This is TAG. Do not modify this line
#*********************************************************************
# Start multiparticle definitions                                    *
#*********************************************************************
# Begin MULTIPARTICLES # This is TAG. Do not modify this line

# End  MULTIPARTICLES # This is TAG. Do not modify this line
</MGProcCard>
<MGRunCard>
#*********************************************************************
#                       MadGraph5_aMC@NLO                            *
#                                                                    *
#                     run_card.dat MadEvent                          *
#                                                                    *
#  This file is used to set the parameters of the run.               *
#                                                                    *
#  Some notation/conventions:                                        *
#                                                                    *
#   Lines starting with a '# ' are info or comments                  *
#                                                                    *
#   mind the format:   value    = variable     ! comment             *
#*********************************************************************
#
#*******************                                                 
# Running parameters
#*******************                                                 
#                                                                    
#*********************************************************************
# Tag name for the run (one word)                                    *
#*********************************************************************
  tag_1     = run_tag ! name of the run 
#*********************************************************************
# Run to generate the grid pack                                      *
#*********************************************************************
  .false.     = gridpack  !True = setting up the grid pack
#*********************************************************************
# Number of events and rnd seed                                      *
# Warning: Do not generate more than 1M events in a single run       *
# If you want to run Pythia, avoid more than 50k events in a run.    *
#*********************************************************************
  100000 = nevents ! Number of unweighted events requested 
 21 = iseed   ! rnd seed (0=assigned automatically=default))
#*********************************************************************
# Collider type and energy                                           *
# lpp: 0=No PDF, 1=proton, -1=antiproton, 2=photon from proton,      *
#                                         3=photon from electron     *
#*********************************************************************
        0     = lpp1    ! beam 1 type 
        -0     = lpp2    ! beam 2 type
     0.035     = ebeam1  ! beam 1 total energy in GeV
     0.035     = ebeam2  ! beam 2 total energy in GeV
#*********************************************************************
# Beam polarization from -100 (left-handed) to 100 (right-handed)    *
#*********************************************************************
        0     = polbeam1 ! beam polarization for beam 1
        0     = polbeam2 ! beam polarization for beam 2
#*********************************************************************
# PDF CHOICE: this automatically fixes also alpha_s and its evol.    *
#*********************************************************************
 'nn23lo1'    = pdlabel     ! PDF set                                     
#*********************************************************************
# Renormalization and factorization scales                           *
#*********************************************************************
 T        = fixed_ren_scale  ! if .true. use fixed ren scale
 T        = fixed_fac_scale  ! if .true. use fixed fac scale
 91.1880  = scale            ! fixed ren scale
 91.1880  = dsqrt_q2fact1    ! fixed fact scale for pdf1
 91.1880  = dsqrt_q2fact2    ! fixed fact scale for pdf2
 1        = scalefact        ! scale factor for event-by-event scales
#*********************************************************************
# Matching - Warning! ickkw > 1 is still beta
#*********************************************************************
 0        = ickkw            ! 0 no matching, 1 MLM, 2 CKKW matching
 1        = highestmult      ! for ickkw=2, highest mult group
 1        = ktscheme         ! for ickkw=1, 1 Durham kT, 2 Pythia pTE
 1        = alpsfact         ! scale factor for QCD emission vx
 F        = chcluster        ! cluster only according to channel diag
 T        = pdfwgt           ! for ickkw=1, perform pdf reweighting
 5        = asrwgtflavor     ! highest quark flavor for a_s reweight
 T        = clusinfo         ! include clustering tag in output
 3.0      = lhe_version       ! Change the way clustering information pass to shower.        
#*********************************************************************
#**********************************************************
#
#**********************************************************
# Automatic ptj and mjj cuts if xqcut > 0
# (turn off for VBF and single top processes)
#**********************************************************
   T  = auto_ptj_mjj  ! Automatic setting of ptj and mjj
#**********************************************************
#                                                                    
#**********************************
# BW cutoff (M+/-bwcutoff*Gamma)
#**********************************
  15  = bwcutoff      ! (M+/-bwcutoff*Gamma)
#**********************************************************
# Apply pt/E/eta/dr/mij cuts on decay products or not
# (note that etmiss/ptll/ptheavy/ht/sorted cuts always apply)
#**********************************************************
   T  = cut_decays    ! Cut decay products 
#*************************************************************
# Number of helicities to sum per event (0 = all helicities)
# 0 gives more stable result, but longer run time (needed for
# long decay chains e.g.).
# Use >=2 if most helicities contribute, e.g. pure QCD.
#*************************************************************
   0  = nhel          ! Number of helicities used per event
#*******************                                                 
# Standard Cuts
#*******************                                                 
#                                                                    
#*********************************************************************
# Minimum and maximum pt's (for max, -1 means no cut)                *
#*********************************************************************
 20  = ptj       ! minimum pt for the jets 
  0  = ptb       ! minimum pt for the b 
 0  = pta       ! minimum pt for the photons 
 0  = ptl       ! minimum pt for the charged leptons 
  0  = misset    ! minimum missing Et (sum of neutrino's momenta)
  0  = ptheavy   ! minimum pt for one heavy final state
 1.0 = ptonium   ! minimum pt for the quarkonium states
 -1  = ptjmax    ! maximum pt for the jets
 -1  = ptbmax    ! maximum pt for the b
 -1  = ptamax    ! maximum pt for the photons
 -1  = ptlmax    ! maximum pt for the charged leptons
 -1  = missetmax ! maximum missing Et (sum of neutrino's momenta)
#*********************************************************************
# Minimum and maximum E's (in the center of mass frame)              *
#*********************************************************************
  0  = ej     ! minimum E for the jets 
  0  = eb     ! minimum E for the b 
  0  = ea     ! minimum E for the photons 
  0  = el     ! minimum E for the charged leptons 
 -1   = ejmax ! maximum E for the jets
 -1   = ebmax ! maximum E for the b
 -1   = eamax ! maximum E for the photons
 -1   = elmax ! maximum E for the charged leptons
#*********************************************************************
# Maximum and minimum absolute rapidity (for max, -1 means no cut)   *
#*********************************************************************
   5  = etaj    ! max rap for the jets 
  -1  = etab    ! max rap for the b
  -1 = etaa
#  1.58619 = etaa    ! max rap for the photons 
 -1  = etal    ! max rap for the charged leptons 
 0.6  = etaonium ! max rap for the quarkonium states
   0  = etajmin ! min rap for the jets
   0  = etabmin ! min rap for the b
   0 = etaamin 
#   1.29833  = etaamin ! min rap for the photons
   0  = etalmin ! main rap for the charged leptons
#*********************************************************************
# Minimum and maximum DeltaR distance                                *
#*********************************************************************
 0.4 = drjj    ! min distance between jets 
 0   = drbb    ! min distance between b's 
 0.4 = drll    ! min distance between leptons 
 0 = draa    ! min distance between gammas 
 0   = drbj    ! min distance between b and jet 
 0.4 = draj    ! min distance between gamma and jet 
 0.4 = drjl    ! min distance between jet and lepton 
 0   = drab    ! min distance between gamma and b 
 0   = drbl    ! min distance between b and lepton 
 0 = dral    ! min distance between gamma and lepton 
 -1  = drjjmax ! max distance between jets
 -1  = drbbmax ! max distance between b's
 -1  = drllmax ! max distance between leptons
 -1  = draamax ! max distance between gammas
 -1  = drbjmax ! max distance between b and jet
 -1  = drajmax ! max distance between gamma and jet
 -1  = drjlmax ! max distance between jet and lepton
 -1  = drabmax ! max distance between gamma and b
 -1  = drblmax ! max distance between b and lepton
 -1  = dralmax ! maxdistance between gamma and lepton
#*********************************************************************
# Minimum and maximum invariant mass for pairs                       *
# WARNING: for four lepton final state mmll cut require to have      *
#          different lepton masses for each flavor!                  *           
#*********************************************************************
 0   = mmjj    ! min invariant mass of a jet pair 
 0   = mmbb    ! min invariant mass of a b pair 
 0   = mmaa    ! min invariant mass of gamma gamma pair
 0   = mmll    ! min invariant mass of l+l- (same flavour) lepton pair
 -1  = mmjjmax ! max invariant mass of a jet pair
 -1  = mmbbmax ! max invariant mass of a b pair
 -1  = mmaamax ! max invariant mass of gamma gamma pair
 -1  = mmllmax ! max invariant mass of l+l- (same flavour) lepton pair
#*********************************************************************
# Minimum and maximum invariant mass for all letpons                 *
#*********************************************************************
 0   = mmnl    ! min invariant mass for all letpons (l+- and vl) 
 -1  = mmnlmax ! max invariant mass for all letpons (l+- and vl) 
#*********************************************************************
# Minimum and maximum pt for 4-momenta sum of leptons                *
#*********************************************************************
 0   = ptllmin  ! Minimum pt for 4-momenta sum of leptons(l and vl)
 -1  = ptllmax  ! Maximum pt for 4-momenta sum of leptons(l and vl)
#*********************************************************************
# Inclusive cuts                                                     *
#*********************************************************************
 0  = xptj ! minimum pt for at least one jet  
 0  = xptb ! minimum pt for at least one b 
 0  = xpta ! minimum pt for at least one photon 
 0  = xptl ! minimum pt for at least one charged lepton 
#*********************************************************************
# Control the pt's of the jets sorted by pt                          *
#*********************************************************************
 0   = ptj1min ! minimum pt for the leading jet in pt
 0   = ptj2min ! minimum pt for the second jet in pt
 0   = ptj3min ! minimum pt for the third jet in pt
 0   = ptj4min ! minimum pt for the fourth jet in pt
 -1  = ptj1max ! maximum pt for the leading jet in pt 
 -1  = ptj2max ! maximum pt for the second jet in pt
 -1  = ptj3max ! maximum pt for the third jet in pt
 -1  = ptj4max ! maximum pt for the fourth jet in pt
 0   = cutuse  ! reject event if fails any (0) / all (1) jet pt cuts
#*********************************************************************
# Control the pt's of leptons sorted by pt                           *
#*********************************************************************
 0   = ptl1min ! minimum pt for the leading lepton in pt
 0   = ptl2min ! minimum pt for the second lepton in pt
 0   = ptl3min ! minimum pt for the third lepton in pt
 0   = ptl4min ! minimum pt for the fourth lepton in pt
 -1  = ptl1max ! maximum pt for the leading lepton in pt 
 -1  = ptl2max ! maximum pt for the second lepton in pt
 -1  = ptl3max ! maximum pt for the third lepton in pt
 -1  = ptl4max ! maximum pt for the fourth lepton in pt
#*********************************************************************
# Control the Ht(k)=Sum of k leading jets                            *
#*********************************************************************
 0   = htjmin ! minimum jet HT=Sum(jet pt)
 -1  = htjmax ! maximum jet HT=Sum(jet pt)
 0   = ihtmin  !inclusive Ht for all partons (including b)
 -1  = ihtmax  !inclusive Ht for all partons (including b)
 0   = ht2min ! minimum Ht for the two leading jets
 0   = ht3min ! minimum Ht for the three leading jets
 0   = ht4min ! minimum Ht for the four leading jets
 -1  = ht2max ! maximum Ht for the two leading jets
 -1  = ht3max ! maximum Ht for the three leading jets
 -1  = ht4max ! maximum Ht for the four leading jets
#***********************************************************************
# Photon-isolation cuts, according to hep-ph/9801442                   *
# When ptgmin=0, all the other parameters are ignored                  *
# When ptgmin>0, pta and draj are not going to be used                 *
#***********************************************************************
   0 = ptgmin ! Min photon transverse momentum
 0.0 = R0gamma ! Radius of isolation code
 1.0 = xn ! n parameter of eq.(3.4) in hep-ph/9801442
 1.0 = epsgamma ! epsilon_gamma parameter of eq.(3.4) in hep-ph/9801442
 .true. = isoEM ! isolate photons from EM energy (photons and leptons)
#*********************************************************************
# WBF cuts                                                           *
#*********************************************************************
 0   = xetamin ! minimum rapidity for two jets in the WBF case  
 0   = deltaeta ! minimum rapidity for two jets in the WBF case 
#*********************************************************************
# KT DURHAM CUT                                                      *
#*********************************************************************
 -1    =  ktdurham        
 0.4  =  dparameter 
#*********************************************************************
# maximal pdg code for quark to be considered as a light jet         *
# (otherwise b cuts are applied)                                     *
#*********************************************************************
 4 = maxjetflavor    ! Maximum jet pdg code
#*********************************************************************
# Jet measure cuts                                                   *
#*********************************************************************
 0   = xqcut   ! minimum kt jet measure between partons
#*********************************************************************
#
#*********************************************************************
# Store info for systematics studies                                 *
# WARNING: If use_syst is T, matched Pythia output is                *
#          meaningful ONLY if plotted taking matchscale              *
#          reweighting into account!                                 *
#*********************************************************************
   F  = use_syst      ! Enable systematics studies
#
#**************************************
# Parameter of the systematics study
#  will be used by SysCalc (if installed)
#**************************************                                  
#
0.5 1 2 = sys_scalefact  # factorization/renormalization scale factor
0.5 1 2 = sys_alpsfact  # \alpha_s emission scale factors
30 50 = sys_matchscale # variation of merging scale
# PDF sets and number of members (0 or none for all members).
CT10nlo.LHgrid = sys_pdf # matching scales
# MSTW2008nlo68cl.LHgrid 1  = sys_pdf
</MGRunCard>
<slha>
######################################################################
## PARAM_CARD AUTOMATICALY GENERATED BY MG5 FOLLOWING UFO MODEL   ####
######################################################################
##                                                                  ##
##  Width set on Auto will be computed following the information    ##
##        present in the decay.py files of the model.               ##
##        See  arXiv:1402.1178 for more details.                    ##
##                                                                  ##
######################################################################

###################################
## INFORMATION FOR MASS
###################################
Block mass 
    5 4.700000e+00 # MB 
    6 1.730000e+02 # MT 
   11 5.110000e-04 # Me 
   13 1.056600e-01 # MM 
   15 1.777000e+00 # MTA 
   23 9.118800e+01 # MZ 
   25 1.250000e+02 # MH 
## Dependent parameters, given by model restrictions.
## Those values should be edited following the 
## analytical expression. MG5 ignores those values 
## but they are important for interfacing the output of MG5
## to external program such as Pythia.
  1 0.000000 # d : 0.0 
  2 0.000000 # u : 0.0 
  3 0.000000 # s : 0.0 
  4 0.000000 # c : 0.0 
  12 0.000000 # ve : 0.0 
  14 0.000000 # vm : 0.0 
  16 0.000000 # vt : 0.0 
  21 0.000000 # g : 0.0 
  22 0.000000 # a : 0.0 
  24 80.419002 # w+ : cmath.sqrt(MZ__exp__2/2. + cmath.sqrt(MZ__exp__4/4. - (aEW*cmath.pi*MZ__exp__2)/(Gf*sqrt__2))) 

###################################
## INFORMATION FOR SMINPUTS
###################################
Block sminputs 
    1 1.325070e+02 # aEWM1 
    2 1.166390e-05 # Gf 
    3 1.180000e-01 # aS 

###################################
## INFORMATION FOR YUKAWA
###################################
Block yukawa 
    5 4.700000e+00 # ymb 
    6 1.730000e+02 # ymt 
   11 5.110000e-04 # yme 
   13 1.056600e-01 # ymm 
   15 1.777000e+00 # ymtau 

###################################
## INFORMATION FOR DECAY
###################################
DECAY   6 1.491500e+00 # WT 
DECAY  15 2.270000e-12 # WTau 
DECAY  23 2.441404e+00 # WZ 
DECAY  24 2.047600e+00 # WW 
DECAY  25 6.382339e-03 # WH 
## Dependent parameters, given by model restrictions.
## Those values should be edited following the 
## analytical expression. MG5 ignores those values 
## but they are important for interfacing the output of MG5
## to external program such as Pythia.
DECAY  1 0.000000 # d : 0.0 
DECAY  2 0.000000 # u : 0.0 
DECAY  3 0.000000 # s : 0.0 
DECAY  4 0.000000 # c : 0.0 
DECAY  5 0.000000 # b : 0.0 
DECAY  11 0.000000 # e- : 0.0 
DECAY  12 0.000000 # ve : 0.0 
DECAY  13 0.000000 # mu- : 0.0 
DECAY  14 0.000000 # vm : 0.0 
DECAY  16 0.000000 # vt : 0.0 
DECAY  21 0.000000 # g : 0.0 
DECAY  22 0.000000 # a : 0.0
</slha>
## END BANNER##
<MGGenerationInfo>
#  Number of Events        :          703
#  Integrated weight (pb)  :  0.10520E+09
#  Truncated wgt (pb)      :  0.00000E+00
#  Unit wgt                :  0.14964E+06
</MGGenerationInfo>
</header>
<init>
      -11       11  0.35000000000E-01  0.35000000000E-01 0 0       0       0 3   1
  0.10520349840E+09  0.00000000000E+00  0.14964438122E+06   0
<generator name='MadGraph5_aMC@NLO' version='#5.2.1.2'>please cite 1405.0301 </generator>
</init>
<event>
 5   0  0.1496444E+06  0.9118800E+02  0.7546771E-02  0.1180000E+00
      -11   -1    0    0    0    0  0.00000000000E+00  0.00000000000E+00  0.34996269501E-01  0.35000000000E-01  0.51099999109E-03 0. -1.
       11   -1    0    0    0    0 -0.00000000000E+00 -0.00000000000E+00 -0.34996269501E-01  0.35000000000E-01  0.51099999109E-03 0.  1.
       22    1    1    2    0    0  0.82835960026E-02 -0.70671125405E-02  0.33263148008E-01  0.34999986540E-01  0.00000000000E+00 0. -1.
       22    1    1    2    0    0 -0.82835851354E-02  0.70671240816E-02 -0.33263157270E-01  0.34999995100E-01  0.00000000000E+00 0.  1.
       22    1    1    2    0    0 -0.10867259410E-07 -0.11541136288E-07  0.92617294221E-08  0.18359596558E-07  0.00000000000E+00 0. -1.
</event>
<event>
 5   0  0.1496444E+06  0.9118800E+02  0.7546771E-02  0.1180000E+00
      -11   -1    0    0    0    0  0.00000000000E+00  0.00000000000E+00  0.34996269501E-01  0.35000000000E-01  0.51099999109E-03 0.  1.
       11   -1    0    0    0    0 -0.00000000000E+00 -0.00000000000E+00 -0.34996269501E-01  0.35000000000E-01  0.51099999109E-03 0.  1.
       22    1    1    2    0    0  0.24629747456E-05  0.70428696700E-05  0.34939645601E-01  0.34936553729E-01  0.00000000000E+00 0.  1.
       22    1    1    2    0    0 -0.24627344296E-05 -0.70421824872E-05  0.63224558188E-04  0.63663193080E-04  0.00000000000E+00 0. -1.
       22    1    1    2    0    0 -0.24031596107E-09 -0.68718284524E-09 -0.35002870159E-01  0.34999783078E-01  0.00000000000E+00 0.  1.
</event>
<event>
 5   0  0.1496444E+06  0.9118800E+02  0.7546771E-02  0.1180000E+00
      -11   -1    0    0    0    0  0.00000000000E+00  0.00000000000E+00  0.34996269501E-01  0.35000000000E-01  0.51099999109E-03 0. -1.
       11   -1    0    0    0    0 -0.00000000000E+00 -0.00000000000E+00 -0.34996269501E-01  0.35000000000E-01  0.51099999109E-03 0.  1.
       22    1    1    2    0    0  0.13227885541E-01  0.12870135211E-01  0.29738216851E-01  0.34999698252E-01  0.00000000000E+00 0. -1.
       22    1    1    2    0    0 -0.13228400450E-01 -0.12870189880E-01 -0.29738024185E-01  0.34999749263E-01  0.00000000000E+00 0.  1.
       22    1    1    2    0    0  0.51490911286E-06  0.54668853692E-07 -0.19266581496E-06  0.55248546978E-06  0.00000000000E+00 0.  1.
</event>
<event>
 5   0  0.1496444E+06  0.9118800E+02  0.7546771E-02  0.1180000E+00
      -11   -1    0    0    0    0  0.00000000000E+00  0.00000000000E+00  0.34996269501E-01  0.35000000000E-01  0.51099999109E-03 0.  1.
       11   -1    0    0    0    0 -0.00000000000E+00 -0.00000000000E+00 -0.34996269501E-01  0.35000000000E-01  0.51099999109E-03 0.  1.
       22    1    1    2    0    0 -0.41618568232E-03 -0.13587936036E-02  0.41048727326E-02  0.43439050094E-02  0.00000000000E+00 0. -1.
       22    1    1    2    0    0  0.76498433396E-03  0.13312733523E-02  0.30755582058E-01  0.30793884417E-01  0.00000000000E+00 0.  1.
       22    1    1    2    0    0 -0.34879865164E-03  0.27520251291E-04 -0.34860454791E-01  0.34862210574E-01  0.00000000000E+00 0.  1.
</event>
<event>
 5   0  0.1496444E+06  0.9118800E+02  0.7546771E-02  0.1180000E+00
      -11   -1    0    0    0    0  0.00000000000E+00  0.00000000000E+00  0.34996269501E-01  0.35000000000E-01  0.51099999109E-03 0.  1.
       11   -1    0    0    0    0 -0.00000000000E+00 -0.00000000000E+00 -0.34996269501E-01  0.35000000000E-01  0.51099999109E-03 0. -1.
       22    1    1    2    0    0  0.80351103841E-02  0.64520407865E-02 -0.33391589913E-01  0.34945530560E-01  0.00000000000E+00 0. -1.
       22    1    1    2    0    0 -0.81697983166E-02 -0.64308188261E-02  0.33311414482E-01  0.34896294504E-01  0.00000000000E+00 0.  1.
       22    1    1    2    0    0  0.13468793246E-03 -0.21221960490E-04  0.80175431203E-04  0.15817493647E-03  0.00000000000E+00 0.  1.
</event>
<event>
 5   0  0.1496444E+06  0.9118800E+02  0.7546771E-02  0.1180000E+00
      -11   -1    0    0    0    0  0.00000000000E+00  0.00000000000E+00  0.34996269501E-01  0.35000000000E-01  0.51099999109E-03 0. -1.
       11   -1    0    0    0    0 -0.00000000000E+00 -0.00000000000E+00 -0.34996269501E-01  0.35000000000E-01  0.51099999109E-03 0.  1.
       22    1    1    2    0    0  0.77481316086E-03  0.76240976553E-04 -0.34991338936E-01  0.34999999267E-01  0.00000000000E+00 0.  1.
       22    1    1    2    0    0 -0.77482502927E-03 -0.76233683809E-04  0.34991258664E-01  0.34999919261E-01  0.00000000000E+00 0. -1.
       22    1    1    2    0    0  0.11868407336E-07 -0.72927434170E-08  0.80272466286E-07  0.81472155015E-07  0.00000000000E+00 0. -1.
</event>
<event>
 5   0  0.1496444E+06  0.9118800E+02  0.7546771E-02  0.1180000E+00
      -11   -1    0    0    0    0  0.00000000000E+00  0.00000000000E+00  0.34996269501E-01  0.35000000000E-01  0.51099999109E-03 0.  1.
       11   -1    0    0    0    0 -0.00000000000E+00 -0.00000000000E+00 -0.34996269501E-01  0.35000000000E-01  0.51099999109E-03 0. -1.
       22    1    1    2    0    0 -0.12706180377E-01 -0.69203216130E-02  0.49248120781E-02  0.15283705212E-01  0.00000000000E+00 0.  1.
       22    1    1    2    0    0  0.27832575071E-01  0.10657183692E-01 -0.17616411904E-01  0.34620308602E-01  0.00000000000E+00 0. -1.
       22    1    1    2    0    0 -0.15126394694E-01 -0.37368620792E-02  0.12691599826E-01  0.20095986186E-01  0.00000000000E+00 0.  1.
</event>
<event>
 5   0  0.1496444E+06  0.9118800E+02  0.7546771E-02  0.1180000E+00
      -11   -1    0    0    0    0  0.00000000000E+00  0.00000000000E+00  0.34996269501E-01  0.35000000000E-01  0.51099999109E-03 0. -1.
       11   -1    0    0    0    0 -0.00000000000E+00 -0.00000000000E+00 -0.34996269501E-01  0.35000000000E-01  0.51099999109E-03 0.  1.
       22    1    1    2    0    0 -0.76054731540E-07 -0.51712315931E-06  0.12937984735E-05  0.13953906887E-05  0.00000000000E+00 0. -1.
       22    1    1    2    0    0  0.74907268083E-02  0.20146919367E-01 -0.27622247174E-01  0.34999969815E-01  0.00000000000E+00 0.  1.
       22    1    1    2    0    0 -0.74906507536E-02 -0.20146402244E-01  0.27620953376E-01  0.34998634794E-01  0.00000000000E+00 0. -1.
</event>
<event>
 5   0  0.1496444E+06  0.9118800E+02  0.7546771E-02  0.1180000E+00
      -11   -1    0    0    0    0  0.00000000000E+00  0.00000000000E+00  0.34996269501E-01  0.35000000000E-01  0.51099999109E-03 0.  1.
       11   -1    0    0    0    0 -0.00000000000E+00 -0.00000000000E+00 -0.34996269501E-01  0.35000000000E-01  0.51099999109E-03 0. -1.
       22    1    1    2    0    0  0.63322855599E-03 -0.15803095561E-02  0.34543228573E-01  0.34585155731E-01  0.00000000000E+00 0.  1.
       22    1    1    2    0    0 -0.56552982583E-05 -0.27795076265E-04  0.41402492230E-03  0.41499540353E-03  0.00000000000E+00 0.  1.
       22    1    1    2    0    0 -0.62757325773E-03  0.16081046323E-02 -0.34957253495E-01  0.34999848866E-01  0.00000000000E+00 0. -1.
</event>
<event>
 5   0  0.1496444E+06  0.9118800E+02  0.7546771E-02  0.1180000E+00
      -11   -1    0    0    0    0  0.00000000000E+00  0.00000000000E+00  0.34996269501E-01  0.35000000000E-01  0.51099999109E-03 0. -1.
       11   -1    0    0    0    0 -0.00000000000E+00 -0.00000000000E+00 -0.34996269501E-01  0.35000000000E-01  0.51099999109E-03 0.  1.
       22    1    1    2    0    0  0.23767380733E-04 -0.22451115056E-04  0.49544394903E-05  0.33067921386E-04  0.00000000000E+00 0. -1.
       22    1    1    2    0    0  0.30036635713E-02  0.12254343446E-02 -0.34834571585E-01  0.34985297793E-01  0.00000000000E+00 0.  1.
       22    1    1    2    0    0 -0.30274309520E-02 -0.12029832296E-02  0.34829617145E-01  0.34981634286E-01  0.00000000000E+00 0. -1.
</event>
<event>
 5   0  0.1496444E+06  0.9118800E+02  0.7546771E-02  0.1180000E+00
      -11   -1    0    0    0    0  0.00000000000E+00  0.00000000000E+00  0.34996269501E-01  0.35000000000E-01  0.51099999109E-03 0. -1.
       11   -1    0    0    0    0 -0.00000000000E+00 -0.00000000000E+00 -0.34996269501E-01  0.35000000000E-01  0.51099999109E-03 0.  1.
       22    1    1    2    0    0  0.72929968348E-03 -0.76298437280E-02  0.34150328861E-01  0.34999876495E-01  0.00000000000E+00 0. -1.
       22    1    1    2    0    0 -0.10218038392E-06 -0.57166574983E-07  0.90745305568E-07  0.14813358375E-06  0.00000000000E+00 0. -1.
       22    1    1    2    0    0 -0.72919750310E-03  0.76299008945E-02 -0.34150419607E-01  0.34999975371E-01  0.00000000000E+00 0.  1.
</event>
<event>
 5   0  0.1496444E+06  0.9118800E+02  0.7546771E-02  0.1180000E+00
      -11   -1    0    0    0    0  0.00000000000E+00  0.00000000000E+00  0.34996269501E-01  0.35000000000E-01  0.51099999109E-03 0. -1.
       11   -1    0    0    0    0 -0.00000000000E+00 -0.00000000000E+00 -0.34996269501E-01  0.35000000000E-01  0.51099999109E-03 0.  1.
       22    1    1    2    0    0  0.14174749145E-03  0.16807542770E-02  0.11367666866E-01  0.11492122400E-01  0.00000000000E+00 0. -1.
       22    1    1    2    0    0 -0.36835805944E-03 -0.15955669903E-02 -0.34917961896E-01  0.34956338261E-01  0.00000000000E+00 0.  1.
       22    1    1    2    0    0  0.22661056799E-03 -0.85187286673E-04  0.23550295030E-01  0.23551539338E-01  0.00000000000E+00 0. -1.
</event>
<event>
 5   0  0.1496444E+06  0.9118800E+02  0.7546771E-02  0.1180000E+00
      -11   -1    0    0    0    0  0.00000000000E+00  0.00000000000E+00  0.34996269501E-01  0.35000000000E-01  0.51099999109E-03 0.  1.
       11   -1    0    0    0    0 -0.00000000000E+00 -0.00000000000E+00 -0.34996269501E-01  0.35000000000E-01  0.51099999109E-03 0. -1.
       22    1    1    2    0    0 -0.33519619633E-03  0.52778325241E-03  0.34972108762E-01  0.34977697222E-01  0.00000000000E+00 0.  1.
       22    1    1    2    0    0  0.50771036511E-03 -0.29027193715E-03 -0.34040835163E-01  0.34045858576E-01  0.00000000000E+00 0. -1.
       22    1    1    2    0    0 -0.17251416878E-03 -0.23751131526E-03 -0.93127359925E-03  0.97644420217E-03  0.00000000000E+00 0.  1.
</event>
<event>
 5   0  0.1496444E+06  0.9118800E+02  0.7546771E-02  0.1180000E+00
      -11   -1    0    0    0    0  0.00000000000E+00  0.00000000000E+00  0.34996269501E-01  0.35000000000E-01  0.51099999109E-03 0. -1.
       11   -1    0    0    0    0 -0.00000000000E+00 -0.00000000000E+00 -0.34996269501E-01  0.35000000000E-01  0.51099999109E-03 0.  1.
       22    1    1    2    0    0  0.23852236004E-02 -0.13071944825E-01  0.32379378534E-01  0.34999845534E-01  0.00000000000E+00 0. -1.
       22    1    1    2    0    0 -0.23852400447E-02  0.13071914921E-01 -0.32379542401E-01  0.34999987084E-01  0.00000000000E+00 0.  1.
       22    1    1    2    0    0  0.16444250935E-07  0.29903586856E-07  0.16386667561E-06  0.16738257159E-06  0.00000000000E+00 0. -1.
</event>
<event>
 5   0  0.1496444E+06  0.9118800E+02  0.7546771E-02  0.1180000E+00
      -11   -1    0    0    0    0  0.00000000000E+00  0.00000000000E+00  0.34996269501E-01  0.35000000000E-01  0.51099999109E-03 0. -1.
       11   -1    0    0    0    0 -0.00000000000E+00 -0.00000000000E+00 -0.34996269501E-01  0.35000000000E-01  0.51099999109E-03 0.  1.
       22    1    1    2    0    0 -0.18983498694E-01 -0.17822390982E-02 -0.29350409344E-01  0.34999944679E-01  0.00000000000E+00 0.  1.
       22    1    1    2    0    0 -0.94294750517E-08 -0.31272442106E-07  0.63871394909E-06  0.63954858252E-06  0.00000000000E+00 0. -1.
       22    1    1    2    0    0  0.18983508124E-01  0.17822703707E-02  0.29349770630E-01  0.34999415772E-01  0.00000000000E+00 0. -1.
</event>
<event>
 5   0  0.1496444E+06  0.9118800E+02  0.7546771E-02  0.1180000E+00
      -11   -1    0    0    0    0  0.00000000000E+00  0.00000000000E+00  0.34996269501E-01  0.35000000000E-01  0.51099999109E-03 0. -1.
       11   -1    0    0    0    0 -0.00000000000E+00 -0.00000000000E+00 -0.34996269501E-01  0.35000000000E-01  0.51099999109E-03 0.  1.
       22    1    1    2    0    0  0.72929710166E-02  0.11503247779E-01  0.32241084281E-01  0.34999995019E-01  0.00000000000E+00 0. -1.
       22    1    1    2    0    0  0.19474612421E-08 -0.10996557587E-07  0.19849715235E-08  0.11342706732E-07  0.00000000000E+00 0.  1.
       22    1    1    2    0    0 -0.72929729641E-02 -0.11503236782E-01 -0.32241086266E-01  0.34999993639E-01  0.00000000000E+00 0.  1.
</event>
<event>
 5   0  0.1496444E+06  0.9118800E+02  0.7546771E-02  0.1180000E+00
      -11   -1    0    0    0    0  0.00000000000E+00  0.00000000000E+00  0.34996269501E-01  0.35000000000E-01  0.51099999109E-03 0. -1.
       11   -1    0    0    0    0 -0.00000000000E+00 -0.00000000000E+00 -0.34996269501E-01  0.35000000000E-01  0.51099999109E-03 0.  1.
       22    1    1    2    0    0 -0.39697313734E-04 -0.23030469710E-02 -0.34924121385E-01  0.34999997939E-01  0.00000000000E+00 0.  1.
       22    1    1    2    0    0  0.39781405558E-04  0.23029946374E-02  0.34921558040E-01  0.34997436803E-01  0.00000000000E+00 0. -1.
       22    1    1    2    0    0 -0.84091824676E-07  0.52333655456E-07  0.25633446957E-05  0.25652575456E-05  0.00000000000E+00 0. -1.
</event>
<event>
 5   0  0.1496444E+06  0.9118800E+02  0.7546771E-02  0.1180000E+00
      -11   -1    0    0    0    0  0.00000000000E+00  0.00000000000E+00  0.34996269501E-01  0.35000000000E-01  0.51099999109E-03 0. -1.
       11   -1    0    0    0    0 -0.00000000000E+00 -0.00000000000E+00 -0.34996269501E-01  0.35000000000E-01  0.51099999109E-03 0.  1.
       22    1    1    2    0    0  0.14839514443E-01  0.11389489350E-01 -0.29581553846E-01  0.34999999778E-01  0.00000000000E+00 0.  1.
       22    1    1    2    0    0 -0.14839509949E-01 -0.11389486185E-01  0.29581549690E-01  0.34999993331E-01  0.00000000000E+00 0. -1.
       22    1    1    2    0    0 -0.44942033105E-08 -0.31651843737E-08  0.41551997264E-08  0.68907140618E-08  0.00000000000E+00 0.  1.
</event>
<event>
 5   0  0.1496444E+06  0.9118800E+02  0.7546771E-02  0.1180000E+00
      -11   -1    0    0    0    0  0.00000000000E+00  0.00000000000E+00  0.34996269501E-01  0.35000000000E-01  0.51099999109E-03 0. -1.
       11   -1    0    0    0    0 -0.00000000000E+00 -0.00000000000E+00 -0.34996269501E-01  0.35000000000E-01  0.51099999109E-03 0.  1.
       22    1    1    2    0    0 -0.83251094403E-03  0.68192639505E-04  0.34990027168E-01  0.34999996085E-01  0.00000000000E+00 0. -1.
       22    1    1    2    0    0  0.83250859371E-03 -0.68190403899E-04 -0.34990030447E-01  0.34999999303E-01  0.00000000000E+00 0.  1.
       22    1    1    2    0    0  0.23503186226E-08 -0.22356059884E-08  0.32791818793E-08  0.46124793290E-08  0.00000000000E+00 0. -1.
</event>
<event>
 5   0  0.1496444E+06  0.9118800E+02  0.7546771E-02  0.1180000E+00
      -11   -1    0    0    0    0  0.00000000000E+00  0.00000000000E+00  0.34996269501E-01  0.35000000000E-01  0.51099999109E-03 0.  1.
       11   -1    0    0    0    0 -0.00000000000E+00 -0.00000000000E+00 -0.34996269501E-01  0.35000000000E-01  0.51099999109E-03 0.  1.
       22    1    1    2    0    0 -0.15076602222E-05 -0.37694258829E-06  0.15494247237E-05  0.21945026851E-05  0.00000000000E+00 0. -1.
       22    1    1    2    0    0 -0.80368883939E-10 -0.20093688674E-10 -0.34999677874E-01  0.34999677444E-01  0.00000000000E+00 0.  1.
       22    1    1    2    0    0  0.15077405910E-05  0.37696268198E-06  0.34998128449E-01  0.34998128054E-01  0.00000000000E+00 0.  1.
</event>
<event>
 5   0  0.1496444E+06  0.9118800E+02  0.7546771E-02  0.1180000E+00
      -11   -1    0    0    0    0  0.00000000000E+00  0.00000000000E+00  0.34996269501E-01  0.35000000000E-01  0.51099999109E-03 0. -1.
       11   -1    0    0    0    0 -0.00000000000E+00 -0.00000000000E+00 -0.34996269501E-01  0.35000000000E-01  0.51099999109E-03 0. -1.
       22    1    1    2    0    0 -0.86493661432E-03 -0.54670736846E-03  0.34973482823E-01  0.34988448166E-01  0.00000000000E+00 0. -1.
       22    1    1    2    0    0 -0.53997550671E-04 -0.25722467848E-04 -0.73412371504E-04  0.94692962360E-04  0.00000000000E+00 0. -1.
       22    1    1    2    0    0  0.91893416499E-03  0.57242983631E-03 -0.34900070452E-01  0.34916858871E-01  0.00000000000E+00 0. -1.
</event>
<event>
 5   0  0.1496444E+06  0.9118800E+02  0.7546771E-02  0.1180000E+00
      -11   -1    0    0    0    0  0.00000000000E+00  0.00000000000E+00  0.34996269501E-01  0.35000000000E-01  0.51099999109E-03 0.  1.
       11   -1    0    0    0    0 -0.00000000000E+00 -0.00000000000E+00 -0.34996269501E-01  0.35000000000E-01  0.51099999109E-03 0. -1.
       22    1    1    2    0    0 -0.31552180688E-05  0.10517617273E-02 -0.32631714302E-01  0.32648659865E-01  0.00000000000E+00 0. -1.
       22    1    1    2    0    0  0.57924972043E-03  0.14620821715E-02 -0.20444852490E-02  0.25793670635E-02  0.00000000000E+00 0. -1.
       22    1    1    2    0    0 -0.57609450236E-03 -0.25138438988E-02  0.34676199551E-01  0.34771973072E-01  0.00000000000E+00 0.  1.
</event>
<event>
 5   0  0.1496444E+06  0.9118800E+02  0.7546771E-02  0.1180000E+00
      -11   -1    0    0    0    0  0.00000000000E+00  0.00000000000E+00  0.34996269501E-01  0.35000000000E-01  0.51099999109E-03 0. -1.
       11   -1    0    0    0    0 -0.00000000000E+00 -0.00000000000E+00 -0.34996269501E-01  0.35000000000E-01  0.51099999109E-03 0.  1.
       22    1    1    2    0    0  0.58234486230E-03 -0.12508581073E-02 -0.34756465948E-01  0.34783842467E-01  0.00000000000E+00 0.  1.
       22    1    1    2    0    0  0.13054229434E-03  0.14593583664E-02  0.34326853899E-01  0.34358109185E-01  0.00000000000E+00 0. -1.
       22    1    1    2    0    0 -0.71288715664E-03 -0.20850025907E-03  0.42961204890E-03  0.85804834870E-03  0.00000000000E+00 0. -1.
</event>
<event>
 5   0  0.1496444E+06  0.9118800E+02  0.7546771E-02  0.1180000E+00
      -11   -1    0    0    0    0  0.00000000000E+00  0.00000000000E+00  0.34996269501E-01  0.35000000000E-01  0.51099999109E-03 0.  1.
       11   -1    0    0    0    0 -0.00000000000E+00 -0.00000000000E+00 -0.34996269501E-01  0.35000000000E-01  0.51099999109E-03 0.  1.
       22    1    1    2    0    0 -0.11911439197E-03 -0.60450540702E-03  0.34994567386E-01  0.34999990880E-01  0.00000000000E+00 0.  1.
       22    1    1    2    0    0  0.13656184948E-08  0.76774780113E-08  0.75349927176E-08  0.10843647806E-07  0.00000000000E+00 0.  1.
       22    1    1    2    0    0  0.11911302635E-03  0.60449772954E-03 -0.34994574921E-01  0.34999998276E-01  0.00000000000E+00 0.  1.
</event>
<event>
 5   0  0.1496444E+06  0.9118800E+02  0.7546771E-02  0.1180000E+00
      -11   -1    0    0    0    0  0.00000000000E+00  0.00000000000E+00  0.34996269501E-01  0.35000000000E-01  0.51099999109E-03 0.  1.
       11   -1    0    0    0    0 -0.00000000000E+00 -0.00000000000E+00 -0.34996269501E-01  0.35000000000E-01  0.51099999109E-03 0. -1.
       22    1    1    2    0    0  0.56407382382E-02 -0.11288945445E-02 -0.34524011140E-01  0.34999995371E-01  0.00000000000E+00 0. -1.
       22    1    1    2    0    0 -0.38115327079E-07  0.88729944347E-07  0.33247777654E-06  0.34621850482E-06  0.00000000000E+00 0.  1.
       22    1    1    2    0    0 -0.56407001229E-02  0.11288058146E-02  0.34523678663E-01  0.34999658410E-01  0.00000000000E+00 0.  1.
</event>
<event>
 5   0  0.1496444E+06  0.9118800E+02  0.7546771E-02  0.1180000E+00
      -11   -1    0    0    0    0  0.00000000000E+00  0.00000000000E+00  0.34996269501E-01  0.35000000000E-01  0.51099999109E-03 0. -1.
       11   -1    0    0    0    0 -0.00000000000E+00 -0.00000000000E+00 -0.34996269501E-01  0.35000000000E-01  0.51099999109E-03 0.  1.
       22    1    1    2    0    0  0.31824894681E-02 -0.18903638418E-02  0.34803706667E-01  0.34999995891E-01  0.00000000000E+00 0. -1.
       22    1    1    2    0    0  0.40631794125E-09 -0.11706238477E-09  0.40874419833E-08  0.41092553874E-08  0.00000000000E+00 0. -1.
       22    1    1    2    0    0 -0.31824898744E-02  0.18903639588E-02 -0.34803710754E-01  0.34999999999E-01  0.00000000000E+00 0.  1.
</event>
<event>
 5   0  0.1496444E+06  0.9118800E+02  0.7546771E-02  0.1180000E+00
      -11   -1    0    0    0    0  0.00000000000E+00  0.00000000000E+00  0.34996269501E-01  0.35000000000E-01  0.51099999109E-03 0. -1.
       11   -1    0    0    0    0 -0.00000000000E+00 -0.00000000000E+00 -0.34996269501E-01  0.35000000000E-01  0.51099999109E-03 0.  1.
       22    1    1    2    0    0  0.16632268615E-02  0.43073678961E-02 -0.34693241313E-01  0.34999153341E-01  0.00000000000E+00 0.  1.
       22    1    1    2    0    0 -0.31388225785E-06  0.11554220309E-05 -0.32757853758E-06  0.12413016714E-05  0.00000000000E+00 0. -1.
       22    1    1    2    0    0 -0.16629129793E-02 -0.43085233181E-02  0.34693568891E-01  0.34999605357E-01  0.00000000000E+00 0. -1.
</event>
<event>
 5   0  0.1496444E+06  0.9118800E+02  0.7546771E-02  0.1180000E+00
      -11   -1    0    0    0    0  0.00000000000E+00  0.00000000000E+00  0.34996269501E-01  0.35000000000E-01  0.51099999109E-03 0. -1.
       11   -1    0    0    0    0 -0.00000000000E+00 -0.00000000000E+00 -0.34996269501E-01  0.35000000000E-01  0.51099999109E-03 0.  1.
       22    1    1    2    0    0 -0.23190675481E-01  0.55494422656E-02 -0.18700671095E-01  0.30303775971E-01  0.00000000000E+00 0.  1.
       22    1    1    2    0    0 -0.22877164123E-02 -0.14966733941E-02 -0.43249756900E-02  0.51165508256E-02  0.00000000000E+00 0.  1.
       22    1    1    2    0    0  0.25478391893E-01 -0.40527688716E-02  0.23025646785E-01  0.34579673203E-01  0.00000000000E+00 0. -1.
</event>
<event>
 5   0  0.1496444E+06  0.9118800E+02  0.7546771E-02  0.1180000E+00
      -11   -1    0    0    0    0  0.00000000000E+00  0.00000000000E+00  0.34996269501E-01  0.35000000000E-01  0.51099999109E-03 0. -1.
       11   -1    0    0    0    0 -0.00000000000E+00 -0.00000000000E+00 -0.34996269501E-01  0.35000000000E-01  0.51099999109E-03 0.  1.
       22    1    1    2    0    0 -0.65480103622E-02  0.17474778886E-01 -0.29606024400E-01  0.34996585799E-01  0.00000000000E+00 0.  1.
       22    1    1    2    0    0  0.65562696880E-02 -0.17475204483E-01  0.29582180301E-01  0.34978176558E-01  0.00000000000E+00 0. -1.
       22    1    1    2    0    0 -0.82593258008E-05  0.42559682562E-06  0.23844098675E-04  0.25237643253E-04  0.00000000000E+00 0.  1.
</event>
<event>
 5   0  0.1496444E+06  0.9118800E+02  0.7546771E-02  0.1180000E+00
      -11   -1    0    0    0    0  0.00000000000E+00  0.00000000000E+00  0.34996269501E-01  0.35000000000E-01  0.51099999109E-03 0.  1.
       11   -1    0    0    0    0 -0.00000000000E+00 -0.00000000000E+00 -0.34996269501E-01  0.35000000000E-01  0.51099999109E-03 0. -1.
       22    1    1    2    0    0  0.76025615202E-04 -0.65334369863E-05  0.16250355538E-03  0.17952711627E-03  0.00000000000E+00 0. -1.
       22    1    1    2    0    0  0.61307147497E-02  0.19692216029E-02  0.34223351898E-01  0.34823861247E-01  0.00000000000E+00 0.  1.
       22    1    1    2    0    0 -0.62067403649E-02 -0.19626881659E-02 -0.34385855453E-01  0.34996611636E-01  0.00000000000E+00 0. -1.
</event>
<event>
 5   0  0.1496444E+06  0.9118800E+02  0.7546771E-02  0.1180000E+00
      -11   -1    0    0    0    0  0.00000000000E+00  0.00000000000E+00  0.34996269501E-01  0.35000000000E-01  0.51099999109E-03 0.  1.
       11   -1    0    0    0    0 -0.00000000000E+00 -0.00000000000E+00 -0.34996269501E-01  0.35000000000E-01  0.51099999109E-03 0. -1.
       22    1    1    2    0    0  0.22476610035E-01 -0.14660099134E-01  0.22469611329E-01  0.34999999122E-01  0.00000000000E+00 0.  1.
       22    1    1    2    0    0  0.49315275890E-09 -0.25849923457E-09  0.69034434506E-09  0.88690293304E-09  0.00000000000E+00 0.  1.
       22    1    1    2    0    0 -0.22476610529E-01  0.14660099393E-01 -0.22469612019E-01  0.34999999991E-01  0.00000000000E+00 0. -1.
</event>
<event>
 5   0  0.1496444E+06  0.9118800E+02  0.7546771E-02  0.1180000E+00
      -11   -1    0    0    0    0  0.00000000000E+00  0.00000000000E+00  0.34996269501E-01  0.35000000000E-01  0.51099999109E-03 0. -1.
       11   -1    0    0    0    0 -0.00000000000E+00 -0.00000000000E+00 -0.34996269501E-01  0.35000000000E-01  0.51099999109E-03 0. -1.
       22    1    1    2    0    0 -0.47306886977E-02  0.12564477517E-01  0.22242681811E-01  0.25980423495E-01  0.00000000000E+00 0. -1.
       22    1    1    2    0    0  0.49826580461E-02 -0.12633209357E-01  0.66532117492E-02  0.15122502651E-01  0.00000000000E+00 0.  1.
       22    1    1    2    0    0 -0.25196934840E-03  0.68731839359E-04 -0.28895893561E-01  0.28897073853E-01  0.00000000000E+00 0. -1.
</event>
<event>
 5   0  0.1496444E+06  0.9118800E+02  0.7546771E-02  0.1180000E+00
      -11   -1    0    0    0    0  0.00000000000E+00  0.00000000000E+00  0.34996269501E-01  0.35000000000E-01  0.51099999109E-03 0. -1.
       11   -1    0    0    0    0 -0.00000000000E+00 -0.00000000000E+00 -0.34996269501E-01  0.35000000000E-01  0.51099999109E-03 0.  1.
       22    1    1    2    0    0 -0.22794955242E-02  0.86519653397E-03 -0.34664306197E-01  0.34749946605E-01  0.00000000000E+00 0.  1.
       22    1    1    2    0    0  0.24194434448E-02 -0.62593749588E-03  0.34834999412E-01  0.34924528463E-01  0.00000000000E+00 0. -1.
       22    1    1    2    0    0 -0.13994792058E-03 -0.23925903809E-03 -0.17069321514E-03  0.32552493219E-03  0.00000000000E+00 0. -1.
</event>
<event>
 5   0  0.1496444E+06  0.9118800E+02  0.7546771E-02  0.1180000E+00
      -11   -1    0    0    0    0  0.00000000000E+00  0.00000000000E+00  0.34996269501E-01  0.35000000000E-01  0.51099999109E-03 0. -1.
       11   -1    0    0    0    0 -0.00000000000E+00 -0.00000000000E+00 -0.34996269501E-01  0.35000000000E-01  0.51099999109E-03 0.  1.
       22    1    1    2    0    0  0.39992116822E-02 -0.61459469678E-02  0.34221397149E-01  0.34998148251E-01  0.00000000000E+00 0. -1.
       22    1    1    2    0    0  0.43276992945E-06 -0.27588428735E-06  0.17864936007E-05  0.18587526294E-05  0.00000000000E+00 0. -1.
       22    1    1    2    0    0 -0.39996444521E-02  0.61462228521E-02 -0.34223183642E-01  0.34999992996E-01  0.00000000000E+00 0.  1.
</event>
<event>
 5   0  0.1496444E+06  0.9118800E+02  0.7546771E-02  0.1180000E+00
      -11   -1    0    0    0    0  0.00000000000E+00  0.00000000000E+00  0.34996269501E-01  0.35000000000E-01  0.51099999109E-03 0.  1.
       11   -1    0    0    0    0 -0.00000000000E+00 -0.00000000000E+00 -0.34996269501E-01  0.35000000000E-01  0.51099999109E-03 0. -1.
       22    1    1    2    0    0 -0.19931102558E-01  0.32017337932E-02  0.28591849003E-01  0.34999911112E-01  0.00000000000E+00 0.  1.
       22    1    1    2    0    0  0.12462687416E-07 -0.19144687784E-07  0.10131482760E-06  0.10385823000E-06  0.00000000000E+00 0.  1.
       22    1    1    2    0    0  0.19931090096E-01 -0.32017146485E-02 -0.28591950318E-01  0.34999985029E-01  0.00000000000E+00 0. -1.
</event>
<event>
 5   0  0.1496444E+06  0.9118800E+02  0.7546771E-02  0.1180000E+00
      -11   -1    0    0    0    0  0.00000000000E+00  0.00000000000E+00  0.34996269501E-01  0.35000000000E-01  0.51099999109E-03 0.  1.
       11   -1    0    0    0    0 -0.00000000000E+00 -0.00000000000E+00 -0.34996269501E-01  0.35000000000E-01  0.51099999109E-03 0. -1.
       22    1    1    2    0    0 -0.22557800700E-03  0.20306303418E-02  0.34940298998E-01  0.34999983415E-01  0.00000000000E+00 0.  1.
       22    1    1    2    0    0  0.22557803051E-03 -0.20306275699E-02 -0.34940315562E-01  0.34999999790E-01  0.00000000000E+00 0. -1.
       22    1    1    2    0    0 -0.23501852782E-10 -0.27719538427E-08  0.16564101404E-07  0.16794455507E-07  0.00000000000E+00 0.  1.
</event>
<event>
 5   0  0.1496444E+06  0.9118800E+02  0.7546771E-02  0.1180000E+00
      -11   -1    0    0    0    0  0.00000000000E+00  0.00000000000E+00  0.34996269501E-01  0.35000000000E-01  0.51099999109E-03 0. -1.
       11   -1    0    0    0    0 -0.00000000000E+00 -0.00000000000E+00 -0.34996269501E-01  0.35000000000E-01  0.51099999109E-03 0.  1.
       22    1    1    2    0    0 -0.10264220449E-01  0.43370947469E-02 -0.32999910833E-01  0.34830428181E-01  0.00000000000E+00 0.  1.
       22    1    1    2    0    0 -0.21790348146E-03 -0.39915002389E-03  0.48963659095E-02  0.49174385394E-02  0.00000000000E+00 0. -1.
       22    1    1    2    0    0  0.10482123930E-01 -0.39379447230E-02  0.28103544923E-01  0.30252133280E-01  0.00000000000E+00 0. -1.
</event>
<event>
 5   0  0.1496444E+06  0.9118800E+02  0.7546771E-02  0.1180000E+00
      -11   -1    0    0    0    0  0.00000000000E+00  0.00000000000E+00  0.34996269501E-01  0.35000000000E-01  0.51099999109E-03 0.  1.
       11   -1    0    0    0    0 -0.00000000000E+00 -0.00000000000E+00 -0.34996269501E-01  0.35000000000E-01  0.51099999109E-03 0. -1.
       22    1    1    2    0    0 -0.29792007334E-02 -0.29437137480E-02  0.34280943446E-01  0.34535838938E-01  0.00000000000E+00 0.  1.
       22    1    1    2    0    0 -0.12325580146E-04  0.10873193273E-04  0.46564239213E-03  0.46593238094E-03  0.00000000000E+00 0.  1.
       22    1    1    2    0    0  0.29915263135E-02  0.29328405548E-02 -0.34746585838E-01  0.34998228681E-01  0.00000000000E+00 0. -1.
</event>
<event>
 5   0  0.1496444E+06  0.9118800E+02  0.7546771E-02  0.1180000E+00
      -11   -1    0    0    0    0  0.00000000000E+00  0.00000000000E+00  0.34996269501E-01  0.35000000000E-01  0.51099999109E-03 0. -1.
       11   -1    0    0    0    0 -0.00000000000E+00 -0.00000000000E+00 -0.34996269501E-01  0.35000000000E-01  0.51099999109E-03 0.  1.
       22    1    1    2    0    0  0.47725014037E-02 -0.65980112982E-02  0.58301611638E-02  0.10015053766E-01  0.00000000000E+00 0. -1.
       22    1    1    2    0    0 -0.49317143951E-02  0.69606003382E-02 -0.32353200806E-01  0.33458950467E-01  0.00000000000E+00 0.  1.
       22    1    1    2    0    0  0.15921299139E-03 -0.36258904006E-03  0.26523039642E-01  0.26525995767E-01  0.00000000000E+00 0. -1.
</event>
<event>
 5   0  0.1496444E+06  0.9118800E+02  0.7546771E-02  0.1180000E+00
      -11   -1    0    0    0    0  0.00000000000E+00  0.00000000000E+00  0.34996269501E-01  0.35000000000E-01  0.51099999109E-03 0. -1.
       11   -1    0    0    0    0 -0.00000000000E+00 -0.00000000000E+00 -0.34996269501E-01  0.35000000000E-01  0.51099999109E-03 0.  1.
       22    1    1    2    0    0  0.70111883294E-03 -0.62307467623E-03 -0.34850846625E-01  0.34863466553E-01  0.00000000000E+00 0.  1.
       22    1    1    2    0    0 -0.68885648948E-03  0.43101410893E-03  0.34921923466E-01  0.34931376083E-01  0.00000000000E+00 0. -1.
       22    1    1    2    0    0 -0.12262343456E-04  0.19206056731E-03 -0.71076841880E-04  0.20515736407E-03  0.00000000000E+00 0. -1.
</event>
<event>
 5   0  0.1496444E+06  0.9118800E+02  0.7546771E-02  0.1180000E+00
      -11   -1    0    0    0    0  0.00000000000E+00  0.00000000000E+00  0.34996269501E-01  0.35000000000E-01  0.51099999109E-03 0. -1.
       11   -1    0    0    0    0 -0.00000000000E+00 -0.00000000000E+00 -0.34996269501E-01  0.35000000000E-01  0.51099999109E-03 0.  1.
       22    1    1    2    0    0 -0.62299206963E-05 -0.25733318395E-03 -0.25230025836E-03  0.36043667938E-03  0.00000000000E+00 0. -1.
       22    1    1    2    0    0  0.14237381644E-01  0.27917288341E-02  0.31791498735E-01  0.34945617433E-01  0.00000000000E+00 0. -1.
       22    1    1    2    0    0 -0.14231151723E-01 -0.25343956502E-02 -0.31539198477E-01  0.34693945887E-01  0.00000000000E+00 0.  1.
</event>
<event>
 5   0  0.1496444E+06  0.9118800E+02  0.7546771E-02  0.1180000E+00
      -11   -1    0    0    0    0  0.00000000000E+00  0.00000000000E+00  0.34996269501E-01  0.35000000000E-01  0.51099999109E-03 0.  1.
       11   -1    0    0    0    0 -0.00000000000E+00 -0.00000000000E+00 -0.34996269501E-01  0.35000000000E-01  0.51099999109E-03 0.  1.
       22    1    1    2    0    0  0.30446131633E-07  0.98012101596E-07  0.18067313846E-08  0.10264795794E-06  0.00000000000E+00 0.  1.
       22    1    1    2    0    0  0.26546970693E-11  0.85459933629E-11 -0.35002321954E-01  0.34999949579E-01  0.00000000000E+00 0.  1.
       22    1    1    2    0    0 -0.30448786330E-07 -0.98020647590E-07  0.35002320147E-01  0.34999947773E-01  0.00000000000E+00 0.  1.
</event>
<event>
 5   0  0.1496444E+06  0.9118800E+02  0.7546771E-02  0.1180000E+00
      -11   -1    0    0    0    0  0.00000000000E+00  0.00000000000E+00  0.34996269501E-01  0.35000000000E-01  0.51099999109E-03 0. -1.
       11   -1    0    0    0    0 -0.00000000000E+00 -0.00000000000E+00 -0.34996269501E-01  0.35000000000E-01  0.51099999109E-03 0.  1.
       22    1    1    2    0    0 -0.11655556347E-04 -0.86135087157E-04 -0.53299753470E-03  0.54003840348E-03  0.00000000000E+00 0.  1.
       22    1    1    2    0    0  0.19105436306E-02  0.97358250628E-02 -0.33028850569E-01  0.34486829900E-01  0.00000000000E+00 0.  1.
       22    1    1    2    0    0 -0.18988880743E-02 -0.96496899757E-02  0.33561848104E-01  0.34973131697E-01  0.00000000000E+00 0. -1.
</event>
<event>
 5   0  0.1496444E+06  0.9118800E+02  0.7546771E-02  0.1180000E+00
      -11   -1    0    0    0    0  0.00000000000E+00  0.00000000000E+00  0.34996269501E-01  0.35000000000E-01  0.51099999109E-03 0. -1.
       11   -1    0    0    0    0 -0.00000000000E+00 -0.00000000000E+00 -0.34996269501E-01  0.35000000000E-01  0.51099999109E-03 0.  1.
       22    1    1    2    0    0 -0.25872408553E-02  0.33810912391E-02  0.33260503007E-01  0.33531875186E-01  0.00000000000E+00 0. -1.
       22    1    1    2    0    0  0.16843803690E-02 -0.31417668753E-02 -0.34628589814E-01  0.34811593885E-01  0.00000000000E+00 0.  1.
       22    1    1    2    0    0  0.90286048631E-03 -0.23932436379E-03  0.13680868071E-02  0.16565309295E-02  0.00000000000E+00 0.  1.
</event>
<event>
 5   0  0.1496444E+06  0.9118800E+02  0.7546771E-02  0.1180000E+00
      -11   -1    0    0    0    0  0.00000000000E+00  0.00000000000E+00  0.34996269501E-01  0.35000000000E-01  0.51099999109E-03 0. -1.
       11   -1    0    0    0    0 -0.00000000000E+00 -0.00000000000E+00 -0.34996269501E-01  0.35000000000E-01  0.51099999109E-03 0.  1.
       22    1    1    2    0    0  0.21987772008E-02  0.70483630422E-02 -0.34165038149E-01  0.34953739063E-01  0.00000000000E+00 0.  1.
       22    1    1    2    0    0 -0.22032509386E-02 -0.71108788808E-02  0.34180432722E-01  0.34981722287E-01  0.00000000000E+00 0. -1.
       22    1    1    2    0    0  0.44737377729E-05  0.62515838661E-04 -0.15394572129E-04  0.64538649383E-04  0.00000000000E+00 0. -1.
</event>
<event>
 5   0  0.1496444E+06  0.9118800E+02  0.7546771E-02  0.1180000E+00
      -11   -1    0    0    0    0  0.00000000000E+00  0.00000000000E+00  0.34996269501E-01  0.35000000000E-01  0.51099999109E-03 0. -1.
       11   -1    0    0    0    0 -0.00000000000E+00 -0.00000000000E+00 -0.34996269501E-01  0.35000000000E-01  0.51099999109E-03 0.  1.
       22    1    1    2    0    0  0.19465123187E-01  0.46360267262E-02  0.28716085143E-01  0.34999961577E-01  0.00000000000E+00 0. -1.
       22    1    1    2    0    0 -0.19465126785E-01 -0.46360265854E-02 -0.28716126179E-01  0.34999997228E-01  0.00000000000E+00 0.  1.
       22    1    1    2    0    0  0.35978162890E-08 -0.14075526238E-09  0.41036778652E-07  0.41194432830E-07  0.00000000000E+00 0. -1.
</event>
<event>
 5   0  0.1496444E+06  0.9118800E+02  0.7546771E-02  0.1180000E+00
      -11   -1    0    0    0    0  0.00000000000E+00  0.00000000000E+00  0.34996269501E-01  0.35000000000E-01  0.51099999109E-03 0.  1.
       11   -1    0    0    0    0 -0.00000000000E+00 -0.00000000000E+00 -0.34996269501E-01  0.35000000000E-01  0.51099999109E-03 0. -1.
       22    1    1    2    0    0  0.26870175546E-03  0.13780339809E-01 -0.32171881523E-01  0.34999998951E-01  0.00000000000E+00 0. -1.
       22    1    1    2    0    0 -0.52679235665E-08 -0.46240425890E-10  0.89914606362E-08  0.10421109406E-07  0.00000000000E+00 0. -1.
       22    1    1    2    0    0 -0.26869648753E-03 -0.13780339763E-01  0.32171872531E-01  0.34999990628E-01  0.00000000000E+00 0.  1.
</event>
<event>
 5   0  0.1496444E+06  0.9118800E+02  0.7546771E-02  0.1180000E+00
      -11   -1    0    0    0    0  0.00000000000E+00  0.00000000000E+00  0.34996269501E-01  0.35000000000E-01  0.51099999109E-03 0. -1.
       11   -1    0    0    0    0 -0.00000000000E+00 -0.00000000000E+00 -0.34996269501E-01  0.35000000000E-01  0.51099999109E-03 0. -1.
       22    1    1    2    0    0 -0.36767719394E-03 -0.10402699123E-02  0.34956165245E-01  0.34973573404E-01  0.00000000000E+00 0. -1.
       22    1    1    2    0    0 -0.33574537178E-05  0.41407361173E-03 -0.31065655604E-01  0.31068415253E-01  0.00000000000E+00 0. -1.
       22    1    1    2    0    0  0.37103464766E-03  0.62619630055E-03 -0.38905096419E-02  0.39580113429E-02  0.00000000000E+00 0. -1.
</event>
<event>
 5   0  0.1496444E+06  0.9118800E+02  0.7546771E-02  0.1180000E+00
      -11   -1    0    0    0    0  0.00000000000E+00  0.00000000000E+00  0.34996269501E-01  0.35000000000E-01  0.51099999109E-03 0.  1.
       11   -1    0    0    0    0 -0.00000000000E+00 -0.00000000000E+00 -0.34996269501E-01  0.35000000000E-01  0.51099999109E-03 0.  1.
       22    1    1    2    0    0 -0.99544186181E-11 -0.65497748734E-12 -0.35002613166E-01  0.34999967999E-01  0.00000000000E+00 0.  1.
       22    1    1    2    0    0 -0.10928013697E-06 -0.71903776878E-08  0.61689711623E-07  0.12569594419E-06  0.00000000000E+00 0.  1.
       22    1    1    2    0    0  0.10929009139E-06  0.71910326653E-08  0.35002551476E-01  0.34999906305E-01  0.00000000000E+00 0.  1.
</event>
<event>
 5   0  0.1496444E+06  0.9118800E+02  0.7546771E-02  0.1180000E+00
      -11   -1    0    0    0    0  0.00000000000E+00  0.00000000000E+00  0.34996269501E-01  0.35000000000E-01  0.51099999109E-03 0. -1.
       11   -1    0    0    0    0 -0.00000000000E+00 -0.00000000000E+00 -0.34996269501E-01  0.35000000000E-01  0.51099999109E-03 0.  1.
       22    1    1    2    0    0  0.12355846788E-04  0.40346774488E-05  0.16648701928E-04  0.21121667733E-04  0.00000000000E+00 0.  1.
       22    1    1    2    0    0 -0.17888819062E-02  0.21508508142E-02 -0.34885938072E-01  0.34997927551E-01  0.00000000000E+00 0.  1.
       22    1    1    2    0    0  0.17765260594E-02 -0.21548854916E-02  0.34869289371E-01  0.34980950781E-01  0.00000000000E+00 0. -1.
</event>
<event>
 5   0  0.1496444E+06  0.9118800E+02  0.7546771E-02  0.1180000E+00
      -11   -1    0    0    0    0  0.00000000000E+00  0.00000000000E+00  0.34996269501E-01  0.35000000000E-01  0.51099999109E-03 0.  1.
       11   -1    0    0    0    0 -0.00000000000E+00 -0.00000000000E+00 -0.34996269501E-01  0.35000000000E-01  0.51099999109E-03 0. -1.
       22    1    1    2    0    0  0.36085968282E-02  0.14768006521E-01 -0.31391516638E-01  0.34878980841E-01  0.00000000000E+00 0. -1.
       22    1    1    2    0    0  0.74018211728E-04  0.32148771604E-04 -0.10131417706E-03  0.12952529350E-03  0.00000000000E+00 0. -1.
       22    1    1    2    0    0 -0.36826150400E-02 -0.14800155293E-01  0.31492830815E-01  0.34991493866E-01  0.00000000000E+00 0.  1.
</event>
<event>
 5   0  0.1496444E+06  0.9118800E+02  0.7546771E-02  0.1180000E+00
      -11   -1    0    0    0    0  0.00000000000E+00  0.00000000000E+00  0.34996269501E-01  0.35000000000E-01  0.51099999109E-03 0.  1.
       11   -1    0    0    0    0 -0.00000000000E+00 -0.00000000000E+00 -0.34996269501E-01  0.35000000000E-01  0.51099999109E-03 0. -1.
       22    1    1    2    0    0 -0.11948071385E-01 -0.25230733108E-01 -0.16982436996E-01  0.32676435994E-01  0.00000000000E+00 0.  1.
       22    1    1    2    0    0 -0.96036492493E-03  0.58789663505E-03  0.80168094038E-02  0.80955022240E-02  0.00000000000E+00 0. -1.
       22    1    1    2    0    0  0.12908436310E-01  0.24642836473E-01  0.89656275918E-02  0.29228061782E-01  0.00000000000E+00 0. -1.
</event>
<event>
 5   0  0.1496444E+06  0.9118800E+02  0.7546771E-02  0.1180000E+00
      -11   -1    0    0    0    0  0.00000000000E+00  0.00000000000E+00  0.34996269501E-01  0.35000000000E-01  0.51099999109E-03 0.  1.
       11   -1    0    0    0    0 -0.00000000000E+00 -0.00000000000E+00 -0.34996269501E-01  0.35000000000E-01  0.51099999109E-03 0. -1.
       22    1    1    2    0    0  0.64279905826E-02  0.35884543930E-02  0.34216988204E-01  0.34999976423E-01  0.00000000000E+00 0.  1.
       22    1    1    2    0    0 -0.64279914324E-02 -0.35884725914E-02 -0.34217007342E-01  0.34999997154E-01  0.00000000000E+00 0. -1.
       22    1    1    2    0    0  0.84985510103E-09  0.18198384581E-07  0.19137223411E-07  0.26422278004E-07  0.00000000000E+00 0.  1.
</event>
<event>
 5   0  0.1496444E+06  0.9118800E+02  0.7546771E-02  0.1180000E+00
      -11   -1    0    0    0    0  0.00000000000E+00  0.00000000000E+00  0.34996269501E-01  0.35000000000E-01  0.51099999109E-03 0. -1.
       11   -1    0    0    0    0 -0.00000000000E+00 -0.00000000000E+00 -0.34996269501E-01  0.35000000000E-01  0.51099999109E-03 0.  1.
       22    1    1    2    0    0 -0.17634742141E-02  0.34738894404E-01 -0.33081202621E-02  0.34940582213E-01  0.00000000000E+00 0.  1.
       22    1    1    2    0    0  0.16614115758E-02 -0.34757833055E-01  0.32793558177E-02  0.34951701271E-01  0.00000000000E+00 0. -1.
       22    1    1    2    0    0  0.10206263825E-03  0.18938651311E-04  0.28764444329E-04  0.10771651637E-03  0.00000000000E+00 0. -1.
</event>
<event>
 5   0  0.1496444E+06  0.9118800E+02  0.7546771E-02  0.1180000E+00
      -11   -1    0    0    0    0  0.00000000000E+00  0.00000000000E+00  0.34996269501E-01  0.35000000000E-01  0.51099999109E-03 0. -1.
       11   -1    0    0    0    0 -0.00000000000E+00 -0.00000000000E+00 -0.34996269501E-01  0.35000000000E-01  0.51099999109E-03 0.  1.
       22    1    1    2    0    0  0.80131468836E-02  0.26345202972E-02  0.26566000531E-01  0.27872990589E-01  0.00000000000E+00 0. -1.
       22    1    1    2    0    0 -0.31787128592E-02  0.55411153430E-02  0.56572922568E-02  0.85330610196E-02  0.00000000000E+00 0. -1.
       22    1    1    2    0    0 -0.48344340244E-02 -0.81756356402E-02 -0.32223292787E-01  0.33593948391E-01  0.00000000000E+00 0.  1.
</event>
<event>
 5   0  0.1496444E+06  0.9118800E+02  0.7546771E-02  0.1180000E+00
      -11   -1    0    0    0    0  0.00000000000E+00  0.00000000000E+00  0.34996269501E-01  0.35000000000E-01  0.51099999109E-03 0. -1.
       11   -1    0    0    0    0 -0.00000000000E+00 -0.00000000000E+00 -0.34996269501E-01  0.35000000000E-01  0.51099999109E-03 0.  1.
       22    1    1    2    0    0 -0.34754445902E-05 -0.40911098268E-05  0.39262092758E-04  0.39627362043E-04  0.00000000000E+00 0. -1.
       22    1    1    2    0    0 -0.65336758601E-03 -0.74336158673E-02  0.34154850728E-01  0.34960540075E-01  0.00000000000E+00 0. -1.
       22    1    1    2    0    0  0.65684303060E-03  0.74377069772E-02 -0.34194112821E-01  0.34999832563E-01  0.00000000000E+00 0.  1.
</event>
<event>
 5   0  0.1496444E+06  0.9118800E+02  0.7546771E-02  0.1180000E+00
      -11   -1    0    0    0    0  0.00000000000E+00  0.00000000000E+00  0.34996269501E-01  0.35000000000E-01  0.51099999109E-03 0.  1.
       11   -1    0    0    0    0 -0.00000000000E+00 -0.00000000000E+00 -0.34996269501E-01  0.35000000000E-01  0.51099999109E-03 0. -1.
       22    1    1    2    0    0 -0.14655905641E-01 -0.23896652190E-01  0.94506510139E-03  0.28048862795E-01  0.00000000000E+00 0. -1.
       22    1    1    2    0    0 -0.57674333521E-03 -0.20182716379E-02 -0.10266456473E-01  0.10478844487E-01  0.00000000000E+00 0. -1.
       22    1    1    2    0    0  0.15232648976E-01  0.25914923828E-01  0.93213913716E-02  0.31472292718E-01  0.00000000000E+00 0.  1.
</event>
<event>
 5   0  0.1496444E+06  0.9118800E+02  0.7546771E-02  0.1180000E+00
      -11   -1    0    0    0    0  0.00000000000E+00  0.00000000000E+00  0.34996269501E-01  0.35000000000E-01  0.51099999109E-03 0. -1.
       11   -1    0    0    0    0 -0.00000000000E+00 -0.00000000000E+00 -0.34996269501E-01  0.35000000000E-01  0.51099999109E-03 0.  1.
       22    1    1    2    0    0  0.19673362540E-02 -0.17187230846E-02 -0.34902216648E-01  0.34999844970E-01  0.00000000000E+00 0.  1.
       22    1    1    2    0    0 -0.13597200567E-05  0.11932075554E-04  0.10665806527E-03  0.10733203693E-03  0.00000000000E+00 0.  1.
       22    1    1    2    0    0 -0.19659765340E-02  0.17067910090E-02  0.34795558583E-01  0.34892822993E-01  0.00000000000E+00 0. -1.
</event>
<event>
 5   0  0.1496444E+06  0.9118800E+02  0.7546771E-02  0.1180000E+00
      -11   -1    0    0    0    0  0.00000000000E+00  0.00000000000E+00  0.34996269501E-01  0.35000000000E-01  0.51099999109E-03 0. -1.
       11   -1    0    0    0    0 -0.00000000000E+00 -0.00000000000E+00 -0.34996269501E-01  0.35000000000E-01  0.51099999109E-03 0.  1.
       22    1    1    2    0    0  0.14274141006E-08  0.74455114542E-07  0.31918704512E-06  0.32775901417E-06  0.00000000000E+00 0.  1.
       22    1    1    2    0    0  0.12141981267E-01  0.12720815717E-01 -0.30261367474E-01  0.34999960329E-01  0.00000000000E+00 0.  1.
       22    1    1    2    0    0 -0.12141982695E-01 -0.12720890172E-01  0.30261048287E-01  0.34999711912E-01  0.00000000000E+00 0. -1.
</event>
<event>
 5   0  0.1496444E+06  0.9118800E+02  0.7546771E-02  0.1180000E+00
      -11   -1    0    0    0    0  0.00000000000E+00  0.00000000000E+00  0.34996269501E-01  0.35000000000E-01  0.51099999109E-03 0.  1.
       11   -1    0    0    0    0 -0.00000000000E+00 -0.00000000000E+00 -0.34996269501E-01  0.35000000000E-01  0.51099999109E-03 0. -1.
       22    1    1    2    0    0  0.10965107960E-01  0.69883435473E-02 -0.31365286935E-01  0.33953670827E-01  0.00000000000E+00 0. -1.
       22    1    1    2    0    0 -0.64444217065E-04  0.20242736034E-05 -0.10957639042E-02  0.10976591860E-02  0.00000000000E+00 0.  1.
       22    1    1    2    0    0 -0.10900663743E-01 -0.69903678209E-02  0.32461050839E-01  0.34948669987E-01  0.00000000000E+00 0.  1.
</event>
<event>
 5   0  0.1496444E+06  0.9118800E+02  0.7546771E-02  0.1180000E+00
      -11   -1    0    0    0    0  0.00000000000E+00  0.00000000000E+00  0.34996269501E-01  0.35000000000E-01  0.51099999109E-03 0.  1.
       11   -1    0    0    0    0 -0.00000000000E+00 -0.00000000000E+00 -0.34996269501E-01  0.35000000000E-01  0.51099999109E-03 0. -1.
       22    1    1    2    0    0  0.10454040822E-02 -0.21467969731E-02 -0.34918453337E-01  0.34999999863E-01  0.00000000000E+00 0. -1.
       22    1    1    2    0    0 -0.10454032014E-02  0.21467912401E-02  0.34918424912E-01  0.34999971126E-01  0.00000000000E+00 0.  1.
       22    1    1    2    0    0 -0.88089112463E-09  0.57329839753E-08  0.28425156589E-07  0.29010904873E-07  0.00000000000E+00 0. -1.
</event>
<event>
 5   0  0.1496444E+06  0.9118800E+02  0.7546771E-02  0.1180000E+00
      -11   -1    0    0    0    0  0.00000000000E+00  0.00000000000E+00  0.34996269501E-01  0.35000000000E-01  0.51099999109E-03 0.  1.
       11   -1    0    0    0    0 -0.00000000000E+00 -0.00000000000E+00 -0.34996269501E-01  0.35000000000E-01  0.51099999109E-03 0. -1.
       22    1    1    2    0    0 -0.60767611427E-03  0.11451421145E-02  0.34904436702E-01  0.34928503005E-01  0.00000000000E+00 0.  1.
       22    1    1    2    0    0  0.19459284441E-04  0.35263603361E-05  0.70264598175E-04  0.72994607505E-04  0.00000000000E+00 0. -1.
       22    1    1    2    0    0  0.58821682983E-03 -0.11486684749E-02 -0.34974701300E-01  0.34998502387E-01  0.00000000000E+00 0. -1.
</event>
<event>
 5   0  0.1496444E+06  0.9118800E+02  0.7546771E-02  0.1180000E+00
      -11   -1    0    0    0    0  0.00000000000E+00  0.00000000000E+00  0.34996269501E-01  0.35000000000E-01  0.51099999109E-03 0.  1.
       11   -1    0    0    0    0 -0.00000000000E+00 -0.00000000000E+00 -0.34996269501E-01  0.35000000000E-01  0.51099999109E-03 0. -1.
       22    1    1    2    0    0 -0.12834404374E-01 -0.25083880159E-01 -0.20762389926E-01  0.34999997356E-01  0.00000000000E+00 0. -1.
       22    1    1    2    0    0  0.12834399784E-01  0.25083882708E-01  0.20762380691E-01  0.34999992021E-01  0.00000000000E+00 0.  1.
       22    1    1    2    0    0  0.45907167835E-08 -0.25484099704E-08  0.92344752408E-08  0.10622834223E-07  0.00000000000E+00 0.  1.
</event>
<event>
 5   0  0.1496444E+06  0.9118800E+02  0.7546771E-02  0.1180000E+00
      -11   -1    0    0    0    0  0.00000000000E+00  0.00000000000E+00  0.34996269501E-01  0.35000000000E-01  0.51099999109E-03 0. -1.
       11   -1    0    0    0    0 -0.00000000000E+00 -0.00000000000E+00 -0.34996269501E-01  0.35000000000E-01  0.51099999109E-03 0.  1.
       22    1    1    2    0    0 -0.19746320052E-02  0.53887863988E-02 -0.34525701084E-01  0.34999460364E-01  0.00000000000E+00 0.  1.
       22    1    1    2    0    0  0.33947963763E-05 -0.23019581995E-04  0.67471072381E-04  0.71370662081E-04  0.00000000000E+00 0. -1.
       22    1    1    2    0    0  0.19712372088E-02 -0.53657668168E-02  0.34458230012E-01  0.34929168974E-01  0.00000000000E+00 0. -1.
</event>
<event>
 5   0  0.1496444E+06  0.9118800E+02  0.7546771E-02  0.1180000E+00
      -11   -1    0    0    0    0  0.00000000000E+00  0.00000000000E+00  0.34996269501E-01  0.35000000000E-01  0.51099999109E-03 0. -1.
       11   -1    0    0    0    0 -0.00000000000E+00 -0.00000000000E+00 -0.34996269501E-01  0.35000000000E-01  0.51099999109E-03 0.  1.
       22    1    1    2    0    0 -0.63017897964E-02  0.78390201561E-02  0.29760663550E-01  0.31414326136E-01  0.00000000000E+00 0. -1.
       22    1    1    2    0    0  0.65716320469E-02 -0.74849082945E-02 -0.33433651064E-01  0.34885802605E-01  0.00000000000E+00 0.  1.
       22    1    1    2    0    0 -0.26984225055E-03 -0.35411186163E-03  0.36729875142E-02  0.36998712586E-02  0.00000000000E+00 0. -1.
</event>
<event>
 5   0  0.1496444E+06  0.9118800E+02  0.7546771E-02  0.1180000E+00
      -11   -1    0    0    0    0  0.00000000000E+00  0.00000000000E+00  0.34996269501E-01  0.35000000000E-01  0.51099999109E-03 0. -1.
       11   -1    0    0    0    0 -0.00000000000E+00 -0.00000000000E+00 -0.34996269501E-01  0.35000000000E-01  0.51099999109E-03 0.  1.
       22    1    1    2    0    0 -0.18099390717E-04 -0.18820780170E-03  0.10396457358E-02  0.10566991154E-02  0.00000000000E+00 0. -1.
       22    1    1    2    0    0  0.75077092772E-02 -0.96539319850E-02  0.31682999819E-01  0.33961398365E-01  0.00000000000E+00 0. -1.
       22    1    1    2    0    0 -0.74896098864E-02  0.98421397867E-02 -0.32722645555E-01  0.34981902520E-01  0.00000000000E+00 0.  1.
</event>
<event>
 5   0  0.1496444E+06  0.9118800E+02  0.7546771E-02  0.1180000E+00
      -11   -1    0    0    0    0  0.00000000000E+00  0.00000000000E+00  0.34996269501E-01  0.35000000000E-01  0.51099999109E-03 0.  1.
       11   -1    0    0    0    0 -0.00000000000E+00 -0.00000000000E+00 -0.34996269501E-01  0.35000000000E-01  0.51099999109E-03 0. -1.
       22    1    1    2    0    0 -0.19025437963E-06 -0.57236406187E-07  0.40910440332E-06  0.45479572115E-06  0.00000000000E+00 0. -1.
       22    1    1    2    0    0 -0.13825793630E-02 -0.70499620077E-03 -0.34965547872E-01  0.34999972619E-01  0.00000000000E+00 0. -1.
       22    1    1    2    0    0  0.13827696174E-02  0.70505343718E-03  0.34965138767E-01  0.34999572586E-01  0.00000000000E+00 0.  1.
</event>
<event>
 5   0  0.1496444E+06  0.9118800E+02  0.7546771E-02  0.1180000E+00
      -11   -1    0    0    0    0  0.00000000000E+00  0.00000000000E+00  0.34996269501E-01  0.35000000000E-01  0.51099999109E-03 0. -1.
       11   -1    0    0    0    0 -0.00000000000E+00 -0.00000000000E+00 -0.34996269501E-01  0.35000000000E-01  0.51099999109E-03 0. -1.
       22    1    1    2    0    0 -0.11718149337E-03 -0.29865708725E-03 -0.34957075338E-01  0.34958547507E-01  0.00000000000E+00 0. -1.
       22    1    1    2    0    0 -0.63448946028E-04  0.51287278076E-04 -0.14374008550E-05  0.81597915205E-04  0.00000000000E+00 0.  1.
       22    1    1    2    0    0  0.18063043940E-03  0.24736980917E-03  0.34958512739E-01  0.34959854578E-01  0.00000000000E+00 0. -1.
</event>
<event>
 5   0  0.1496444E+06  0.9118800E+02  0.7546771E-02  0.1180000E+00
      -11   -1    0    0    0    0  0.00000000000E+00  0.00000000000E+00  0.34996269501E-01  0.35000000000E-01  0.51099999109E-03 0. -1.
       11   -1    0    0    0    0 -0.00000000000E+00 -0.00000000000E+00 -0.34996269501E-01  0.35000000000E-01  0.51099999109E-03 0.  1.
       22    1    1    2    0    0 -0.88050319621E-07 -0.40149292961E-07  0.41813081049E-06  0.42918317673E-06  0.00000000000E+00 0. -1.
       22    1    1    2    0    0 -0.93155691364E-02 -0.13964121425E-01 -0.30711885708E-01  0.34999949132E-01  0.00000000000E+00 0.  1.
       22    1    1    2    0    0  0.93156571867E-02  0.13964161575E-01  0.30711467577E-01  0.34999621684E-01  0.00000000000E+00 0. -1.
</event>
<event>
 5   0  0.1496444E+06  0.9118800E+02  0.7546771E-02  0.1180000E+00
      -11   -1    0    0    0    0  0.00000000000E+00  0.00000000000E+00  0.34996269501E-01  0.35000000000E-01  0.51099999109E-03 0.  1.
       11   -1    0    0    0    0 -0.00000000000E+00 -0.00000000000E+00 -0.34996269501E-01  0.35000000000E-01  0.51099999109E-03 0. -1.
       22    1    1    2    0    0  0.88466264541E-03  0.94637842644E-03 -0.13410372913E-01  0.13472800814E-01  0.00000000000E+00 0. -1.
       22    1    1    2    0    0 -0.12783257719E-01 -0.95578107078E-02  0.30237371962E-01  0.34191549930E-01  0.00000000000E+00 0.  1.
       22    1    1    2    0    0  0.11898595074E-01  0.86114322813E-02 -0.16826999050E-01  0.22335649256E-01  0.00000000000E+00 0. -1.
</event>
<event>
 5   0  0.1496444E+06  0.9118800E+02  0.7546771E-02  0.1180000E+00
      -11   -1    0    0    0    0  0.00000000000E+00  0.00000000000E+00  0.34996269501E-01  0.35000000000E-01  0.51099999109E-03 0.  1.
       11   -1    0    0    0    0 -0.00000000000E+00 -0.00000000000E+00 -0.34996269501E-01  0.35000000000E-01  0.51099999109E-03 0. -1.
       22    1    1    2    0    0 -0.10984022821E-02 -0.61592620995E-03 -0.34975462384E-01  0.34998125973E-01  0.00000000000E+00 0. -1.
       22    1    1    2    0    0  0.10888210548E-02  0.62011193494E-03  0.34963663066E-01  0.34986108744E-01  0.00000000000E+00 0.  1.
       22    1    1    2    0    0  0.95812273467E-05 -0.41857249829E-05  0.11799318316E-04  0.15765282231E-04  0.00000000000E+00 0.  1.
</event>
<event>
 5   0  0.1496444E+06  0.9118800E+02  0.7546771E-02  0.1180000E+00
      -11   -1    0    0    0    0  0.00000000000E+00  0.00000000000E+00  0.34996269501E-01  0.35000000000E-01  0.51099999109E-03 0. -1.
       11   -1    0    0    0    0 -0.00000000000E+00 -0.00000000000E+00 -0.34996269501E-01  0.35000000000E-01  0.51099999109E-03 0.  1.
       22    1    1    2    0    0  0.30979426391E-02 -0.57596695282E-02  0.33490163633E-01  0.34122750503E-01  0.00000000000E+00 0. -1.
       22    1    1    2    0    0 -0.34847736951E-02  0.59008191543E-02 -0.34295104686E-01  0.34973097087E-01  0.00000000000E+00 0.  1.
       22    1    1    2    0    0  0.38683105601E-03 -0.14114962606E-03  0.80494105299E-03  0.90415241062E-03  0.00000000000E+00 0.  1.
</event>
<event>
 5   0  0.1496444E+06  0.9118800E+02  0.7546771E-02  0.1180000E+00
      -11   -1    0    0    0    0  0.00000000000E+00  0.00000000000E+00  0.34996269501E-01  0.35000000000E-01  0.51099999109E-03 0. -1.
       11   -1    0    0    0    0 -0.00000000000E+00 -0.00000000000E+00 -0.34996269501E-01  0.35000000000E-01  0.51099999109E-03 0.  1.
       22    1    1    2    0    0 -0.28065501322E-04 -0.37355194988E-04  0.88131450495E-03  0.88255217387E-03  0.00000000000E+00 0.  1.
       22    1    1    2    0    0  0.71116764355E-03  0.99172868926E-02 -0.33543907320E-01  0.34986455337E-01  0.00000000000E+00 0.  1.
       22    1    1    2    0    0 -0.68310214223E-03 -0.98799316976E-02  0.32662592815E-01  0.34130992489E-01  0.00000000000E+00 0. -1.
</event>
<event>
 5   0  0.1496444E+06  0.9118800E+02  0.7546771E-02  0.1180000E+00
      -11   -1    0    0    0    0  0.00000000000E+00  0.00000000000E+00  0.34996269501E-01  0.35000000000E-01  0.51099999109E-03 0.  1.
       11   -1    0    0    0    0 -0.00000000000E+00 -0.00000000000E+00 -0.34996269501E-01  0.35000000000E-01  0.51099999109E-03 0. -1.
       22    1    1    2    0    0  0.24069670268E-01 -0.42444525606E-02  0.25052068005E-01  0.34999578793E-01  0.00000000000E+00 0.  1.
       22    1    1    2    0    0 -0.29082655695E-07  0.77855660278E-08  0.50266058888E-06  0.50356139994E-06  0.00000000000E+00 0. -1.
       22    1    1    2    0    0 -0.24069641185E-01  0.42444447750E-02 -0.25052570666E-01  0.34999917646E-01  0.00000000000E+00 0. -1.
</event>
<event>
 5   0  0.1496444E+06  0.9118800E+02  0.7546771E-02  0.1180000E+00
      -11   -1    0    0    0    0  0.00000000000E+00  0.00000000000E+00  0.34996269501E-01  0.35000000000E-01  0.51099999109E-03 0. -1.
       11   -1    0    0    0    0 -0.00000000000E+00 -0.00000000000E+00 -0.34996269501E-01  0.35000000000E-01  0.51099999109E-03 0.  1.
       22    1    1    2    0    0 -0.53132154374E-02 -0.77220160202E-02  0.33717318364E-01  0.34995961872E-01  0.00000000000E+00 0. -1.
       22    1    1    2    0    0  0.69808763167E-06 -0.52862859063E-05  0.15251620007E-05  0.55460133567E-05  0.00000000000E+00 0. -1.
       22    1    1    2    0    0  0.53125173498E-02  0.77273023061E-02 -0.33718843526E-01  0.34998492114E-01  0.00000000000E+00 0.  1.
</event>
<event>
 5   0  0.1496444E+06  0.9118800E+02  0.7546771E-02  0.1180000E+00
      -11   -1    0    0    0    0  0.00000000000E+00  0.00000000000E+00  0.34996269501E-01  0.35000000000E-01  0.51099999109E-03 0. -1.
       11   -1    0    0    0    0 -0.00000000000E+00 -0.00000000000E+00 -0.34996269501E-01  0.35000000000E-01  0.51099999109E-03 0.  1.
       22    1    1    2    0    0  0.63161347134E-02 -0.34333951217E-01 -0.25069928696E-02  0.34999982530E-01  0.00000000000E+00 0. -1.
       22    1    1    2    0    0 -0.63161338258E-02  0.34333950371E-01  0.25069541897E-02  0.34999978770E-01  0.00000000000E+00 0.  1.
       22    1    1    2    0    0 -0.88754920828E-09  0.84561292823E-09  0.38679956045E-07  0.38699377314E-07  0.00000000000E+00 0.  1.
</event>
<event>
 5   0  0.1496444E+06  0.9118800E+02  0.7546771E-02  0.1180000E+00
      -11   -1    0    0    0    0  0.00000000000E+00  0.00000000000E+00  0.34996269501E-01  0.35000000000E-01  0.51099999109E-03 0. -1.
       11   -1    0    0    0    0 -0.00000000000E+00 -0.00000000000E+00 -0.34996269501E-01  0.35000000000E-01  0.51099999109E-03 0.  1.
       22    1    1    2    0    0  0.22252029536E-01  0.25742635513E-01 -0.81884958156E-02  0.34998393754E-01  0.00000000000E+00 0.  1.
       22    1    1    2    0    0 -0.22251900980E-01 -0.25744242321E-01  0.81864747996E-02  0.34999021122E-01  0.00000000000E+00 0. -1.
       22    1    1    2    0    0 -0.12855630810E-06  0.16068074200E-05  0.20210160313E-05  0.25851233255E-05  0.00000000000E+00 0. -1.
</event>
<event>
 5   0  0.1496444E+06  0.9118800E+02  0.7546771E-02  0.1180000E+00
      -11   -1    0    0    0    0  0.00000000000E+00  0.00000000000E+00  0.34996269501E-01  0.35000000000E-01  0.51099999109E-03 0.  1.
       11   -1    0    0    0    0 -0.00000000000E+00 -0.00000000000E+00 -0.34996269501E-01  0.35000000000E-01  0.51099999109E-03 0. -1.
       22    1    1    2    0    0  0.60921950427E-03  0.49993212289E-03  0.30300719191E-01  0.30310966069E-01  0.00000000000E+00 0.  1.
       22    1    1    2    0    0 -0.10331740650E-02 -0.10258122435E-02 -0.34955343276E-01  0.34985650815E-01  0.00000000000E+00 0. -1.
       22    1    1    2    0    0  0.42395456077E-03  0.52588012066E-03  0.46546240847E-02  0.47033831165E-02  0.00000000000E+00 0.  1.
</event>
<event>
 5   0  0.1496444E+06  0.9118800E+02  0.7546771E-02  0.1180000E+00
      -11   -1    0    0    0    0  0.00000000000E+00  0.00000000000E+00  0.34996269501E-01  0.35000000000E-01  0.51099999109E-03 0. -1.
       11   -1    0    0    0    0 -0.00000000000E+00 -0.00000000000E+00 -0.34996269501E-01  0.35000000000E-01  0.51099999109E-03 0. -1.
       22    1    1    2    0    0 -0.44212427006E-07  0.34642010235E-07  0.35002462524E-01  0.34999978612E-01  0.00000000000E+00 0. -1.
       22    1    1    2    0    0  0.39251307307E-11 -0.30754796367E-11 -0.35002447044E-01  0.34999963131E-01  0.00000000000E+00 0. -1.
       22    1    1    2    0    0  0.44208501876E-07 -0.34638934756E-07 -0.15480178875E-07  0.58257045729E-07  0.00000000000E+00 0.  1.
</event>
<event>
 5   0  0.1496444E+06  0.9118800E+02  0.7546771E-02  0.1180000E+00
      -11   -1    0    0    0    0  0.00000000000E+00  0.00000000000E+00  0.34996269501E-01  0.35000000000E-01  0.51099999109E-03 0. -1.
       11   -1    0    0    0    0 -0.00000000000E+00 -0.00000000000E+00 -0.34996269501E-01  0.35000000000E-01  0.51099999109E-03 0.  1.
       22    1    1    2    0    0  0.25809998294E-02  0.30520513537E-03  0.34837936484E-01  0.34934746725E-01  0.00000000000E+00 0. -1.
       22    1    1    2    0    0  0.76285787566E-04 -0.85847687111E-05  0.38910311952E-04  0.86065277636E-04  0.00000000000E+00 0. -1.
       22    1    1    2    0    0 -0.26572856170E-02 -0.29662036666E-03 -0.34876846796E-01  0.34979187997E-01  0.00000000000E+00 0.  1.
</event>
<event>
 5   0  0.1496444E+06  0.9118800E+02  0.7546771E-02  0.1180000E+00
      -11   -1    0    0    0    0  0.00000000000E+00  0.00000000000E+00  0.34996269501E-01  0.35000000000E-01  0.51099999109E-03 0. -1.
       11   -1    0    0    0    0 -0.00000000000E+00 -0.00000000000E+00 -0.34996269501E-01  0.35000000000E-01  0.51099999109E-03 0.  1.
       22    1    1    2    0    0 -0.29075707788E-03  0.19383863295E-02 -0.34945070779E-01  0.34999997900E-01  0.00000000000E+00 0.  1.
       22    1    1    2    0    0  0.29075579218E-03 -0.19380406047E-02  0.34933469775E-01  0.34988395946E-01  0.00000000000E+00 0. -1.
       22    1    1    2    0    0  0.12856980624E-08 -0.34572481386E-06  0.11601003635E-04  0.11606154085E-04  0.00000000000E+00 0.  1.
</event>
<event>
 5   0  0.1496444E+06  0.9118800E+02  0.7546771E-02  0.1180000E+00
      -11   -1    0    0    0    0  0.00000000000E+00  0.00000000000E+00  0.34996269501E-01  0.35000000000E-01  0.51099999109E-03 0. -1.
       11   -1    0    0    0    0 -0.00000000000E+00 -0.00000000000E+00 -0.34996269501E-01  0.35000000000E-01  0.51099999109E-03 0.  1.
       22    1    1    2    0    0 -0.17360045714E-01 -0.11666165158E-01  0.28062936715E-01  0.34999985910E-01  0.00000000000E+00 0. -1.
       22    1    1    2    0    0 -0.18158754716E-08  0.86748262289E-08  0.15432371282E-07  0.17796294480E-07  0.00000000000E+00 0.  1.
       22    1    1    2    0    0  0.17360047530E-01  0.11666156483E-01 -0.28062952147E-01  0.34999996293E-01  0.00000000000E+00 0.  1.
</event>
<event>
 5   0  0.1496444E+06  0.9118800E+02  0.7546771E-02  0.1180000E+00
      -11   -1    0    0    0    0  0.00000000000E+00  0.00000000000E+00  0.34996269501E-01  0.35000000000E-01  0.51099999109E-03 0.  1.
       11   -1    0    0    0    0 -0.00000000000E+00 -0.00000000000E+00 -0.34996269501E-01  0.35000000000E-01  0.51099999109E-03 0. -1.
       22    1    1    2    0    0  0.62808718990E-03  0.11952631116E-02 -0.34973944072E-01  0.34999998734E-01  0.00000000000E+00 0. -1.
       22    1    1    2    0    0 -0.62802659377E-03 -0.11952293076E-02  0.34973394868E-01  0.34999447697E-01  0.00000000000E+00 0.  1.
       22    1    1    2    0    0 -0.60596133416E-07 -0.33803985051E-07  0.54920375149E-06  0.55356965364E-06  0.00000000000E+00 0. -1.
</event>
<event>
 5   0  0.1496444E+06  0.9118800E+02  0.7546771E-02  0.1180000E+00
      -11   -1    0    0    0    0  0.00000000000E+00  0.00000000000E+00  0.34996269501E-01  0.35000000000E-01  0.51099999109E-03 0.  1.
       11   -1    0    0    0    0 -0.00000000000E+00 -0.00000000000E+00 -0.34996269501E-01  0.35000000000E-01  0.51099999109E-03 0. -1.
       22    1    1    2    0    0  0.15421943136E-02  0.16950426223E-02 -0.21066452829E-02  0.31127941050E-02  0.00000000000E+00 0. -1.
       22    1    1    2    0    0 -0.76862467661E-02 -0.47356979281E-02 -0.31407411973E-01  0.32679209768E-01  0.00000000000E+00 0. -1.
       22    1    1    2    0    0  0.61440524525E-02  0.30406553058E-02  0.33514057256E-01  0.34207996127E-01  0.00000000000E+00 0.  1.
</event>
<event>
 5   0  0.1496444E+06  0.9118800E+02  0.7546771E-02  0.1180000E+00
      -11   -1    0    0    0    0  0.00000000000E+00  0.00000000000E+00  0.34996269501E-01  0.35000000000E-01  0.51099999109E-03 0.  1.
       11   -1    0    0    0    0 -0.00000000000E+00 -0.00000000000E+00 -0.34996269501E-01  0.35000000000E-01  0.51099999109E-03 0. -1.
       22    1    1    2    0    0 -0.14451058975E-01 -0.14311876985E-01 -0.21401866416E-01  0.29524613705E-01  0.00000000000E+00 0. -1.
       22    1    1    2    0    0 -0.68436413937E-02 -0.10830476041E-02  0.91640913462E-02  0.11488646127E-01  0.00000000000E+00 0. -1.
       22    1    1    2    0    0  0.21294700369E-01  0.15394924589E-01  0.12237775070E-01  0.28986740168E-01  0.00000000000E+00 0.  1.
</event>
<event>
 5   0  0.1496444E+06  0.9118800E+02  0.7546771E-02  0.1180000E+00
      -11   -1    0    0    0    0  0.00000000000E+00  0.00000000000E+00  0.34996269501E-01  0.35000000000E-01  0.51099999109E-03 0.  1.
       11   -1    0    0    0    0 -0.00000000000E+00 -0.00000000000E+00 -0.34996269501E-01  0.35000000000E-01  0.51099999109E-03 0. -1.
       22    1    1    2    0    0 -0.14565182972E-04 -0.44473557129E-04 -0.97333587181E-04  0.10799939367E-03  0.00000000000E+00 0.  1.
       22    1    1    2    0    0  0.19415948477E-01 -0.25269193321E-01  0.14361854260E-01  0.34953884536E-01  0.00000000000E+00 0.  1.
       22    1    1    2    0    0 -0.19401383294E-01  0.25313666878E-01 -0.14264520672E-01  0.34938116071E-01  0.00000000000E+00 0. -1.
</event>
<event>
 5   0  0.1496444E+06  0.9118800E+02  0.7546771E-02  0.1180000E+00
      -11   -1    0    0    0    0  0.00000000000E+00  0.00000000000E+00  0.34996269501E-01  0.35000000000E-01  0.51099999109E-03 0. -1.
       11   -1    0    0    0    0 -0.00000000000E+00 -0.00000000000E+00 -0.34996269501E-01  0.35000000000E-01  0.51099999109E-03 0.  1.
       22    1    1    2    0    0 -0.17119834754E-01 -0.12658873982E-01  0.27778561741E-01  0.34999776070E-01  0.00000000000E+00 0. -1.
       22    1    1    2    0    0  0.17119808357E-01  0.12658843840E-01 -0.27778823003E-01  0.34999959614E-01  0.00000000000E+00 0.  1.
       22    1    1    2    0    0  0.26397173204E-07  0.30141992435E-07  0.26126192857E-06  0.26431637441E-06  0.00000000000E+00 0. -1.
</event>
<event>
 5   0  0.1496444E+06  0.9118800E+02  0.7546771E-02  0.1180000E+00
      -11   -1    0    0    0    0  0.00000000000E+00  0.00000000000E+00  0.34996269501E-01  0.35000000000E-01  0.51099999109E-03 0.  1.
       11   -1    0    0    0    0 -0.00000000000E+00 -0.00000000000E+00 -0.34996269501E-01  0.35000000000E-01  0.51099999109E-03 0. -1.
       22    1    1    2    0    0 -0.28943390844E-02  0.78669050068E-02  0.33970414810E-01  0.34989348029E-01  0.00000000000E+00 0.  1.
       22    1    1    2    0    0  0.22500756086E-05  0.71540602248E-05  0.86700211153E-05  0.11463537154E-04  0.00000000000E+00 0.  1.
       22    1    1    2    0    0  0.28920890088E-02 -0.78740590670E-02 -0.33979084832E-01  0.34999188434E-01  0.00000000000E+00 0. -1.
</event>
<event>
 5   0  0.1496444E+06  0.9118800E+02  0.7546771E-02  0.1180000E+00
      -11   -1    0    0    0    0  0.00000000000E+00  0.00000000000E+00  0.34996269501E-01  0.35000000000E-01  0.51099999109E-03 0.  1.
       11   -1    0    0    0    0 -0.00000000000E+00 -0.00000000000E+00 -0.34996269501E-01  0.35000000000E-01  0.51099999109E-03 0. -1.
       22    1    1    2    0    0  0.18439018771E-04  0.50803177397E-04 -0.29560973721E-04  0.61602040666E-04  0.00000000000E+00 0. -1.
       22    1    1    2    0    0 -0.24091434269E-02 -0.80873971033E-03  0.34892723794E-01  0.34985142643E-01  0.00000000000E+00 0.  1.
       22    1    1    2    0    0  0.23907044081E-02  0.75793653294E-03 -0.34863162821E-01  0.34953255316E-01  0.00000000000E+00 0. -1.
</event>
<event>
 5   0  0.1496444E+06  0.9118800E+02  0.7546771E-02  0.1180000E+00
      -11   -1    0    0    0    0  0.00000000000E+00  0.00000000000E+00  0.34996269501E-01  0.35000000000E-01  0.51099999109E-03 0. -1.
       11   -1    0    0    0    0 -0.00000000000E+00 -0.00000000000E+00 -0.34996269501E-01  0.35000000000E-01  0.51099999109E-03 0. -1.
       22    1    1    2    0    0  0.46432098123E-03  0.60577244238E-03 -0.33972638708E-01  0.33981211500E-01  0.00000000000E+00 0. -1.
       22    1    1    2    0    0 -0.31905260893E-03 -0.27169007661E-03  0.34961987916E-01  0.34964499269E-01  0.00000000000E+00 0. -1.
       22    1    1    2    0    0 -0.14526837230E-03 -0.33408236577E-03 -0.98934920873E-03  0.10542892316E-02  0.00000000000E+00 0.  1.
</event>
<event>
 5   0  0.1496444E+06  0.9118800E+02  0.7546771E-02  0.1180000E+00
      -11   -1    0    0    0    0  0.00000000000E+00  0.00000000000E+00  0.34996269501E-01  0.35000000000E-01  0.51099999109E-03 0.  1.
       11   -1    0    0    0    0 -0.00000000000E+00 -0.00000000000E+00 -0.34996269501E-01  0.35000000000E-01  0.51099999109E-03 0. -1.
       22    1    1    2    0    0 -0.11861535257E-01 -0.12966687101E-02  0.32903211950E-01  0.34999981786E-01  0.00000000000E+00 0.  1.
       22    1    1    2    0    0  0.11861538131E-01  0.12966619419E-02 -0.32903229595E-01  0.34999999098E-01  0.00000000000E+00 0. -1.
       22    1    1    2    0    0 -0.28744233574E-08  0.67681478613E-08  0.17645069457E-07  0.19115925592E-07  0.00000000000E+00 0. -1.
</event>
<event>
 5   0  0.1496444E+06  0.9118800E+02  0.7546771E-02  0.1180000E+00
      -11   -1    0    0    0    0  0.00000000000E+00  0.00000000000E+00  0.34996269501E-01  0.35000000000E-01  0.51099999109E-03 0. -1.
       11   -1    0    0    0    0 -0.00000000000E+00 -0.00000000000E+00 -0.34996269501E-01  0.35000000000E-01  0.51099999109E-03 0.  1.
       22    1    1    2    0    0 -0.22126847551E-02  0.37647323224E-02 -0.22764352711E-02  0.49245650395E-02  0.00000000000E+00 0.  1.
       22    1    1    2    0    0  0.28779940850E-02 -0.31117629146E-02  0.33535585559E-01  0.33802387743E-01  0.00000000000E+00 0. -1.
       22    1    1    2    0    0 -0.66530932984E-03 -0.65296940774E-03 -0.31259150288E-01  0.31273047217E-01  0.00000000000E+00 0.  1.
</event>
<event>
 5   0  0.1496444E+06  0.9118800E+02  0.7546771E-02  0.1180000E+00
      -11   -1    0    0    0    0  0.00000000000E+00  0.00000000000E+00  0.34996269501E-01  0.35000000000E-01  0.51099999109E-03 0.  1.
       11   -1    0    0    0    0 -0.00000000000E+00 -0.00000000000E+00 -0.34996269501E-01  0.35000000000E-01  0.51099999109E-03 0. -1.
       22    1    1    2    0    0  0.47127511956E-02 -0.32348709932E-02 -0.33648153086E-01  0.34130230299E-01  0.00000000000E+00 0. -1.
       22    1    1    2    0    0 -0.32740181164E-02  0.15444583667E-02  0.19842837337E-02  0.41281870365E-02  0.00000000000E+00 0.  1.
       22    1    1    2    0    0 -0.14387330792E-02  0.16904126265E-02  0.31663869352E-01  0.31741582665E-01  0.00000000000E+00 0.  1.
</event>
<event>
 5   0  0.1496444E+06  0.9118800E+02  0.7546771E-02  0.1180000E+00
      -11   -1    0    0    0    0  0.00000000000E+00  0.00000000000E+00  0.34996269501E-01  0.35000000000E-01  0.51099999109E-03 0. -1.
       11   -1    0    0    0    0 -0.00000000000E+00 -0.00000000000E+00 -0.34996269501E-01  0.35000000000E-01  0.51099999109E-03 0.  1.
       22    1    1    2    0    0  0.13101320339E-01 -0.15182998894E-01 -0.12717266321E-01  0.23746513696E-01  0.00000000000E+00 0.  1.
       22    1    1    2    0    0 -0.11072966530E-01  0.12643930461E-01  0.26891374893E-01  0.31711600542E-01  0.00000000000E+00 0. -1.
       22    1    1    2    0    0 -0.20283538097E-02  0.25390684338E-02 -0.14174108572E-01  0.14541885762E-01  0.00000000000E+00 0. -1.
</event>
<event>
 5   0  0.1496444E+06  0.9118800E+02  0.7546771E-02  0.1180000E+00
      -11   -1    0    0    0    0  0.00000000000E+00  0.00000000000E+00  0.34996269501E-01  0.35000000000E-01  0.51099999109E-03 0. -1.
       11   -1    0    0    0    0 -0.00000000000E+00 -0.00000000000E+00 -0.34996269501E-01  0.35000000000E-01  0.51099999109E-03 0.  1.
       22    1    1    2    0    0 -0.13635267964E-02  0.16153169121E-01  0.31018419326E-01  0.34998948776E-01  0.00000000000E+00 0. -1.
       22    1    1    2    0    0  0.13635273993E-02 -0.16153193878E-01 -0.31019527715E-01  0.34999942558E-01  0.00000000000E+00 0.  1.
       22    1    1    2    0    0 -0.60290689607E-09  0.24756835125E-07  0.11083891123E-05  0.11086657245E-05  0.00000000000E+00 0.  1.
</event>
<event>
 5   0  0.1496444E+06  0.9118800E+02  0.7546771E-02  0.1180000E+00
      -11   -1    0    0    0    0  0.00000000000E+00  0.00000000000E+00  0.34996269501E-01  0.35000000000E-01  0.51099999109E-03 0.  1.
       11   -1    0    0    0    0 -0.00000000000E+00 -0.00000000000E+00 -0.34996269501E-01  0.35000000000E-01  0.51099999109E-03 0. -1.
       22    1    1    2    0    0  0.74278643805E-02  0.54422336925E-02 -0.68867147602E-02  0.11498605003E-01  0.00000000000E+00 0. -1.
       22    1    1    2    0    0  0.11354691185E-01 -0.18436546775E-02 -0.21435492335E-01  0.24327112573E-01  0.00000000000E+00 0. -1.
       22    1    1    2    0    0 -0.18782555566E-01 -0.35985790151E-02  0.28322207095E-01  0.34174282425E-01  0.00000000000E+00 0.  1.
</event>
<event>
 5   0  0.1496444E+06  0.9118800E+02  0.7546771E-02  0.1180000E+00
      -11   -1    0    0    0    0  0.00000000000E+00  0.00000000000E+00  0.34996269501E-01  0.35000000000E-01  0.51099999109E-03 0. -1.
       11   -1    0    0    0    0 -0.00000000000E+00 -0.00000000000E+00 -0.34996269501E-01  0.35000000000E-01  0.51099999109E-03 0.  1.
       22    1    1    2    0    0  0.68999172053E-02 -0.13418568173E-02  0.34286794935E-01  0.34999910630E-01  0.00000000000E+00 0. -1.
       22    1    1    2    0    0 -0.68999177769E-02  0.13418514004E-02 -0.34286885190E-01  0.34999998951E-01  0.00000000000E+00 0.  1.
       22    1    1    2    0    0  0.57164812758E-09  0.54169363537E-08  0.90255069546E-07  0.90419287543E-07  0.00000000000E+00 0. -1.
</event>
<event>
 5   0  0.1496444E+06  0.9118800E+02  0.7546771E-02  0.1180000E+00
      -11   -1    0    0    0    0  0.00000000000E+00  0.00000000000E+00  0.34996269501E-01  0.35000000000E-01  0.51099999109E-03 0. -1.
       11   -1    0    0    0    0 -0.00000000000E+00 -0.00000000000E+00 -0.34996269501E-01  0.35000000000E-01  0.51099999109E-03 0.  1.
       22    1    1    2    0    0 -0.15054808164E-02  0.23549656155E-02  0.34886395823E-01  0.34998184940E-01  0.00000000000E+00 0. -1.
       22    1    1    2    0    0  0.15054688811E-02 -0.23549137495E-02 -0.34888215402E-01  0.34999994703E-01  0.00000000000E+00 0.  1.
       22    1    1    2    0    0  0.11935313203E-07 -0.51866008997E-07  0.18195787018E-05  0.18203568845E-05  0.00000000000E+00 0.  1.
</event>
<event>
 5   0  0.1496444E+06  0.9118800E+02  0.7546771E-02  0.1180000E+00
      -11   -1    0    0    0    0  0.00000000000E+00  0.00000000000E+00  0.34996269501E-01  0.35000000000E-01  0.51099999109E-03 0.  1.
       11   -1    0    0    0    0 -0.00000000000E+00 -0.00000000000E+00 -0.34996269501E-01  0.35000000000E-01  0.51099999109E-03 0.  1.
       22    1    1    2    0    0 -0.17374428158E-02 -0.10303257463E-03  0.34778479958E-01  0.34822004414E-01  0.00000000000E+00 0.  1.
       22    1    1    2    0    0  0.15840977888E-04 -0.76990800305E-04  0.16967559581E-03  0.18699820247E-03  0.00000000000E+00 0.  1.
       22    1    1    2    0    0  0.17216018379E-02  0.18002337493E-03 -0.34948155553E-01  0.34990997383E-01  0.00000000000E+00 0.  1.
</event>
<event>
 5   0  0.1496444E+06  0.9118800E+02  0.7546771E-02  0.1180000E+00
      -11   -1    0    0    0    0  0.00000000000E+00  0.00000000000E+00  0.34996269501E-01  0.35000000000E-01  0.51099999109E-03 0.  1.
       11   -1    0    0    0    0 -0.00000000000E+00 -0.00000000000E+00 -0.34996269501E-01  0.35000000000E-01  0.51099999109E-03 0. -1.
       22    1    1    2    0    0 -0.97086891555E-02  0.39684847886E-04  0.33605813921E-01  0.34980150790E-01  0.00000000000E+00 0.  1.
       22    1    1    2    0    0  0.97748743187E-02 -0.68793388750E-05 -0.33409484141E-01  0.34810082532E-01  0.00000000000E+00 0. -1.
       22    1    1    2    0    0 -0.66185163163E-04 -0.32805509011E-04 -0.19632977937E-03  0.20976667874E-03  0.00000000000E+00 0. -1.
</event>
<event>
 5   0  0.1496444E+06  0.9118800E+02  0.7546771E-02  0.1180000E+00
      -11   -1    0    0    0    0  0.00000000000E+00  0.00000000000E+00  0.34996269501E-01  0.35000000000E-01  0.51099999109E-03 0. -1.
       11   -1    0    0    0    0 -0.00000000000E+00 -0.00000000000E+00 -0.34996269501E-01  0.35000000000E-01  0.51099999109E-03 0.  1.
       22    1    1    2    0    0 -0.20685888128E-01 -0.13505526331E-01 -0.24790959984E-01  0.34998527198E-01  0.00000000000E+00 0.  1.
       22    1    1    2    0    0  0.20685004818E-01  0.13506973426E-01  0.24781504380E-01  0.34991866409E-01  0.00000000000E+00 0. -1.
       22    1    1    2    0    0  0.88331002183E-06 -0.14470955993E-05  0.94556049091E-05  0.96063929997E-05  0.00000000000E+00 0. -1.
</event>
<event>
 5   0  0.1496444E+06  0.9118800E+02  0.7546771E-02  0.1180000E+00
      -11   -1    0    0    0    0  0.00000000000E+00  0.00000000000E+00  0.34996269501E-01  0.35000000000E-01  0.51099999109E-03 0.  1.
       11   -1    0    0    0    0 -0.00000000000E+00 -0.00000000000E+00 -0.34996269501E-01  0.35000000000E-01  0.51099999109E-03 0. -1.
       22    1    1    2    0    0  0.22951890134E-05 -0.20444863678E-05  0.13457810863E-04  0.13804364902E-04  0.00000000000E+00 0. -1.
       22    1    1    2    0    0 -0.42365678701E-02  0.67762565322E-02  0.34061941472E-01  0.34986883496E-01  0.00000000000E+00 0.  1.
       22    1    1    2    0    0  0.42342726811E-02 -0.67742120458E-02 -0.34075399283E-01  0.34999312140E-01  0.00000000000E+00 0. -1.
</event>
<event>
 5   0  0.1496444E+06  0.9118800E+02  0.7546771E-02  0.1180000E+00
      -11   -1    0    0    0    0  0.00000000000E+00  0.00000000000E+00  0.34996269501E-01  0.35000000000E-01  0.51099999109E-03 0.  1.
       11   -1    0    0    0    0 -0.00000000000E+00 -0.00000000000E+00 -0.34996269501E-01  0.35000000000E-01  0.51099999109E-03 0. -1.
       22    1    1    2    0    0 -0.12178529071E-02 -0.13451956005E-02 -0.34952331937E-01  0.34999403205E-01  0.00000000000E+00 0. -1.
       22    1    1    2    0    0  0.12150970372E-02  0.13473033554E-02  0.34947927442E-01  0.34994989922E-01  0.00000000000E+00 0.  1.
       22    1    1    2    0    0  0.27558699336E-05 -0.21077549027E-05  0.44044945526E-05  0.56068727545E-05  0.00000000000E+00 0.  1.
</event>
<event>
 5   0  0.1496444E+06  0.9118800E+02  0.7546771E-02  0.1180000E+00
      -11   -1    0    0    0    0  0.00000000000E+00  0.00000000000E+00  0.34996269501E-01  0.35000000000E-01  0.51099999109E-03 0.  1.
       11   -1    0    0    0    0 -0.00000000000E+00 -0.00000000000E+00 -0.34996269501E-01  0.35000000000E-01  0.51099999109E-03 0. -1.
       22    1    1    2    0    0 -0.86777055231E-02  0.39863103474E-02  0.32320421122E-01  0.33701674511E-01  0.00000000000E+00 0.  1.
       22    1    1    2    0    0 -0.11982701711E-03 -0.19964323829E-04  0.13074873394E-02  0.13131185137E-02  0.00000000000E+00 0. -1.
       22    1    1    2    0    0  0.87975325402E-02 -0.39663460236E-02 -0.33627908462E-01  0.34985206975E-01  0.00000000000E+00 0. -1.
</event>
<event>
 5   0  0.1496444E+06  0.9118800E+02  0.7546771E-02  0.1180000E+00
      -11   -1    0    0    0    0  0.00000000000E+00  0.00000000000E+00  0.34996269501E-01  0.35000000000E-01  0.51099999109E-03 0.  1.
       11   -1    0    0    0    0 -0.00000000000E+00 -0.00000000000E+00 -0.34996269501E-01  0.35000000000E-01  0.51099999109E-03 0.  1.
       22    1    1    2    0    0  0.20434056587E-05  0.69569689283E-06  0.51984973784E-05  0.56288432067E-05  0.00000000000E+00 0.  1.
       22    1    1    2    0    0 -0.20435394911E-05 -0.69574245734E-06  0.34995439320E-01  0.34994586300E-01  0.00000000000E+00 0.  1.
       22    1    1    2    0    0  0.13383237332E-09  0.45564504476E-10 -0.35000637817E-01  0.34999784857E-01  0.00000000000E+00 0.  1.
</event>
<event>
 5   0  0.1496444E+06  0.9118800E+02  0.7546771E-02  0.1180000E+00
      -11   -1    0    0    0    0  0.00000000000E+00  0.00000000000E+00  0.34996269501E-01  0.35000000000E-01  0.51099999109E-03 0.  1.
       11   -1    0    0    0    0 -0.00000000000E+00 -0.00000000000E+00 -0.34996269501E-01  0.35000000000E-01  0.51099999109E-03 0. -1.
       22    1    1    2    0    0  0.20472364037E-01  0.11986402687E-01 -0.25679811940E-01  0.34960610406E-01  0.00000000000E+00 0. -1.
       22    1    1    2    0    0  0.26206232785E-04  0.35771467341E-04  0.17018909019E-03  0.17587123395E-03  0.00000000000E+00 0.  1.
       22    1    1    2    0    0 -0.20498570270E-01 -0.12022174154E-01  0.25509622850E-01  0.34863518360E-01  0.00000000000E+00 0.  1.
</event>
<event>
 5   0  0.1496444E+06  0.9118800E+02  0.7546771E-02  0.1180000E+00
      -11   -1    0    0    0    0  0.00000000000E+00  0.00000000000E+00  0.34996269501E-01  0.35000000000E-01  0.51099999109E-03 0.  1.
       11   -1    0    0    0    0 -0.00000000000E+00 -0.00000000000E+00 -0.34996269501E-01  0.35000000000E-01  0.51099999109E-03 0. -1.
       22    1    1    2    0    0  0.11521540930E-01  0.16807202364E-01  0.25378422279E-01  0.32546770563E-01  0.00000000000E+00 0.  1.
       22    1    1    2    0    0 -0.17046942229E-02 -0.17962024607E-02  0.29949585344E-02  0.38861423412E-02  0.00000000000E+00 0. -1.
       22    1    1    2    0    0 -0.98168467076E-02 -0.15010999903E-01 -0.28373380813E-01  0.33567087096E-01  0.00000000000E+00 0. -1.
</event>
<event>
 5   0  0.1496444E+06  0.9118800E+02  0.7546771E-02  0.1180000E+00
      -11   -1    0    0    0    0  0.00000000000E+00  0.00000000000E+00  0.34996269501E-01  0.35000000000E-01  0.51099999109E-03 0.  1.
       11   -1    0    0    0    0 -0.00000000000E+00 -0.00000000000E+00 -0.34996269501E-01  0.35000000000E-01  0.51099999109E-03 0. -1.
       22    1    1    2    0    0  0.31729052439E-05  0.25032023266E-05  0.49625858866E-04  0.49790151815E-04  0.00000000000E+00 0. -1.
       22    1    1    2    0    0  0.52956419210E-02  0.48228104443E-02 -0.34258213456E-01  0.34998978744E-01  0.00000000000E+00 0. -1.
       22    1    1    2    0    0 -0.52988148263E-02 -0.48253136466E-02  0.34208587597E-01  0.34951231104E-01  0.00000000000E+00 0.  1.
</event>
<event>
 5   0  0.1496444E+06  0.9118800E+02  0.7546771E-02  0.1180000E+00
      -11   -1    0    0    0    0  0.00000000000E+00  0.00000000000E+00  0.34996269501E-01  0.35000000000E-01  0.51099999109E-03 0.  1.
       11   -1    0    0    0    0 -0.00000000000E+00 -0.00000000000E+00 -0.34996269501E-01  0.35000000000E-01  0.51099999109E-03 0. -1.
       22    1    1    2    0    0  0.24546077302E-01  0.78403014649E-02 -0.23685405297E-01  0.34999695171E-01  0.00000000000E+00 0. -1.
       22    1    1    2    0    0 -0.24546206474E-01 -0.78402832062E-02  0.23683803438E-01  0.34998697666E-01  0.00000000000E+00 0.  1.
       22    1    1    2    0    0  0.12917210974E-06 -0.18258727737E-07  0.16018590114E-05  0.16071624397E-05  0.00000000000E+00 0. -1.
</event>
<event>
 5   0  0.1496444E+06  0.9118800E+02  0.7546771E-02  0.1180000E+00
      -11   -1    0    0    0    0  0.00000000000E+00  0.00000000000E+00  0.34996269501E-01  0.35000000000E-01  0.51099999109E-03 0. -1.
       11   -1    0    0    0    0 -0.00000000000E+00 -0.00000000000E+00 -0.34996269501E-01  0.35000000000E-01  0.51099999109E-03 0.  1.
       22    1    1    2    0    0  0.64131702660E-05 -0.13717940917E-04 -0.23377605082E-05  0.15322394724E-04  0.00000000000E+00 0. -1.
       22    1    1    2    0    0  0.28135143398E-02 -0.58949591832E-02 -0.34374670724E-01  0.34989775565E-01  0.00000000000E+00 0.  1.
       22    1    1    2    0    0 -0.28199275101E-02  0.59086771241E-02  0.34377008484E-01  0.34994902041E-01  0.00000000000E+00 0. -1.
</event>
<event>
 5   0  0.1496444E+06  0.9118800E+02  0.7546771E-02  0.1180000E+00
      -11   -1    0    0    0    0  0.00000000000E+00  0.00000000000E+00  0.34996269501E-01  0.35000000000E-01  0.51099999109E-03 0.  1.
       11   -1    0    0    0    0 -0.00000000000E+00 -0.00000000000E+00 -0.34996269501E-01  0.35000000000E-01  0.51099999109E-03 0. -1.
       22    1    1    2    0    0  0.28726905561E-06 -0.22167510025E-06  0.69558530019E-06  0.78453952751E-06  0.00000000000E+00 0.  1.
       22    1    1    2    0    0  0.65691065233E-02 -0.97314455154E-02 -0.32971764270E-01  0.34999877591E-01  0.00000000000E+00 0. -1.
       22    1    1    2    0    0 -0.65693937923E-02  0.97316671905E-02  0.32971068684E-01  0.34999337869E-01  0.00000000000E+00 0.  1.
</event>
<event>
 5   0  0.1496444E+06  0.9118800E+02  0.7546771E-02  0.1180000E+00
      -11   -1    0    0    0    0  0.00000000000E+00  0.00000000000E+00  0.34996269501E-01  0.35000000000E-01  0.51099999109E-03 0. -1.
       11   -1    0    0    0    0 -0.00000000000E+00 -0.00000000000E+00 -0.34996269501E-01  0.35000000000E-01  0.51099999109E-03 0.  1.
       22    1    1    2    0    0  0.19181364486E-01 -0.21440664517E-02  0.29196354677E-01  0.34999269863E-01  0.00000000000E+00 0. -1.
       22    1    1    2    0    0 -0.19181671415E-01  0.21438832433E-02 -0.29197015922E-01  0.34999978462E-01  0.00000000000E+00 0.  1.
       22    1    1    2    0    0  0.30692872072E-06  0.18320834063E-06  0.66124468130E-06  0.75167483943E-06  0.00000000000E+00 0.  1.
</event>
<event>
 5   0  0.1496444E+06  0.9118800E+02  0.7546771E-02  0.1180000E+00
      -11   -1    0    0    0    0  0.00000000000E+00  0.00000000000E+00  0.34996269501E-01  0.35000000000E-01  0.51099999109E-03 0. -1.
       11   -1    0    0    0    0 -0.00000000000E+00 -0.00000000000E+00 -0.34996269501E-01  0.35000000000E-01  0.51099999109E-03 0.  1.
       22    1    1    2    0    0  0.30313717949E-02  0.12273943981E-01 -0.32633067510E-01  0.34996514268E-01  0.00000000000E+00 0.  1.
       22    1    1    2    0    0 -0.27447949142E-04 -0.12518354943E-04  0.16164163781E-03  0.16443271632E-03  0.00000000000E+00 0.  1.
       22    1    1    2    0    0 -0.30039238457E-02 -0.12261425626E-01  0.32471425872E-01  0.34839053016E-01  0.00000000000E+00 0. -1.
</event>
<event>
 5   0  0.1496444E+06  0.9118800E+02  0.7546771E-02  0.1180000E+00
      -11   -1    0    0    0    0  0.00000000000E+00  0.00000000000E+00  0.34996269501E-01  0.35000000000E-01  0.51099999109E-03 0.  1.
       11   -1    0    0    0    0 -0.00000000000E+00 -0.00000000000E+00 -0.34996269501E-01  0.35000000000E-01  0.51099999109E-03 0. -1.
       22    1    1    2    0    0 -0.52440673636E-02 -0.85428477582E-02 -0.33533821821E-01  0.34999967090E-01  0.00000000000E+00 0. -1.
       22    1    1    2    0    0  0.52440660478E-02  0.85429526585E-02  0.33533020298E-01  0.34999224550E-01  0.00000000000E+00 0.  1.
       22    1    1    2    0    0  0.13157353957E-08 -0.10490029359E-06  0.80152354059E-06  0.80835993770E-06  0.00000000000E+00 0. -1.
</event>
<event>
 5   0  0.1496444E+06  0.9118800E+02  0.7546771E-02  0.1180000E+00
      -11   -1    0    0    0    0  0.00000000000E+00  0.00000000000E+00  0.34996269501E-01  0.35000000000E-01  0.51099999109E-03 0. -1.
       11   -1    0    0    0    0 -0.00000000000E+00 -0.00000000000E+00 -0.34996269501E-01  0.35000000000E-01  0.51099999109E-03 0.  1.
       22    1    1    2    0    0  0.32823772439E-01  0.96926789716E-02 -0.71996853409E-02  0.34974040827E-01  0.00000000000E+00 0.  1.
       22    1    1    2    0    0 -0.32824666700E-01 -0.96932862566E-02  0.72418733975E-02  0.34983757270E-01  0.00000000000E+00 0. -1.
       22    1    1    2    0    0  0.89426152045E-06  0.60728491746E-06 -0.42188056652E-04  0.42201903069E-04  0.00000000000E+00 0. -1.
</event>
<event>
 5   0  0.1496444E+06  0.9118800E+02  0.7546771E-02  0.1180000E+00
      -11   -1    0    0    0    0  0.00000000000E+00  0.00000000000E+00  0.34996269501E-01  0.35000000000E-01  0.51099999109E-03 0.  1.
       11   -1    0    0    0    0 -0.00000000000E+00 -0.00000000000E+00 -0.34996269501E-01  0.35000000000E-01  0.51099999109E-03 0. -1.
       22    1    1    2    0    0  0.99001783756E-03  0.99779388668E-04  0.34985851451E-01  0.34999998472E-01  0.00000000000E+00 0.  1.
       22    1    1    2    0    0  0.22035662087E-08 -0.93044099058E-09  0.54398185565E-09  0.24530268511E-08  0.00000000000E+00 0. -1.
       22    1    1    2    0    0 -0.99002004113E-03 -0.99778458227E-04 -0.34985851995E-01  0.34999999075E-01  0.00000000000E+00 0. -1.
</event>
<event>
 5   0  0.1496444E+06  0.9118800E+02  0.7546771E-02  0.1180000E+00
      -11   -1    0    0    0    0  0.00000000000E+00  0.00000000000E+00  0.34996269501E-01  0.35000000000E-01  0.51099999109E-03 0.  1.
       11   -1    0    0    0    0 -0.00000000000E+00 -0.00000000000E+00 -0.34996269501E-01  0.35000000000E-01  0.51099999109E-03 0. -1.
       22    1    1    2    0    0  0.12405285931E-01  0.20636278194E-01  0.25344902512E-01  0.34958706785E-01  0.00000000000E+00 0.  1.
       22    1    1    2    0    0  0.73361012139E-04 -0.48935226953E-04 -0.40670766392E-05  0.88278171999E-04  0.00000000000E+00 0. -1.
       22    1    1    2    0    0 -0.12478646943E-01 -0.20587342967E-01 -0.25340835436E-01  0.34953015043E-01  0.00000000000E+00 0. -1.
</event>
<event>
 5   0  0.1496444E+06  0.9118800E+02  0.7546771E-02  0.1180000E+00
      -11   -1    0    0    0    0  0.00000000000E+00  0.00000000000E+00  0.34996269501E-01  0.35000000000E-01  0.51099999109E-03 0. -1.
       11   -1    0    0    0    0 -0.00000000000E+00 -0.00000000000E+00 -0.34996269501E-01  0.35000000000E-01  0.51099999109E-03 0.  1.
       22    1    1    2    0    0  0.23810604712E-01  0.24338274804E-01  0.40128506460E-02  0.34284099631E-01  0.00000000000E+00 0. -1.
       22    1    1    2    0    0 -0.22628453401E-01 -0.25054771294E-01 -0.27995621663E-02  0.33876629352E-01  0.00000000000E+00 0.  1.
       22    1    1    2    0    0 -0.11821513107E-02  0.71649648995E-03 -0.12132884797E-02  0.18392710177E-02  0.00000000000E+00 0.  1.
</event>
<event>
 5   0  0.1496444E+06  0.9118800E+02  0.7546771E-02  0.1180000E+00
      -11   -1    0    0    0    0  0.00000000000E+00  0.00000000000E+00  0.34996269501E-01  0.35000000000E-01  0.51099999109E-03 0. -1.
       11   -1    0    0    0    0 -0.00000000000E+00 -0.00000000000E+00 -0.34996269501E-01  0.35000000000E-01  0.51099999109E-03 0. -1.
       22    1    1    2    0    0 -0.13302283018E-02 -0.30006069590E-02 -0.15443272796E-01  0.15788217889E-01  0.00000000000E+00 0.  1.
       22    1    1    2    0    0  0.21708220970E-04 -0.10770516545E-03  0.34680750758E-01  0.34680924797E-01  0.00000000000E+00 0. -1.
       22    1    1    2    0    0  0.13085200808E-02  0.31083121245E-02 -0.19237477962E-01  0.19530857314E-01  0.00000000000E+00 0. -1.
</event>
<event>
 5   0  0.1496444E+06  0.9118800E+02  0.7546771E-02  0.1180000E+00
      -11   -1    0    0    0    0  0.00000000000E+00  0.00000000000E+00  0.34996269501E-01  0.35000000000E-01  0.51099999109E-03 0. -1.
       11   -1    0    0    0    0 -0.00000000000E+00 -0.00000000000E+00 -0.34996269501E-01  0.35000000000E-01  0.51099999109E-03 0.  1.
       22    1    1    2    0    0 -0.22179864485E-05 -0.18009428547E-04 -0.66159923992E-05  0.19313993267E-04  0.00000000000E+00 0.  1.
       22    1    1    2    0    0  0.12746663265E-01  0.36579070748E-02 -0.32378173919E-01  0.34988624650E-01  0.00000000000E+00 0.  1.
       22    1    1    2    0    0 -0.12744445279E-01 -0.36398976462E-02  0.32384789912E-01  0.34992061356E-01  0.00000000000E+00 0. -1.
</event>
<event>
 5   0  0.1496444E+06  0.9118800E+02  0.7546771E-02  0.1180000E+00
      -11   -1    0    0    0    0  0.00000000000E+00  0.00000000000E+00  0.34996269501E-01  0.35000000000E-01  0.51099999109E-03 0.  1.
       11   -1    0    0    0    0 -0.00000000000E+00 -0.00000000000E+00 -0.34996269501E-01  0.35000000000E-01  0.51099999109E-03 0. -1.
       22    1    1    2    0    0 -0.18592875889E-02 -0.32886770029E-03 -0.96447118017E-02  0.98277957875E-02  0.00000000000E+00 0. -1.
       22    1    1    2    0    0 -0.13421547724E-02  0.42541566953E-02 -0.24880584490E-01  0.25277316178E-01  0.00000000000E+00 0. -1.
       22    1    1    2    0    0  0.32014423614E-02 -0.39252889950E-02  0.34525296292E-01  0.34894888034E-01  0.00000000000E+00 0.  1.
</event>
<event>
 5   0  0.1496444E+06  0.9118800E+02  0.7546771E-02  0.1180000E+00
      -11   -1    0    0    0    0  0.00000000000E+00  0.00000000000E+00  0.34996269501E-01  0.35000000000E-01  0.51099999109E-03 0.  1.
       11   -1    0    0    0    0 -0.00000000000E+00 -0.00000000000E+00 -0.34996269501E-01  0.35000000000E-01  0.51099999109E-03 0. -1.
       22    1    1    2    0    0  0.23054171485E-04 -0.83147785900E-05  0.84976872375E-04  0.88440370897E-04  0.00000000000E+00 0. -1.
       22    1    1    2    0    0 -0.14988368120E-02  0.36601638514E-02  0.34689741819E-01  0.34914488378E-01  0.00000000000E+00 0.  1.
       22    1    1    2    0    0  0.14757826405E-02 -0.36518490728E-02 -0.34774718692E-01  0.34997071251E-01  0.00000000000E+00 0. -1.
</event>
<event>
 5   0  0.1496444E+06  0.9118800E+02  0.7546771E-02  0.1180000E+00
      -11   -1    0    0    0    0  0.00000000000E+00  0.00000000000E+00  0.34996269501E-01  0.35000000000E-01  0.51099999109E-03 0.  1.
       11   -1    0    0    0    0 -0.00000000000E+00 -0.00000000000E+00 -0.34996269501E-01  0.35000000000E-01  0.51099999109E-03 0. -1.
       22    1    1    2    0    0  0.13891509627E-01  0.51214816128E-04 -0.29493900003E-01  0.32601637997E-01  0.00000000000E+00 0. -1.
       22    1    1    2    0    0  0.13678060459E-02 -0.32662037710E-02 -0.51614508276E-03  0.35784614291E-02  0.00000000000E+00 0. -1.
       22    1    1    2    0    0 -0.15259315673E-01  0.32149889549E-02  0.30010045086E-01  0.33819900574E-01  0.00000000000E+00 0.  1.
</event>
<event>
 5   0  0.1496444E+06  0.9118800E+02  0.7546771E-02  0.1180000E+00
      -11   -1    0    0    0    0  0.00000000000E+00  0.00000000000E+00  0.34996269501E-01  0.35000000000E-01  0.51099999109E-03 0.  1.
       11   -1    0    0    0    0 -0.00000000000E+00 -0.00000000000E+00 -0.34996269501E-01  0.35000000000E-01  0.51099999109E-03 0.  1.
       22    1    1    2    0    0  0.28838981289E-03  0.35845398577E-03 -0.34996956001E-01  0.34999979818E-01  0.00000000000E+00 0.  1.
       22    1    1    2    0    0 -0.28890493521E-03 -0.35701511428E-03  0.34973029862E-01  0.34976045282E-01  0.00000000000E+00 0.  1.
       22    1    1    2    0    0  0.51512232895E-06 -0.14388714932E-05  0.23926138575E-04  0.23974899568E-04  0.00000000000E+00 0. -1.
</event>
<event>
 5   0  0.1496444E+06  0.9118800E+02  0.7546771E-02  0.1180000E+00
      -11   -1    0    0    0    0  0.00000000000E+00  0.00000000000E+00  0.34996269501E-01  0.35000000000E-01  0.51099999109E-03 0.  1.
       11   -1    0    0    0    0 -0.00000000000E+00 -0.00000000000E+00 -0.34996269501E-01  0.35000000000E-01  0.51099999109E-03 0. -1.
       22    1    1    2    0    0 -0.13153709451E-07  0.17288055985E-07  0.60859295973E-08  0.22559598647E-07  0.00000000000E+00 0. -1.
       22    1    1    2    0    0  0.25844472177E-03 -0.22743895287E-02 -0.34925060119E-01  0.34999992367E-01  0.00000000000E+00 0. -1.
       22    1    1    2    0    0 -0.25843156807E-03  0.22743722406E-02  0.34925054033E-01  0.34999985073E-01  0.00000000000E+00 0.  1.
</event>
<event>
 5   0  0.1496444E+06  0.9118800E+02  0.7546771E-02  0.1180000E+00
      -11   -1    0    0    0    0  0.00000000000E+00  0.00000000000E+00  0.34996269501E-01  0.35000000000E-01  0.51099999109E-03 0.  1.
       11   -1    0    0    0    0 -0.00000000000E+00 -0.00000000000E+00 -0.34996269501E-01  0.35000000000E-01  0.51099999109E-03 0. -1.
       22    1    1    2    0    0  0.10874841387E-05  0.16948379186E-06  0.25973081171E-05  0.28208785800E-05  0.00000000000E+00 0. -1.
       22    1    1    2    0    0 -0.12674536477E-03 -0.14412017147E-03 -0.34999364285E-01  0.34999890505E-01  0.00000000000E+00 0. -1.
       22    1    1    2    0    0  0.12565788063E-03  0.14395068767E-03  0.34996766977E-01  0.34997288617E-01  0.00000000000E+00 0.  1.
</event>
<event>
 5   0  0.1496444E+06  0.9118800E+02  0.7546771E-02  0.1180000E+00
      -11   -1    0    0    0    0  0.00000000000E+00  0.00000000000E+00  0.34996269501E-01  0.35000000000E-01  0.51099999109E-03 0.  1.
       11   -1    0    0    0    0 -0.00000000000E+00 -0.00000000000E+00 -0.34996269501E-01  0.35000000000E-01  0.51099999109E-03 0. -1.
       22    1    1    2    0    0  0.45888418194E-04 -0.14144595560E-04 -0.18742989608E-03  0.19348328727E-03  0.00000000000E+00 0. -1.
       22    1    1    2    0    0  0.14895508828E-01 -0.17445056663E-01 -0.26195029461E-01  0.34819330173E-01  0.00000000000E+00 0. -1.
       22    1    1    2    0    0 -0.14941397246E-01  0.17459201258E-01  0.26382459357E-01  0.34987186540E-01  0.00000000000E+00 0.  1.
</event>
<event>
 5   0  0.1496444E+06  0.9118800E+02  0.7546771E-02  0.1180000E+00
      -11   -1    0    0    0    0  0.00000000000E+00  0.00000000000E+00  0.34996269501E-01  0.35000000000E-01  0.51099999109E-03 0.  1.
       11   -1    0    0    0    0 -0.00000000000E+00 -0.00000000000E+00 -0.34996269501E-01  0.35000000000E-01  0.51099999109E-03 0. -1.
       22    1    1    2    0    0  0.15844733136E-06  0.21667108774E-07  0.79366733210E-06  0.80961895634E-06  0.00000000000E+00 0.  1.
       22    1    1    2    0    0  0.13106318618E-02 -0.34085728924E-03  0.34972986240E-01  0.34999195793E-01  0.00000000000E+00 0.  1.
       22    1    1    2    0    0 -0.13107903091E-02  0.34083562213E-03 -0.34973779908E-01  0.34999994588E-01  0.00000000000E+00 0. -1.
</event>
<event>
 5   0  0.1496444E+06  0.9118800E+02  0.7546771E-02  0.1180000E+00
      -11   -1    0    0    0    0  0.00000000000E+00  0.00000000000E+00  0.34996269501E-01  0.35000000000E-01  0.51099999109E-03 0.  1.
       11   -1    0    0    0    0 -0.00000000000E+00 -0.00000000000E+00 -0.34996269501E-01  0.35000000000E-01  0.51099999109E-03 0. -1.
       22    1    1    2    0    0  0.23415543015E-02  0.51000294438E-02 -0.34547081636E-01  0.34999914663E-01  0.00000000000E+00 0. -1.
       22    1    1    2    0    0 -0.72646791710E-06 -0.71151202023E-06  0.15559171450E-05  0.18587315975E-05  0.00000000000E+00 0. -1.
       22    1    1    2    0    0 -0.23408278335E-02 -0.50993179318E-02  0.34545525719E-01  0.34998226605E-01  0.00000000000E+00 0.  1.
</event>
<event>
 5   0  0.1496444E+06  0.9118800E+02  0.7546771E-02  0.1180000E+00
      -11   -1    0    0    0    0  0.00000000000E+00  0.00000000000E+00  0.34996269501E-01  0.35000000000E-01  0.51099999109E-03 0. -1.
       11   -1    0    0    0    0 -0.00000000000E+00 -0.00000000000E+00 -0.34996269501E-01  0.35000000000E-01  0.51099999109E-03 0. -1.
       22    1    1    2    0    0  0.10001456362E-08 -0.40267902377E-08 -0.32082900601E-08  0.52448504290E-08  0.00000000000E+00 0.  1.
       22    1    1    2    0    0  0.71749480656E-13 -0.28887803716E-12 -0.35001286490E-01  0.34999995773E-01  0.00000000000E+00 0. -1.
       22    1    1    2    0    0 -0.10002173857E-08  0.40270791158E-08  0.35001289698E-01  0.34999998982E-01  0.00000000000E+00 0. -1.
</event>
<event>
 5   0  0.1496444E+06  0.9118800E+02  0.7546771E-02  0.1180000E+00
      -11   -1    0    0    0    0  0.00000000000E+00  0.00000000000E+00  0.34996269501E-01  0.35000000000E-01  0.51099999109E-03 0. -1.
       11   -1    0    0    0    0 -0.00000000000E+00 -0.00000000000E+00 -0.34996269501E-01  0.35000000000E-01  0.51099999109E-03 0.  1.
       22    1    1    2    0    0 -0.23580718942E-08 -0.19476083488E-08  0.52471233594E-07  0.52560289537E-07  0.00000000000E+00 0. -1.
       22    1    1    2    0    0  0.85815998510E-03 -0.13197274283E-01  0.32405122270E-01  0.34999949091E-01  0.00000000000E+00 0. -1.
       22    1    1    2    0    0 -0.85815762702E-03  0.13197276231E-01 -0.32405174741E-01  0.34999998349E-01  0.00000000000E+00 0.  1.
</event>
<event>
 5   0  0.1496444E+06  0.9118800E+02  0.7546771E-02  0.1180000E+00
      -11   -1    0    0    0    0  0.00000000000E+00  0.00000000000E+00  0.34996269501E-01  0.35000000000E-01  0.51099999109E-03 0. -1.
       11   -1    0    0    0    0 -0.00000000000E+00 -0.00000000000E+00 -0.34996269501E-01  0.35000000000E-01  0.51099999109E-03 0. -1.
       22    1    1    2    0    0 -0.89127904548E-09 -0.42741734950E-09 -0.35001136945E-01  0.34999648035E-01  0.00000000000E+00 0. -1.
       22    1    1    2    0    0  0.11910917508E-04  0.57119404043E-05  0.34878047433E-01  0.34876555769E-01  0.00000000000E+00 0. -1.
       22    1    1    2    0    0 -0.11910026229E-04 -0.57115129869E-05  0.12308951240E-03  0.12379619610E-03  0.00000000000E+00 0. -1.
</event>
<event>
 5   0  0.1496444E+06  0.9118800E+02  0.7546771E-02  0.1180000E+00
      -11   -1    0    0    0    0  0.00000000000E+00  0.00000000000E+00  0.34996269501E-01  0.35000000000E-01  0.51099999109E-03 0. -1.
       11   -1    0    0    0    0 -0.00000000000E+00 -0.00000000000E+00 -0.34996269501E-01  0.35000000000E-01  0.51099999109E-03 0.  1.
       22    1    1    2    0    0 -0.11241458585E-01  0.14262223435E-01 -0.29088222268E-01  0.34291487036E-01  0.00000000000E+00 0.  1.
       22    1    1    2    0    0  0.46594106983E-03 -0.12994428780E-02  0.10599258194E-01  0.10688775754E-01  0.00000000000E+00 0. -1.
       22    1    1    2    0    0  0.10775517515E-01 -0.12962780557E-01  0.18488964075E-01  0.25019737209E-01  0.00000000000E+00 0. -1.
</event>
<event>
 5   0  0.1496444E+06  0.9118800E+02  0.7546771E-02  0.1180000E+00
      -11   -1    0    0    0    0  0.00000000000E+00  0.00000000000E+00  0.34996269501E-01  0.35000000000E-01  0.51099999109E-03 0.  1.
       11   -1    0    0    0    0 -0.00000000000E+00 -0.00000000000E+00 -0.34996269501E-01  0.35000000000E-01  0.51099999109E-03 0.  1.
       22    1    1    2    0    0  0.46508221195E-05 -0.21242032466E-05  0.34880673404E-01  0.34878906326E-01  0.00000000000E+00 0.  1.
       22    1    1    2    0    0 -0.36615620952E-09  0.16723714412E-09 -0.35001710245E-01  0.34999948905E-01  0.00000000000E+00 0.  1.
       22    1    1    2    0    0 -0.46504559632E-05  0.21240360095E-05  0.12103684062E-03  0.12114476900E-03  0.00000000000E+00 0.  1.
</event>
<event>
 5   0  0.1496444E+06  0.9118800E+02  0.7546771E-02  0.1180000E+00
      -11   -1    0    0    0    0  0.00000000000E+00  0.00000000000E+00  0.34996269501E-01  0.35000000000E-01  0.51099999109E-03 0. -1.
       11   -1    0    0    0    0 -0.00000000000E+00 -0.00000000000E+00 -0.34996269501E-01  0.35000000000E-01  0.51099999109E-03 0.  1.
       22    1    1    2    0    0 -0.25665277727E-02 -0.22986001884E-02  0.34733520745E-01  0.34903983884E-01  0.00000000000E+00 0. -1.
       22    1    1    2    0    0  0.26100774595E-02  0.22745486732E-02 -0.34822443216E-01  0.34994122757E-01  0.00000000000E+00 0.  1.
       22    1    1    2    0    0 -0.43549686860E-04  0.24051515136E-04  0.88922471146E-04  0.10189335837E-03  0.00000000000E+00 0. -1.
</event>
<event>
 5   0  0.1496444E+06  0.9118800E+02  0.7546771E-02  0.1180000E+00
      -11   -1    0    0    0    0  0.00000000000E+00  0.00000000000E+00  0.34996269501E-01  0.35000000000E-01  0.51099999109E-03 0.  1.
       11   -1    0    0    0    0 -0.00000000000E+00 -0.00000000000E+00 -0.34996269501E-01  0.35000000000E-01  0.51099999109E-03 0. -1.
       22    1    1    2    0    0  0.19317090560E-04  0.60624059974E-05  0.13731351075E-04  0.24463294065E-04  0.00000000000E+00 0.  1.
       22    1    1    2    0    0 -0.18795386421E-02  0.14875747918E-02 -0.34912817593E-01  0.34995005023E-01  0.00000000000E+00 0. -1.
       22    1    1    2    0    0  0.18602215516E-02 -0.14936371978E-02  0.34899086242E-01  0.34980531683E-01  0.00000000000E+00 0.  1.
</event>
<event>
 5   0  0.1496444E+06  0.9118800E+02  0.7546771E-02  0.1180000E+00
      -11   -1    0    0    0    0  0.00000000000E+00  0.00000000000E+00  0.34996269501E-01  0.35000000000E-01  0.51099999109E-03 0. -1.
       11   -1    0    0    0    0 -0.00000000000E+00 -0.00000000000E+00 -0.34996269501E-01  0.35000000000E-01  0.51099999109E-03 0.  1.
       22    1    1    2    0    0 -0.37527114448E-03 -0.13098151495E-02  0.34971555920E-01  0.34998088056E-01  0.00000000000E+00 0. -1.
       22    1    1    2    0    0  0.37497259073E-03  0.13099057811E-02 -0.34973455763E-01  0.34999986651E-01  0.00000000000E+00 0.  1.
       22    1    1    2    0    0  0.29855375031E-06 -0.90631565487E-07  0.18998427588E-05  0.19252924273E-05  0.00000000000E+00 0.  1.
</event>
<event>
 5   0  0.1496444E+06  0.9118800E+02  0.7546771E-02  0.1180000E+00
      -11   -1    0    0    0    0  0.00000000000E+00  0.00000000000E+00  0.34996269501E-01  0.35000000000E-01  0.51099999109E-03 0.  1.
       11   -1    0    0    0    0 -0.00000000000E+00 -0.00000000000E+00 -0.34996269501E-01  0.35000000000E-01  0.51099999109E-03 0. -1.
       22    1    1    2    0    0 -0.10662864563E-02 -0.31674828262E-02 -0.32336469224E-01  0.32508724308E-01  0.00000000000E+00 0. -1.
       22    1    1    2    0    0  0.45459794863E-03  0.49326063448E-02  0.34372780055E-01  0.34727874587E-01  0.00000000000E+00 0.  1.
       22    1    1    2    0    0  0.61168850766E-03 -0.17651235186E-02 -0.20363108305E-02  0.27634011046E-02  0.00000000000E+00 0.  1.
</event>
<event>
 5   0  0.1496444E+06  0.9118800E+02  0.7546771E-02  0.1180000E+00
      -11   -1    0    0    0    0  0.00000000000E+00  0.00000000000E+00  0.34996269501E-01  0.35000000000E-01  0.51099999109E-03 0. -1.
       11   -1    0    0    0    0 -0.00000000000E+00 -0.00000000000E+00 -0.34996269501E-01  0.35000000000E-01  0.51099999109E-03 0.  1.
       22    1    1    2    0    0 -0.35496141837E-07  0.44181970085E-06  0.66008241554E-06  0.79509334009E-06  0.00000000000E+00 0.  1.
       22    1    1    2    0    0 -0.24595322238E-02  0.27860731782E-02 -0.34802044812E-01  0.34999911795E-01  0.00000000000E+00 0.  1.
       22    1    1    2    0    0  0.24595677199E-02 -0.27865149979E-02  0.34801384730E-01  0.34999293112E-01  0.00000000000E+00 0. -1.
</event>
<event>
 5   0  0.1496444E+06  0.9118800E+02  0.7546771E-02  0.1180000E+00
      -11   -1    0    0    0    0  0.00000000000E+00  0.00000000000E+00  0.34996269501E-01  0.35000000000E-01  0.51099999109E-03 0. -1.
       11   -1    0    0    0    0 -0.00000000000E+00 -0.00000000000E+00 -0.34996269501E-01  0.35000000000E-01  0.51099999109E-03 0.  1.
       22    1    1    2    0    0 -0.12182910268E-01 -0.22246350468E-02  0.32735084064E-01  0.34999400457E-01  0.00000000000E+00 0. -1.
       22    1    1    2    0    0  0.12182999598E-01  0.22253617275E-02 -0.32735421515E-01  0.34999793368E-01  0.00000000000E+00 0.  1.
       22    1    1    2    0    0 -0.89329424177E-07 -0.72668071729E-06  0.33745146075E-06  0.80617498055E-06  0.00000000000E+00 0. -1.
</event>
<event>
 5   0  0.1496444E+06  0.9118800E+02  0.7546771E-02  0.1180000E+00
      -11   -1    0    0    0    0  0.00000000000E+00  0.00000000000E+00  0.34996269501E-01  0.35000000000E-01  0.51099999109E-03 0.  1.
       11   -1    0    0    0    0 -0.00000000000E+00 -0.00000000000E+00 -0.34996269501E-01  0.35000000000E-01  0.51099999109E-03 0. -1.
       22    1    1    2    0    0 -0.74556000356E-05  0.45940608419E-03  0.37309276312E-02  0.37591129972E-02  0.00000000000E+00 0. -1.
       22    1    1    2    0    0 -0.10872608677E-03  0.89474944895E-03 -0.34965321409E-01  0.34976936675E-01  0.00000000000E+00 0. -1.
       22    1    1    2    0    0  0.11618168680E-03 -0.13541555331E-02  0.31234393778E-01  0.31263950327E-01  0.00000000000E+00 0.  1.
</event>
<event>
 5   0  0.1496444E+06  0.9118800E+02  0.7546771E-02  0.1180000E+00
      -11   -1    0    0    0    0  0.00000000000E+00  0.00000000000E+00  0.34996269501E-01  0.35000000000E-01  0.51099999109E-03 0.  1.
       11   -1    0    0    0    0 -0.00000000000E+00 -0.00000000000E+00 -0.34996269501E-01  0.35000000000E-01  0.51099999109E-03 0.  1.
       22    1    1    2    0    0  0.43536257814E-03  0.52002298949E-03 -0.34993374640E-01  0.34999946188E-01  0.00000000000E+00 0.  1.
       22    1    1    2    0    0 -0.43538203035E-03 -0.52025318708E-03  0.34993169828E-01  0.34999745077E-01  0.00000000000E+00 0.  1.
       22    1    1    2    0    0  0.19452218249E-07  0.23019759100E-06  0.20481205377E-06  0.30873499488E-06  0.00000000000E+00 0.  1.
</event>
<event>
 5   0  0.1496444E+06  0.9118800E+02  0.7546771E-02  0.1180000E+00
      -11   -1    0    0    0    0  0.00000000000E+00  0.00000000000E+00  0.34996269501E-01  0.35000000000E-01  0.51099999109E-03 0. -1.
       11   -1    0    0    0    0 -0.00000000000E+00 -0.00000000000E+00 -0.34996269501E-01  0.35000000000E-01  0.51099999109E-03 0.  1.
       22    1    1    2    0    0 -0.19637733035E-02  0.18725847275E-02 -0.34894477845E-01  0.34999822331E-01  0.00000000000E+00 0.  1.
       22    1    1    2    0    0  0.19641211511E-02 -0.18739359805E-02  0.34890744941E-01  0.34996192514E-01  0.00000000000E+00 0. -1.
       22    1    1    2    0    0 -0.34784762719E-06  0.13512530683E-05  0.37329043910E-05  0.39851547045E-05  0.00000000000E+00 0.  1.
</event>
<event>
 5   0  0.1496444E+06  0.9118800E+02  0.7546771E-02  0.1180000E+00
      -11   -1    0    0    0    0  0.00000000000E+00  0.00000000000E+00  0.34996269501E-01  0.35000000000E-01  0.51099999109E-03 0.  1.
       11   -1    0    0    0    0 -0.00000000000E+00 -0.00000000000E+00 -0.34996269501E-01  0.35000000000E-01  0.51099999109E-03 0. -1.
       22    1    1    2    0    0 -0.35386759820E-03  0.47631592433E-03  0.45597994196E-02  0.45982463922E-02  0.00000000000E+00 0.  1.
       22    1    1    2    0    0 -0.62832615498E-02  0.31668933143E-01 -0.17363908042E-03  0.32286697766E-01  0.00000000000E+00 0.  1.
       22    1    1    2    0    0  0.66371291480E-02 -0.32145249067E-01 -0.43861603391E-02  0.33115055842E-01  0.00000000000E+00 0. -1.
</event>
<event>
 5   0  0.1496444E+06  0.9118800E+02  0.7546771E-02  0.1180000E+00
      -11   -1    0    0    0    0  0.00000000000E+00  0.00000000000E+00  0.34996269501E-01  0.35000000000E-01  0.51099999109E-03 0.  1.
       11   -1    0    0    0    0 -0.00000000000E+00 -0.00000000000E+00 -0.34996269501E-01  0.35000000000E-01  0.51099999109E-03 0. -1.
       22    1    1    2    0    0 -0.55683651165E-02  0.18409213089E-01  0.26467396277E-01  0.32717409469E-01  0.00000000000E+00 0.  1.
       22    1    1    2    0    0  0.53227114591E-03  0.36197375004E-02 -0.35385440285E-02  0.50899023553E-02  0.00000000000E+00 0.  1.
       22    1    1    2    0    0  0.50360939706E-02 -0.22028950589E-01 -0.22928852249E-01  0.32192688176E-01  0.00000000000E+00 0. -1.
</event>
<event>
 5   0  0.1496444E+06  0.9118800E+02  0.7546771E-02  0.1180000E+00
      -11   -1    0    0    0    0  0.00000000000E+00  0.00000000000E+00  0.34996269501E-01  0.35000000000E-01  0.51099999109E-03 0. -1.
       11   -1    0    0    0    0 -0.00000000000E+00 -0.00000000000E+00 -0.34996269501E-01  0.35000000000E-01  0.51099999109E-03 0.  1.
       22    1    1    2    0    0 -0.68619790260E-03  0.16952804888E-02 -0.34952181137E-01  0.34999997282E-01  0.00000000000E+00 0.  1.
       22    1    1    2    0    0  0.68619700487E-03 -0.16953257413E-02  0.34950166383E-01  0.34997987455E-01  0.00000000000E+00 0. -1.
       22    1    1    2    0    0  0.89773634469E-09  0.45252490646E-07  0.20147539749E-05  0.20152623087E-05  0.00000000000E+00 0. -1.
</event>
<event>
 5   0  0.1496444E+06  0.9118800E+02  0.7546771E-02  0.1180000E+00
      -11   -1    0    0    0    0  0.00000000000E+00  0.00000000000E+00  0.34996269501E-01  0.35000000000E-01  0.51099999109E-03 0. -1.
       11   -1    0    0    0    0 -0.00000000000E+00 -0.00000000000E+00 -0.34996269501E-01  0.35000000000E-01  0.51099999109E-03 0. -1.
       22    1    1    2    0    0 -0.16293157527E-04  0.59030571454E-03 -0.34994391512E-01  0.34999373760E-01  0.00000000000E+00 0. -1.
       22    1    1    2    0    0 -0.22643724286E-05 -0.18445367434E-05  0.26856087311E-05  0.39676431983E-05  0.00000000000E+00 0. -1.
       22    1    1    2    0    0  0.18557529956E-04 -0.58846117779E-03  0.34991705903E-01  0.34996658597E-01  0.00000000000E+00 0. -1.
</event>
<event>
 5   0  0.1496444E+06  0.9118800E+02  0.7546771E-02  0.1180000E+00
      -11   -1    0    0    0    0  0.00000000000E+00  0.00000000000E+00  0.34996269501E-01  0.35000000000E-01  0.51099999109E-03 0. -1.
       11   -1    0    0    0    0 -0.00000000000E+00 -0.00000000000E+00 -0.34996269501E-01  0.35000000000E-01  0.51099999109E-03 0.  1.
       22    1    1    2    0    0 -0.25363731254E-01  0.11777403109E-01 -0.16738354221E-01  0.32591388266E-01  0.00000000000E+00 0.  1.
       22    1    1    2    0    0  0.26773217457E-01 -0.12345165263E-01  0.10992061199E-01  0.31464800775E-01  0.00000000000E+00 0. -1.
       22    1    1    2    0    0 -0.14094862034E-02  0.56776215411E-03  0.57462930218E-02  0.59438109587E-02  0.00000000000E+00 0.  1.
</event>
<event>
 5   0  0.1496444E+06  0.9118800E+02  0.7546771E-02  0.1180000E+00
      -11   -1    0    0    0    0  0.00000000000E+00  0.00000000000E+00  0.34996269501E-01  0.35000000000E-01  0.51099999109E-03 0. -1.
       11   -1    0    0    0    0 -0.00000000000E+00 -0.00000000000E+00 -0.34996269501E-01  0.35000000000E-01  0.51099999109E-03 0.  1.
       22    1    1    2    0    0  0.67022571544E-05 -0.42702157258E-04 -0.88807241456E-03  0.88912373042E-03  0.00000000000E+00 0.  1.
       22    1    1    2    0    0  0.11413689054E-01 -0.24772752484E-01 -0.20742460043E-01  0.34266765416E-01  0.00000000000E+00 0. -1.
       22    1    1    2    0    0 -0.11420391311E-01  0.24815454642E-01  0.21630532457E-01  0.34844110853E-01  0.00000000000E+00 0.  1.
</event>
<event>
 5   0  0.1496444E+06  0.9118800E+02  0.7546771E-02  0.1180000E+00
      -11   -1    0    0    0    0  0.00000000000E+00  0.00000000000E+00  0.34996269501E-01  0.35000000000E-01  0.51099999109E-03 0.  1.
       11   -1    0    0    0    0 -0.00000000000E+00 -0.00000000000E+00 -0.34996269501E-01  0.35000000000E-01  0.51099999109E-03 0.  1.
       22    1    1    2    0    0 -0.25167567412E-04  0.46825265087E-03  0.34917848092E-01  0.34920996683E-01  0.00000000000E+00 0.  1.
       22    1    1    2    0    0  0.85703156774E-03  0.81862003782E-04 -0.24683597507E-02  0.26141928687E-02  0.00000000000E+00 0. -1.
       22    1    1    2    0    0 -0.83186400033E-03 -0.55011465465E-03 -0.32449488341E-01  0.32464810449E-01  0.00000000000E+00 0.  1.
</event>
<event>
 5   0  0.1496444E+06  0.9118800E+02  0.7546771E-02  0.1180000E+00
      -11   -1    0    0    0    0  0.00000000000E+00  0.00000000000E+00  0.34996269501E-01  0.35000000000E-01  0.51099999109E-03 0. -1.
       11   -1    0    0    0    0 -0.00000000000E+00 -0.00000000000E+00 -0.34996269501E-01  0.35000000000E-01  0.51099999109E-03 0.  1.
       22    1    1    2    0    0 -0.12385807475E-02  0.92212753325E-03  0.34964617145E-01  0.34998697884E-01  0.00000000000E+00 0. -1.
       22    1    1    2    0    0  0.59541794275E-06 -0.16916524645E-06  0.12426687915E-05  0.13882957655E-05  0.00000000000E+00 0.  1.
       22    1    1    2    0    0  0.12379853296E-02 -0.92195836800E-03 -0.34965859814E-01  0.34999913820E-01  0.00000000000E+00 0.  1.
</event>
<event>
 5   0  0.1496444E+06  0.9118800E+02  0.7546771E-02  0.1180000E+00
      -11   -1    0    0    0    0  0.00000000000E+00  0.00000000000E+00  0.34996269501E-01  0.35000000000E-01  0.51099999109E-03 0.  1.
       11   -1    0    0    0    0 -0.00000000000E+00 -0.00000000000E+00 -0.34996269501E-01  0.35000000000E-01  0.51099999109E-03 0.  1.
       22    1    1    2    0    0 -0.58651384250E-03 -0.38529236786E-03  0.34954036701E-01  0.34961080223E-01  0.00000000000E+00 0.  1.
       22    1    1    2    0    0  0.58255409365E-03  0.37897760387E-03 -0.34992671697E-01  0.34999572366E-01  0.00000000000E+00 0.  1.
       22    1    1    2    0    0  0.39597488530E-05  0.63147639917E-05  0.38634995809E-04  0.39347411051E-04  0.00000000000E+00 0. -1.
</event>
<event>
 5   0  0.1496444E+06  0.9118800E+02  0.7546771E-02  0.1180000E+00
      -11   -1    0    0    0    0  0.00000000000E+00  0.00000000000E+00  0.34996269501E-01  0.35000000000E-01  0.51099999109E-03 0. -1.
       11   -1    0    0    0    0 -0.00000000000E+00 -0.00000000000E+00 -0.34996269501E-01  0.35000000000E-01  0.51099999109E-03 0. -1.
       22    1    1    2    0    0 -0.39434147791E-08  0.33532910231E-08  0.59532493404E-08  0.78889960398E-08  0.00000000000E+00 0. -1.
       22    1    1    2    0    0  0.39438334482E-08 -0.33536470392E-08  0.35003693626E-01  0.34999993079E-01  0.00000000000E+00 0. -1.
       22    1    1    2    0    0 -0.41866908135E-12  0.35601613089E-12 -0.35003699579E-01  0.34999999032E-01  0.00000000000E+00 0. -1.
</event>
<event>
 5   0  0.1496444E+06  0.9118800E+02  0.7546771E-02  0.1180000E+00
      -11   -1    0    0    0    0  0.00000000000E+00  0.00000000000E+00  0.34996269501E-01  0.35000000000E-01  0.51099999109E-03 0.  1.
       11   -1    0    0    0    0 -0.00000000000E+00 -0.00000000000E+00 -0.34996269501E-01  0.35000000000E-01  0.51099999109E-03 0. -1.
       22    1    1    2    0    0  0.66065686673E-02 -0.13050840807E-01 -0.31796648462E-01  0.34999972124E-01  0.00000000000E+00 0. -1.
       22    1    1    2    0    0  0.26685925270E-07 -0.14067748899E-07  0.48657633080E-06  0.48751058025E-06  0.00000000000E+00 0.  1.
       22    1    1    2    0    0 -0.66065953533E-02  0.13050854874E-01  0.31796161885E-01  0.34999540365E-01  0.00000000000E+00 0.  1.
</event>
<event>
 5   0  0.1496444E+06  0.9118800E+02  0.7546771E-02  0.1180000E+00
      -11   -1    0    0    0    0  0.00000000000E+00  0.00000000000E+00  0.34996269501E-01  0.35000000000E-01  0.51099999109E-03 0. -1.
       11   -1    0    0    0    0 -0.00000000000E+00 -0.00000000000E+00 -0.34996269501E-01  0.35000000000E-01  0.51099999109E-03 0.  1.
       22    1    1    2    0    0 -0.11257962422E-01 -0.51219016581E-02  0.32735406065E-01  0.34994033845E-01  0.00000000000E+00 0. -1.
       22    1    1    2    0    0  0.11258548335E-01  0.51205059404E-02 -0.32741483349E-01  0.34999703193E-01  0.00000000000E+00 0.  1.
       22    1    1    2    0    0 -0.58591359837E-06  0.13957176914E-05  0.60772839326E-05  0.62629627666E-05  0.00000000000E+00 0.  1.
</event>
<event>
 5   0  0.1496444E+06  0.9118800E+02  0.7546771E-02  0.1180000E+00
      -11   -1    0    0    0    0  0.00000000000E+00  0.00000000000E+00  0.34996269501E-01  0.35000000000E-01  0.51099999109E-03 0.  1.
       11   -1    0    0    0    0 -0.00000000000E+00 -0.00000000000E+00 -0.34996269501E-01  0.35000000000E-01  0.51099999109E-03 0. -1.
       22    1    1    2    0    0 -0.89259560766E-02  0.34760761586E-02 -0.33663676843E-01  0.34999984799E-01  0.00000000000E+00 0. -1.
       22    1    1    2    0    0  0.89259742408E-02 -0.34760743241E-02  0.33663003646E-01  0.34999341756E-01  0.00000000000E+00 0.  1.
       22    1    1    2    0    0 -0.18164179233E-07 -0.18345111409E-08  0.67319704414E-06  0.67344455085E-06  0.00000000000E+00 0. -1.
</event>
<event>
 5   0  0.1496444E+06  0.9118800E+02  0.7546771E-02  0.1180000E+00
      -11   -1    0    0    0    0  0.00000000000E+00  0.00000000000E+00  0.34996269501E-01  0.35000000000E-01  0.51099999109E-03 0. -1.
       11   -1    0    0    0    0 -0.00000000000E+00 -0.00000000000E+00 -0.34996269501E-01  0.35000000000E-01  0.51099999109E-03 0. -1.
       22    1    1    2    0    0  0.24053245982E-04  0.10396729462E-04 -0.34981696163E-01  0.34981705977E-01  0.00000000000E+00 0. -1.
       22    1    1    2    0    0  0.00000000000E+00 -0.00000000000E+00  0.34991051722E-01  0.34990469985E-01  0.00000000000E+00 0. -1.
       22    1    1    2    0    0 -0.24053245982E-04 -0.10396729462E-04 -0.93555587137E-05  0.27824038251E-04  0.00000000000E+00 0. -1.
</event>
<event>
 5   0  0.1496444E+06  0.9118800E+02  0.7546771E-02  0.1180000E+00
      -11   -1    0    0    0    0  0.00000000000E+00  0.00000000000E+00  0.34996269501E-01  0.35000000000E-01  0.51099999109E-03 0.  1.
       11   -1    0    0    0    0 -0.00000000000E+00 -0.00000000000E+00 -0.34996269501E-01  0.35000000000E-01  0.51099999109E-03 0. -1.
       22    1    1    2    0    0  0.22673415124E-01 -0.52799974252E-03  0.16421946481E-01  0.28000765406E-01  0.00000000000E+00 0.  1.
       22    1    1    2    0    0  0.79009714685E-02  0.12595860721E-02 -0.23853463731E-02  0.83487594611E-02  0.00000000000E+00 0.  1.
       22    1    1    2    0    0 -0.30574386592E-01 -0.73158632959E-03 -0.14036600108E-01  0.33650475133E-01  0.00000000000E+00 0. -1.
</event>
<event>
 5   0  0.1496444E+06  0.9118800E+02  0.7546771E-02  0.1180000E+00
      -11   -1    0    0    0    0  0.00000000000E+00  0.00000000000E+00  0.34996269501E-01  0.35000000000E-01  0.51099999109E-03 0. -1.
       11   -1    0    0    0    0 -0.00000000000E+00 -0.00000000000E+00 -0.34996269501E-01  0.35000000000E-01  0.51099999109E-03 0.  1.
       22    1    1    2    0    0  0.78279672797E-02 -0.16311262679E-01  0.29960770028E-01  0.34999744322E-01  0.00000000000E+00 0. -1.
       22    1    1    2    0    0 -0.78281398902E-02  0.16311339528E-01 -0.29960964066E-01  0.34999984844E-01  0.00000000000E+00 0.  1.
       22    1    1    2    0    0  0.17261050883E-06 -0.76848299450E-07  0.19403836486E-06  0.27083377915E-06  0.00000000000E+00 0.  1.
</event>
<event>
 5   0  0.1496444E+06  0.9118800E+02  0.7546771E-02  0.1180000E+00
      -11   -1    0    0    0    0  0.00000000000E+00  0.00000000000E+00  0.34996269501E-01  0.35000000000E-01  0.51099999109E-03 0.  1.
       11   -1    0    0    0    0 -0.00000000000E+00 -0.00000000000E+00 -0.34996269501E-01  0.35000000000E-01  0.51099999109E-03 0. -1.
       22    1    1    2    0    0 -0.29135983211E-01 -0.13360126145E-01 -0.14057077601E-01  0.34999998842E-01  0.00000000000E+00 0.  1.
       22    1    1    2    0    0  0.29135937559E-01  0.13360103401E-01  0.14057036479E-01  0.34999935641E-01  0.00000000000E+00 0. -1.
       22    1    1    2    0    0  0.45652345554E-07  0.22743915307E-07  0.41121806328E-07  0.65516603191E-07  0.00000000000E+00 0. -1.
</event>
<event>
 5   0  0.1496444E+06  0.9118800E+02  0.7546771E-02  0.1180000E+00
      -11   -1    0    0    0    0  0.00000000000E+00  0.00000000000E+00  0.34996269501E-01  0.35000000000E-01  0.51099999109E-03 0. -1.
       11   -1    0    0    0    0 -0.00000000000E+00 -0.00000000000E+00 -0.34996269501E-01  0.35000000000E-01  0.51099999109E-03 0.  1.
       22    1    1    2    0    0 -0.17868528152E-05  0.32698349984E-05  0.55884303499E-05  0.67167862609E-05  0.00000000000E+00 0. -1.
       22    1    1    2    0    0 -0.17570137834E-02  0.70446424808E-02  0.34232051472E-01  0.34993534161E-01  0.00000000000E+00 0. -1.
       22    1    1    2    0    0  0.17588006363E-02 -0.70479123158E-02 -0.34237639902E-01  0.34999749053E-01  0.00000000000E+00 0.  1.
</event>
<event>
 5   0  0.1496444E+06  0.9118800E+02  0.7546771E-02  0.1180000E+00
      -11   -1    0    0    0    0  0.00000000000E+00  0.00000000000E+00  0.34996269501E-01  0.35000000000E-01  0.51099999109E-03 0.  1.
       11   -1    0    0    0    0 -0.00000000000E+00 -0.00000000000E+00 -0.34996269501E-01  0.35000000000E-01  0.51099999109E-03 0. -1.
       22    1    1    2    0    0 -0.87759398735E-06  0.54061503598E-05  0.15709699615E-03  0.15719243886E-03  0.00000000000E+00 0. -1.
       22    1    1    2    0    0 -0.10343463217E-02 -0.57098363585E-03 -0.34979991295E-01  0.34999938366E-01  0.00000000000E+00 0. -1.
       22    1    1    2    0    0  0.10352239157E-02  0.56557748549E-03  0.34822894299E-01  0.34842869195E-01  0.00000000000E+00 0.  1.
</event>
<event>
 5   0  0.1496444E+06  0.9118800E+02  0.7546771E-02  0.1180000E+00
      -11   -1    0    0    0    0  0.00000000000E+00  0.00000000000E+00  0.34996269501E-01  0.35000000000E-01  0.51099999109E-03 0.  1.
       11   -1    0    0    0    0 -0.00000000000E+00 -0.00000000000E+00 -0.34996269501E-01  0.35000000000E-01  0.51099999109E-03 0. -1.
       22    1    1    2    0    0 -0.98932264833E-02 -0.48555572983E-02 -0.33205106859E-01  0.34986161385E-01  0.00000000000E+00 0. -1.
       22    1    1    2    0    0  0.74945880093E-05  0.18235553116E-04 -0.10512578772E-04  0.22343199397E-04  0.00000000000E+00 0.  1.
       22    1    1    2    0    0  0.98857318953E-02  0.48373217452E-02  0.33215619438E-01  0.34991495416E-01  0.00000000000E+00 0.  1.
</event>
<event>
 5   0  0.1496444E+06  0.9118800E+02  0.7546771E-02  0.1180000E+00
      -11   -1    0    0    0    0  0.00000000000E+00  0.00000000000E+00  0.34996269501E-01  0.35000000000E-01  0.51099999109E-03 0.  1.
       11   -1    0    0    0    0 -0.00000000000E+00 -0.00000000000E+00 -0.34996269501E-01  0.35000000000E-01  0.51099999109E-03 0. -1.
       22    1    1    2    0    0  0.12308853646E-03  0.51666816797E-03  0.32315486680E-01  0.32319851115E-01  0.00000000000E+00 0.  1.
       22    1    1    2    0    0 -0.46254519558E-03 -0.76903099485E-03 -0.34975350678E-01  0.34986861988E-01  0.00000000000E+00 0. -1.
       22    1    1    2    0    0  0.33945665912E-03  0.25236282688E-03  0.26598639981E-02  0.26932868967E-02  0.00000000000E+00 0.  1.
</event>
<event>
 5   0  0.1496444E+06  0.9118800E+02  0.7546771E-02  0.1180000E+00
      -11   -1    0    0    0    0  0.00000000000E+00  0.00000000000E+00  0.34996269501E-01  0.35000000000E-01  0.51099999109E-03 0.  1.
       11   -1    0    0    0    0 -0.00000000000E+00 -0.00000000000E+00 -0.34996269501E-01  0.35000000000E-01  0.51099999109E-03 0.  1.
       22    1    1    2    0    0  0.53067244535E-03  0.12016834641E-02 -0.17014875519E-02  0.21495851417E-02  0.00000000000E+00 0. -1.
       22    1    1    2    0    0 -0.25169300388E-03 -0.18861521667E-03 -0.33065778055E-01  0.33067273905E-01  0.00000000000E+00 0.  1.
       22    1    1    2    0    0 -0.27897944147E-03 -0.10130682474E-02  0.34767265607E-01  0.34783140954E-01  0.00000000000E+00 0.  1.
</event>
<event>
 5   0  0.1496444E+06  0.9118800E+02  0.7546771E-02  0.1180000E+00
      -11   -1    0    0    0    0  0.00000000000E+00  0.00000000000E+00  0.34996269501E-01  0.35000000000E-01  0.51099999109E-03 0. -1.
       11   -1    0    0    0    0 -0.00000000000E+00 -0.00000000000E+00 -0.34996269501E-01  0.35000000000E-01  0.51099999109E-03 0. -1.
       22    1    1    2    0    0 -0.14028714965E-03 -0.32884063148E-04  0.34990095914E-01  0.34990392594E-01  0.00000000000E+00 0. -1.
       22    1    1    2    0    0  0.33125497153E-04  0.36306340649E-05 -0.19049198684E-04  0.38384268077E-04  0.00000000000E+00 0. -1.
       22    1    1    2    0    0  0.10716165250E-03  0.29253429083E-04 -0.34971046715E-01  0.34971223138E-01  0.00000000000E+00 0. -1.
</event>
<event>
 5   0  0.1496444E+06  0.9118800E+02  0.7546771E-02  0.1180000E+00
      -11   -1    0    0    0    0  0.00000000000E+00  0.00000000000E+00  0.34996269501E-01  0.35000000000E-01  0.51099999109E-03 0.  1.
       11   -1    0    0    0    0 -0.00000000000E+00 -0.00000000000E+00 -0.34996269501E-01  0.35000000000E-01  0.51099999109E-03 0. -1.
       22    1    1    2    0    0 -0.29594394575E-01 -0.99509614869E-02  0.15737730993E-01  0.34964639303E-01  0.00000000000E+00 0.  1.
       22    1    1    2    0    0  0.34542466540E-05 -0.10254496885E-04 -0.12744404200E-03  0.12790258156E-03  0.00000000000E+00 0. -1.
       22    1    1    2    0    0  0.29590940328E-01  0.99612159838E-02 -0.15610286951E-01  0.34907458116E-01  0.00000000000E+00 0. -1.
</event>
<event>
 5   0  0.1496444E+06  0.9118800E+02  0.7546771E-02  0.1180000E+00
      -11   -1    0    0    0    0  0.00000000000E+00  0.00000000000E+00  0.34996269501E-01  0.35000000000E-01  0.51099999109E-03 0. -1.
       11   -1    0    0    0    0 -0.00000000000E+00 -0.00000000000E+00 -0.34996269501E-01  0.35000000000E-01  0.51099999109E-03 0.  1.
       22    1    1    2    0    0 -0.60648057913E-04  0.46018970918E-03 -0.34996778627E-01  0.34999856671E-01  0.00000000000E+00 0.  1.
       22    1    1    2    0    0  0.75905510912E-04 -0.22805203684E-03  0.21685807417E-01  0.21687139339E-01  0.00000000000E+00 0. -1.
       22    1    1    2    0    0 -0.15257452998E-04 -0.23213767234E-03  0.13310971210E-01  0.13313003990E-01  0.00000000000E+00 0. -1.
</event>
<event>
 5   0  0.1496444E+06  0.9118800E+02  0.7546771E-02  0.1180000E+00
      -11   -1    0    0    0    0  0.00000000000E+00  0.00000000000E+00  0.34996269501E-01  0.35000000000E-01  0.51099999109E-03 0.  1.
       11   -1    0    0    0    0 -0.00000000000E+00 -0.00000000000E+00 -0.34996269501E-01  0.35000000000E-01  0.51099999109E-03 0.  1.
       22    1    1    2    0    0  0.37447926500E-05 -0.17349095835E-05  0.73986125748E-04  0.74101148348E-04  0.00000000000E+00 0.  1.
       22    1    1    2    0    0 -0.37450615039E-05  0.17350341397E-05  0.34927241526E-01  0.34925955125E-01  0.00000000000E+00 0.  1.
       22    1    1    2    0    0  0.26885390480E-09 -0.12455621968E-09 -0.35001227652E-01  0.34999943727E-01  0.00000000000E+00 0.  1.
</event>
<event>
 5   0  0.1496444E+06  0.9118800E+02  0.7546771E-02  0.1180000E+00
      -11   -1    0    0    0    0  0.00000000000E+00  0.00000000000E+00  0.34996269501E-01  0.35000000000E-01  0.51099999109E-03 0.  1.
       11   -1    0    0    0    0 -0.00000000000E+00 -0.00000000000E+00 -0.34996269501E-01  0.35000000000E-01  0.51099999109E-03 0. -1.
       22    1    1    2    0    0 -0.19402847176E-01 -0.13828671799E-01 -0.20673908774E-01  0.31545414028E-01  0.00000000000E+00 0. -1.
       22    1    1    2    0    0  0.21079852394E-01  0.13255980805E-01  0.24064265383E-01  0.34629035107E-01  0.00000000000E+00 0.  1.
       22    1    1    2    0    0 -0.16770052183E-02  0.57269099389E-03 -0.33903566092E-02  0.38255508642E-02  0.00000000000E+00 0.  1.
</event>
<event>
 5   0  0.1496444E+06  0.9118800E+02  0.7546771E-02  0.1180000E+00
      -11   -1    0    0    0    0  0.00000000000E+00  0.00000000000E+00  0.34996269501E-01  0.35000000000E-01  0.51099999109E-03 0. -1.
       11   -1    0    0    0    0 -0.00000000000E+00 -0.00000000000E+00 -0.34996269501E-01  0.35000000000E-01  0.51099999109E-03 0. -1.
       22    1    1    2    0    0 -0.36616893982E-06  0.66096386803E-06  0.28607676483E-06  0.80795596582E-06  0.00000000000E+00 0. -1.
       22    1    1    2    0    0  0.63696064722E-03 -0.69055318680E-03  0.34986852096E-01  0.34999462884E-01  0.00000000000E+00 0. -1.
       22    1    1    2    0    0 -0.63659447828E-03  0.68989222293E-03 -0.34987138172E-01  0.34999729160E-01  0.00000000000E+00 0. -1.
</event>
<event>
 5   0  0.1496444E+06  0.9118800E+02  0.7546771E-02  0.1180000E+00
      -11   -1    0    0    0    0  0.00000000000E+00  0.00000000000E+00  0.34996269501E-01  0.35000000000E-01  0.51099999109E-03 0.  1.
       11   -1    0    0    0    0 -0.00000000000E+00 -0.00000000000E+00 -0.34996269501E-01  0.35000000000E-01  0.51099999109E-03 0. -1.
       22    1    1    2    0    0 -0.36406531292E-03 -0.82397738746E-03 -0.24457197996E-03  0.93343330801E-03  0.00000000000E+00 0. -1.
       22    1    1    2    0    0  0.20432459741E-02 -0.21401654332E-02 -0.34263357908E-01  0.34390883346E-01  0.00000000000E+00 0. -1.
       22    1    1    2    0    0 -0.16791806612E-02  0.29641428207E-02  0.34507929888E-01  0.34675683346E-01  0.00000000000E+00 0.  1.
</event>
<event>
 5   0  0.1496444E+06  0.9118800E+02  0.7546771E-02  0.1180000E+00
      -11   -1    0    0    0    0  0.00000000000E+00  0.00000000000E+00  0.34996269501E-01  0.35000000000E-01  0.51099999109E-03 0.  1.
       11   -1    0    0    0    0 -0.00000000000E+00 -0.00000000000E+00 -0.34996269501E-01  0.35000000000E-01  0.51099999109E-03 0. -1.
       22    1    1    2    0    0  0.88364688803E-03  0.83026646037E-03  0.34916248491E-01  0.34937295014E-01  0.00000000000E+00 0.  1.
       22    1    1    2    0    0 -0.87757324317E-03 -0.71629257821E-03 -0.34929445224E-01  0.34947808995E-01  0.00000000000E+00 0. -1.
       22    1    1    2    0    0 -0.60736448568E-05 -0.11397388217E-03  0.13196732773E-04  0.11489599094E-03  0.00000000000E+00 0. -1.
</event>
<event>
 5   0  0.1496444E+06  0.9118800E+02  0.7546771E-02  0.1180000E+00
      -11   -1    0    0    0    0  0.00000000000E+00  0.00000000000E+00  0.34996269501E-01  0.35000000000E-01  0.51099999109E-03 0. -1.
       11   -1    0    0    0    0 -0.00000000000E+00 -0.00000000000E+00 -0.34996269501E-01  0.35000000000E-01  0.51099999109E-03 0.  1.
       22    1    1    2    0    0 -0.75630890576E-08  0.56863052480E-08  0.15987095461E-07  0.18577448822E-07  0.00000000000E+00 0. -1.
       22    1    1    2    0    0  0.14868602849E-01 -0.31435248349E-02  0.31528429663E-01  0.34999985372E-01  0.00000000000E+00 0. -1.
       22    1    1    2    0    0 -0.14868595286E-01  0.31435191486E-02 -0.31528445650E-01  0.34999996050E-01  0.00000000000E+00 0.  1.
</event>
<event>
 5   0  0.1496444E+06  0.9118800E+02  0.7546771E-02  0.1180000E+00
      -11   -1    0    0    0    0  0.00000000000E+00  0.00000000000E+00  0.34996269501E-01  0.35000000000E-01  0.51099999109E-03 0. -1.
       11   -1    0    0    0    0 -0.00000000000E+00 -0.00000000000E+00 -0.34996269501E-01  0.35000000000E-01  0.51099999109E-03 0.  1.
       22    1    1    2    0    0 -0.17142027350E-02 -0.29230607498E-02 -0.34835574034E-01  0.34999999906E-01  0.00000000000E+00 0.  1.
       22    1    1    2    0    0 -0.28214109320E-09  0.13431344802E-09  0.17197356656E-09  0.35667717391E-09  0.00000000000E+00 0.  1.
       22    1    1    2    0    0  0.17142030171E-02  0.29230606154E-02  0.34835573862E-01  0.34999999737E-01  0.00000000000E+00 0. -1.
</event>
<event>
 5   0  0.1496444E+06  0.9118800E+02  0.7546771E-02  0.1180000E+00
      -11   -1    0    0    0    0  0.00000000000E+00  0.00000000000E+00  0.34996269501E-01  0.35000000000E-01  0.51099999109E-03 0. -1.
       11   -1    0    0    0    0 -0.00000000000E+00 -0.00000000000E+00 -0.34996269501E-01  0.35000000000E-01  0.51099999109E-03 0. -1.
       22    1    1    2    0    0  0.22959589521E-11  0.16196867604E-10 -0.35000729544E-01  0.34999977499E-01  0.00000000000E+00 0. -1.
       22    1    1    2    0    0 -0.35851753166E-07 -0.25291658584E-06  0.35000027395E-01  0.34999275336E-01  0.00000000000E+00 0. -1.
       22    1    1    2    0    0  0.35849457207E-07  0.25290038898E-06  0.70214826572E-06  0.74716529455E-06  0.00000000000E+00 0.  1.
</event>
<event>
 5   0  0.1496444E+06  0.9118800E+02  0.7546771E-02  0.1180000E+00
      -11   -1    0    0    0    0  0.00000000000E+00  0.00000000000E+00  0.34996269501E-01  0.35000000000E-01  0.51099999109E-03 0. -1.
       11   -1    0    0    0    0 -0.00000000000E+00 -0.00000000000E+00 -0.34996269501E-01  0.35000000000E-01  0.51099999109E-03 0.  1.
       22    1    1    2    0    0  0.00000000000E+00 -0.00000000000E+00  0.34104141316E-01  0.34103377748E-01  0.00000000000E+00 0. -1.
       22    1    1    2    0    0 -0.80629155023E-03  0.30465454884E-03  0.68242795384E-03  0.10993763552E-02  0.00000000000E+00 0. -1.
       22    1    1    2    0    0  0.80629155023E-03 -0.30465454884E-03 -0.34786569269E-01  0.34797245897E-01  0.00000000000E+00 0.  1.
</event>
<event>
 5   0  0.1496444E+06  0.9118800E+02  0.7546771E-02  0.1180000E+00
      -11   -1    0    0    0    0  0.00000000000E+00  0.00000000000E+00  0.34996269501E-01  0.35000000000E-01  0.51099999109E-03 0. -1.
       11   -1    0    0    0    0 -0.00000000000E+00 -0.00000000000E+00 -0.34996269501E-01  0.35000000000E-01  0.51099999109E-03 0.  1.
       22    1    1    2    0    0 -0.18971341184E-01  0.40010496705E-02  0.29136497418E-01  0.34997938033E-01  0.00000000000E+00 0. -1.
       22    1    1    2    0    0  0.18969082228E-01 -0.40005733242E-02 -0.29138945322E-01  0.34998697146E-01  0.00000000000E+00 0.  1.
       22    1    1    2    0    0  0.22589554931E-05 -0.47634625824E-06  0.24479039962E-05  0.33648208945E-05  0.00000000000E+00 0. -1.
</event>
<event>
 5   0  0.1496444E+06  0.9118800E+02  0.7546771E-02  0.1180000E+00
      -11   -1    0    0    0    0  0.00000000000E+00  0.00000000000E+00  0.34996269501E-01  0.35000000000E-01  0.51099999109E-03 0.  1.
       11   -1    0    0    0    0 -0.00000000000E+00 -0.00000000000E+00 -0.34996269501E-01  0.35000000000E-01  0.51099999109E-03 0.  1.
       22    1    1    2    0    0 -0.48590303911E-03  0.43308422171E-03 -0.34952198648E-01  0.34958258738E-01  0.00000000000E+00 0.  1.
       22    1    1    2    0    0  0.32292289618E-03 -0.40350652905E-03  0.34834992167E-01  0.34838825698E-01  0.00000000000E+00 0.  1.
       22    1    1    2    0    0  0.16298014293E-03 -0.29577692655E-04  0.11720648026E-03  0.20291556349E-03  0.00000000000E+00 0. -1.
</event>
<event>
 5   0  0.1496444E+06  0.9118800E+02  0.7546771E-02  0.1180000E+00
      -11   -1    0    0    0    0  0.00000000000E+00  0.00000000000E+00  0.34996269501E-01  0.35000000000E-01  0.51099999109E-03 0. -1.
       11   -1    0    0    0    0 -0.00000000000E+00 -0.00000000000E+00 -0.34996269501E-01  0.35000000000E-01  0.51099999109E-03 0.  1.
       22    1    1    2    0    0  0.30783774584E-02  0.63813292570E-02 -0.27209897105E-02  0.75895688855E-02  0.00000000000E+00 0. -1.
       22    1    1    2    0    0  0.13870522936E-02 -0.69129945979E-03  0.32108506791E-01  0.32145886477E-01  0.00000000000E+00 0. -1.
       22    1    1    2    0    0 -0.44654297520E-02 -0.56900297972E-02 -0.29387517081E-01  0.30264544638E-01  0.00000000000E+00 0.  1.
</event>
<event>
 5   0  0.1496444E+06  0.9118800E+02  0.7546771E-02  0.1180000E+00
      -11   -1    0    0    0    0  0.00000000000E+00  0.00000000000E+00  0.34996269501E-01  0.35000000000E-01  0.51099999109E-03 0.  1.
       11   -1    0    0    0    0 -0.00000000000E+00 -0.00000000000E+00 -0.34996269501E-01  0.35000000000E-01  0.51099999109E-03 0. -1.
       22    1    1    2    0    0  0.13397646710E-05  0.22578301302E-05  0.17552341478E-06  0.26312686559E-05  0.00000000000E+00 0.  1.
       22    1    1    2    0    0  0.11010190268E-03  0.14687707866E-02 -0.34967716078E-01  0.34998722516E-01  0.00000000000E+00 0. -1.
       22    1    1    2    0    0 -0.11144166736E-03 -0.14710286168E-02  0.34967540555E-01  0.34998646215E-01  0.00000000000E+00 0.  1.
</event>
<event>
 5   0  0.1496444E+06  0.9118800E+02  0.7546771E-02  0.1180000E+00
      -11   -1    0    0    0    0  0.00000000000E+00  0.00000000000E+00  0.34996269501E-01  0.35000000000E-01  0.51099999109E-03 0. -1.
       11   -1    0    0    0    0 -0.00000000000E+00 -0.00000000000E+00 -0.34996269501E-01  0.35000000000E-01  0.51099999109E-03 0.  1.
       22    1    1    2    0    0  0.87121289695E-02  0.30125372362E-01 -0.15542189247E-01  0.34999984254E-01  0.00000000000E+00 0. -1.
       22    1    1    2    0    0 -0.87121238204E-02 -0.30125377570E-01  0.15542139317E-01  0.34999965282E-01  0.00000000000E+00 0.  1.
       22    1    1    2    0    0 -0.51490767241E-08  0.52071563059E-08  0.49930319181E-07  0.50464484952E-07  0.00000000000E+00 0.  1.
</event>
<event>
 5   0  0.1496444E+06  0.9118800E+02  0.7546771E-02  0.1180000E+00
      -11   -1    0    0    0    0  0.00000000000E+00  0.00000000000E+00  0.34996269501E-01  0.35000000000E-01  0.51099999109E-03 0.  1.
       11   -1    0    0    0    0 -0.00000000000E+00 -0.00000000000E+00 -0.34996269501E-01  0.35000000000E-01  0.51099999109E-03 0. -1.
       22    1    1    2    0    0 -0.42078000686E-02 -0.49853877045E-02 -0.33767256719E-01  0.34391674840E-01  0.00000000000E+00 0. -1.
       22    1    1    2    0    0  0.55792604799E-02  0.67788829668E-02  0.29524523434E-01  0.30802254557E-01  0.00000000000E+00 0.  1.
       22    1    1    2    0    0 -0.13714604113E-02 -0.17934952623E-02  0.42427332844E-02  0.48060706027E-02  0.00000000000E+00 0.  1.
</event>
<event>
 5   0  0.1496444E+06  0.9118800E+02  0.7546771E-02  0.1180000E+00
      -11   -1    0    0    0    0  0.00000000000E+00  0.00000000000E+00  0.34996269501E-01  0.35000000000E-01  0.51099999109E-03 0.  1.
       11   -1    0    0    0    0 -0.00000000000E+00 -0.00000000000E+00 -0.34996269501E-01  0.35000000000E-01  0.51099999109E-03 0. -1.
       22    1    1    2    0    0  0.28183787297E-06  0.51473570424E-06  0.10326156328E-04  0.10342818278E-04  0.00000000000E+00 0. -1.
       22    1    1    2    0    0  0.94989148081E-04  0.22585210022E-02 -0.34926888383E-01  0.34999963888E-01  0.00000000000E+00 0. -1.
       22    1    1    2    0    0 -0.95270985954E-04 -0.22590357379E-02  0.34916562227E-01  0.34989693293E-01  0.00000000000E+00 0.  1.
</event>
<event>
 5   0  0.1496444E+06  0.9118800E+02  0.7546771E-02  0.1180000E+00
      -11   -1    0    0    0    0  0.00000000000E+00  0.00000000000E+00  0.34996269501E-01  0.35000000000E-01  0.51099999109E-03 0. -1.
       11   -1    0    0    0    0 -0.00000000000E+00 -0.00000000000E+00 -0.34996269501E-01  0.35000000000E-01  0.51099999109E-03 0.  1.
       22    1    1    2    0    0 -0.33077430474E-03  0.18354708418E-02 -0.34939963680E-01  0.34989704583E-01  0.00000000000E+00 0.  1.
       22    1    1    2    0    0 -0.27689292902E-04 -0.19521732738E-04  0.16268938619E-04  0.37582886456E-04  0.00000000000E+00 0.  1.
       22    1    1    2    0    0  0.35846359764E-03 -0.18159491091E-02  0.34923694742E-01  0.34972712530E-01  0.00000000000E+00 0. -1.
</event>
<event>
 5   0  0.1496444E+06  0.9118800E+02  0.7546771E-02  0.1180000E+00
      -11   -1    0    0    0    0  0.00000000000E+00  0.00000000000E+00  0.34996269501E-01  0.35000000000E-01  0.51099999109E-03 0.  1.
       11   -1    0    0    0    0 -0.00000000000E+00 -0.00000000000E+00 -0.34996269501E-01  0.35000000000E-01  0.51099999109E-03 0. -1.
       22    1    1    2    0    0  0.55815535602E-02 -0.20253473850E-02 -0.34492494531E-01  0.34999827873E-01  0.00000000000E+00 0. -1.
       22    1    1    2    0    0 -0.55803982613E-02  0.20239872626E-02  0.34453443002E-01  0.34961079845E-01  0.00000000000E+00 0.  1.
       22    1    1    2    0    0 -0.11552988667E-05  0.13601223399E-05  0.39051528802E-04  0.39092282486E-04  0.00000000000E+00 0.  1.
</event>
<event>
 5   0  0.1496444E+06  0.9118800E+02  0.7546771E-02  0.1180000E+00
      -11   -1    0    0    0    0  0.00000000000E+00  0.00000000000E+00  0.34996269501E-01  0.35000000000E-01  0.51099999109E-03 0. -1.
       11   -1    0    0    0    0 -0.00000000000E+00 -0.00000000000E+00 -0.34996269501E-01  0.35000000000E-01  0.51099999109E-03 0.  1.
       22    1    1    2    0    0  0.42942651151E-04  0.49551494328E-04  0.43062728884E-04  0.78446290524E-04  0.00000000000E+00 0.  1.
       22    1    1    2    0    0  0.28301261349E-01  0.12697501346E-01 -0.16090791831E-01  0.34944262993E-01  0.00000000000E+00 0.  1.
       22    1    1    2    0    0 -0.28344204000E-01 -0.12747052840E-01  0.16047729102E-01  0.34977290716E-01  0.00000000000E+00 0. -1.
</event>
<event>
 5   0  0.1496444E+06  0.9118800E+02  0.7546771E-02  0.1180000E+00
      -11   -1    0    0    0    0  0.00000000000E+00  0.00000000000E+00  0.34996269501E-01  0.35000000000E-01  0.51099999109E-03 0.  1.
       11   -1    0    0    0    0 -0.00000000000E+00 -0.00000000000E+00 -0.34996269501E-01  0.35000000000E-01  0.51099999109E-03 0. -1.
       22    1    1    2    0    0  0.69828201750E-03 -0.37353512113E-02  0.14573284217E-01  0.15060579647E-01  0.00000000000E+00 0.  1.
       22    1    1    2    0    0 -0.13765021786E-01 -0.97216789806E-02  0.13213287781E-01  0.21414430671E-01  0.00000000000E+00 0.  1.
       22    1    1    2    0    0  0.13066739768E-01  0.13457030192E-01 -0.27786571998E-01  0.33524989682E-01  0.00000000000E+00 0. -1.
</event>
<event>
 5   0  0.1496444E+06  0.9118800E+02  0.7546771E-02  0.1180000E+00
      -11   -1    0    0    0    0  0.00000000000E+00  0.00000000000E+00  0.34996269501E-01  0.35000000000E-01  0.51099999109E-03 0. -1.
       11   -1    0    0    0    0 -0.00000000000E+00 -0.00000000000E+00 -0.34996269501E-01  0.35000000000E-01  0.51099999109E-03 0.  1.
       22    1    1    2    0    0 -0.83841685488E-04  0.11299373723E-03 -0.32388975482E-03  0.35313111751E-03  0.00000000000E+00 0. -1.
       22    1    1    2    0    0 -0.15195565647E-04 -0.51560469776E-03 -0.34658341904E-01  0.34662180292E-01  0.00000000000E+00 0.  1.
       22    1    1    2    0    0  0.99037251135E-04  0.40261096053E-03  0.34982231658E-01  0.34984688590E-01  0.00000000000E+00 0. -1.
</event>
<event>
 5   0  0.1496444E+06  0.9118800E+02  0.7546771E-02  0.1180000E+00
      -11   -1    0    0    0    0  0.00000000000E+00  0.00000000000E+00  0.34996269501E-01  0.35000000000E-01  0.51099999109E-03 0. -1.
       11   -1    0    0    0    0 -0.00000000000E+00 -0.00000000000E+00 -0.34996269501E-01  0.35000000000E-01  0.51099999109E-03 0.  1.
       22    1    1    2    0    0  0.54654202912E-02 -0.21691821315E-01 -0.26765295375E-01  0.34882473643E-01  0.00000000000E+00 0.  1.
       22    1    1    2    0    0  0.15628936628E-05  0.91370627934E-06 -0.13311756907E-03  0.13312987903E-03  0.00000000000E+00 0.  1.
       22    1    1    2    0    0 -0.54669831849E-02  0.21690907609E-01  0.26898412944E-01  0.34984396478E-01  0.00000000000E+00 0. -1.
</event>
<event>
 5   0  0.1496444E+06  0.9118800E+02  0.7546771E-02  0.1180000E+00
      -11   -1    0    0    0    0  0.00000000000E+00  0.00000000000E+00  0.34996269501E-01  0.35000000000E-01  0.51099999109E-03 0.  1.
       11   -1    0    0    0    0 -0.00000000000E+00 -0.00000000000E+00 -0.34996269501E-01  0.35000000000E-01  0.51099999109E-03 0.  1.
       22    1    1    2    0    0 -0.51368094755E-11  0.26882065887E-11 -0.35002389679E-01  0.34999996321E-01  0.00000000000E+00 0.  1.
       22    1    1    2    0    0 -0.58710624836E-07  0.30724575101E-07  0.29391960269E-06  0.30129664756E-06  0.00000000000E+00 0. -1.
       22    1    1    2    0    0  0.58715761645E-07 -0.30727263308E-07  0.35002095760E-01  0.34999702382E-01  0.00000000000E+00 0.  1.
</event>
<event>
 5   0  0.1496444E+06  0.9118800E+02  0.7546771E-02  0.1180000E+00
      -11   -1    0    0    0    0  0.00000000000E+00  0.00000000000E+00  0.34996269501E-01  0.35000000000E-01  0.51099999109E-03 0. -1.
       11   -1    0    0    0    0 -0.00000000000E+00 -0.00000000000E+00 -0.34996269501E-01  0.35000000000E-01  0.51099999109E-03 0.  1.
       22    1    1    2    0    0  0.45331280051E-07  0.45418058011E-08  0.64557039196E-06  0.64717592965E-06  0.00000000000E+00 0.  1.
       22    1    1    2    0    0 -0.71194612626E-03  0.52102244200E-02 -0.34602693394E-01  0.34999995656E-01  0.00000000000E+00 0.  1.
       22    1    1    2    0    0  0.71190079498E-03 -0.52102289618E-02  0.34602047824E-01  0.34999357168E-01  0.00000000000E+00 0. -1.
</event>
<event>
 5   0  0.1496444E+06  0.9118800E+02  0.7546771E-02  0.1180000E+00
      -11   -1    0    0    0    0  0.00000000000E+00  0.00000000000E+00  0.34996269501E-01  0.35000000000E-01  0.51099999109E-03 0. -1.
       11   -1    0    0    0    0 -0.00000000000E+00 -0.00000000000E+00 -0.34996269501E-01  0.35000000000E-01  0.51099999109E-03 0.  1.
       22    1    1    2    0    0 -0.60969000037E-02 -0.23572162279E-02 -0.27422894561E-01  0.28191200828E-01  0.00000000000E+00 0.  1.
       22    1    1    2    0    0 -0.34046164341E-02  0.82925055226E-02  0.29128575811E-01  0.30476728657E-01  0.00000000000E+00 0. -1.
       22    1    1    2    0    0  0.95015164378E-02 -0.59352892946E-02 -0.17056812496E-02  0.11332070515E-01  0.00000000000E+00 0.  1.
</event>
<event>
 5   0  0.1496444E+06  0.9118800E+02  0.7546771E-02  0.1180000E+00
      -11   -1    0    0    0    0  0.00000000000E+00  0.00000000000E+00  0.34996269501E-01  0.35000000000E-01  0.51099999109E-03 0.  1.
       11   -1    0    0    0    0 -0.00000000000E+00 -0.00000000000E+00 -0.34996269501E-01  0.35000000000E-01  0.51099999109E-03 0. -1.
       22    1    1    2    0    0  0.45396367770E-02 -0.30619399834E-02 -0.34565474687E-01  0.34996511525E-01  0.00000000000E+00 0. -1.
       22    1    1    2    0    0  0.52333594965E-05 -0.10742784029E-05 -0.81014123561E-06  0.54035594313E-05  0.00000000000E+00 0.  1.
       22    1    1    2    0    0 -0.45448701365E-02  0.30630142618E-02  0.34566284829E-01  0.34998084916E-01  0.00000000000E+00 0.  1.
</event>
<event>
 5   0  0.1496444E+06  0.9118800E+02  0.7546771E-02  0.1180000E+00
      -11   -1    0    0    0    0  0.00000000000E+00  0.00000000000E+00  0.34996269501E-01  0.35000000000E-01  0.51099999109E-03 0.  1.
       11   -1    0    0    0    0 -0.00000000000E+00 -0.00000000000E+00 -0.34996269501E-01  0.35000000000E-01  0.51099999109E-03 0. -1.
       22    1    1    2    0    0 -0.62611014683E-08  0.11715197184E-07  0.21352857001E-07  0.25147400239E-07  0.00000000000E+00 0. -1.
       22    1    1    2    0    0 -0.77860435751E-03  0.19095386664E-02 -0.34939193980E-01  0.34999997695E-01  0.00000000000E+00 0. -1.
       22    1    1    2    0    0  0.77861061861E-03 -0.19095503816E-02  0.34939172627E-01  0.34999977158E-01  0.00000000000E+00 0.  1.
</event>
<event>
 5   0  0.1496444E+06  0.9118800E+02  0.7546771E-02  0.1180000E+00
      -11   -1    0    0    0    0  0.00000000000E+00  0.00000000000E+00  0.34996269501E-01  0.35000000000E-01  0.51099999109E-03 0.  1.
       11   -1    0    0    0    0 -0.00000000000E+00 -0.00000000000E+00 -0.34996269501E-01  0.35000000000E-01  0.51099999109E-03 0.  1.
       22    1    1    2    0    0 -0.19998204237E-07 -0.13273326615E-07  0.35001643805E-01  0.34999879473E-01  0.00000000000E+00 0.  1.
       22    1    1    2    0    0  0.19996634380E-07  0.13272284660E-07  0.11932951448E-06  0.12171915196E-06  0.00000000000E+00 0.  1.
       22    1    1    2    0    0  0.15698573698E-11  0.10419550356E-11 -0.35001763134E-01  0.34999998808E-01  0.00000000000E+00 0.  1.
</event>
<event>
 5   0  0.1496444E+06  0.9118800E+02  0.7546771E-02  0.1180000E+00
      -11   -1    0    0    0    0  0.00000000000E+00  0.00000000000E+00  0.34996269501E-01  0.35000000000E-01  0.51099999109E-03 0.  1.
       11   -1    0    0    0    0 -0.00000000000E+00 -0.00000000000E+00 -0.34996269501E-01  0.35000000000E-01  0.51099999109E-03 0. -1.
       22    1    1    2    0    0 -0.10921242921E-01  0.11715607709E-01  0.29961081178E-01  0.33973451345E-01  0.00000000000E+00 0.  1.
       22    1    1    2    0    0  0.10830726833E-01 -0.11746551244E-01 -0.31057261574E-01  0.34926202289E-01  0.00000000000E+00 0. -1.
       22    1    1    2    0    0  0.90516087786E-04  0.30943535023E-04  0.10961803958E-02  0.11003463657E-02  0.00000000000E+00 0. -1.
</event>
<event>
 5   0  0.1496444E+06  0.9118800E+02  0.7546771E-02  0.1180000E+00
      -11   -1    0    0    0    0  0.00000000000E+00  0.00000000000E+00  0.34996269501E-01  0.35000000000E-01  0.51099999109E-03 0.  1.
       11   -1    0    0    0    0 -0.00000000000E+00 -0.00000000000E+00 -0.34996269501E-01  0.35000000000E-01  0.51099999109E-03 0. -1.
       22    1    1    2    0    0  0.50042511800E-02  0.76008692015E-02 -0.33796156893E-01  0.34999942332E-01  0.00000000000E+00 0. -1.
       22    1    1    2    0    0  0.84173334110E-07  0.32896839941E-07 -0.57967812044E-08  0.90559123922E-07  0.00000000000E+00 0.  1.
       22    1    1    2    0    0 -0.50043353533E-02 -0.76009020983E-02  0.33796162690E-01  0.34999967109E-01  0.00000000000E+00 0.  1.
</event>
<event>
 5   0  0.1496444E+06  0.9118800E+02  0.7546771E-02  0.1180000E+00
      -11   -1    0    0    0    0  0.00000000000E+00  0.00000000000E+00  0.34996269501E-01  0.35000000000E-01  0.51099999109E-03 0. -1.
       11   -1    0    0    0    0 -0.00000000000E+00 -0.00000000000E+00 -0.34996269501E-01  0.35000000000E-01  0.51099999109E-03 0.  1.
       22    1    1    2    0    0 -0.24999883251E-02 -0.78179207545E-02 -0.26586601756E-01  0.27824759109E-01  0.00000000000E+00 0.  1.
       22    1    1    2    0    0  0.19665310632E-02  0.88598120677E-02  0.33733577410E-01  0.34933046806E-01  0.00000000000E+00 0. -1.
       22    1    1    2    0    0  0.53345726189E-03 -0.10418913132E-02 -0.71469756542E-02  0.72421940847E-02  0.00000000000E+00 0.  1.
</event>
<event>
 5   0  0.1496444E+06  0.9118800E+02  0.7546771E-02  0.1180000E+00
      -11   -1    0    0    0    0  0.00000000000E+00  0.00000000000E+00  0.34996269501E-01  0.35000000000E-01  0.51099999109E-03 0.  1.
       11   -1    0    0    0    0 -0.00000000000E+00 -0.00000000000E+00 -0.34996269501E-01  0.35000000000E-01  0.51099999109E-03 0. -1.
       22    1    1    2    0    0  0.17465172572E-05  0.43439919363E-05 -0.86696765627E-04  0.86823094616E-04  0.00000000000E+00 0.  1.
       22    1    1    2    0    0 -0.10823911161E-01 -0.19103814882E-01  0.27245398298E-01  0.34991777953E-01  0.00000000000E+00 0.  1.
       22    1    1    2    0    0  0.10822164644E-01  0.19099470890E-01 -0.27158701533E-01  0.34921398953E-01  0.00000000000E+00 0. -1.
</event>
<event>
 5   0  0.1496444E+06  0.9118800E+02  0.7546771E-02  0.1180000E+00
      -11   -1    0    0    0    0  0.00000000000E+00  0.00000000000E+00  0.34996269501E-01  0.35000000000E-01  0.51099999109E-03 0.  1.
       11   -1    0    0    0    0 -0.00000000000E+00 -0.00000000000E+00 -0.34996269501E-01  0.35000000000E-01  0.51099999109E-03 0. -1.
       22    1    1    2    0    0  0.20443856799E-08 -0.56582447463E-09  0.11399504361E-08  0.24081439204E-08  0.00000000000E+00 0. -1.
       22    1    1    2    0    0 -0.99548403366E-02 -0.38937620734E-02  0.33327761201E-01  0.34999998512E-01  0.00000000000E+00 0.  1.
       22    1    1    2    0    0  0.99548382922E-02  0.38937626393E-02 -0.33327762341E-01  0.34999999079E-01  0.00000000000E+00 0. -1.
</event>
<event>
 5   0  0.1496444E+06  0.9118800E+02  0.7546771E-02  0.1180000E+00
      -11   -1    0    0    0    0  0.00000000000E+00  0.00000000000E+00  0.34996269501E-01  0.35000000000E-01  0.51099999109E-03 0.  1.
       11   -1    0    0    0    0 -0.00000000000E+00 -0.00000000000E+00 -0.34996269501E-01  0.35000000000E-01  0.51099999109E-03 0. -1.
       22    1    1    2    0    0  0.28469669799E-07  0.28733098065E-06  0.12290952976E-05  0.12625548959E-05  0.00000000000E+00 0.  1.
       22    1    1    2    0    0  0.86525872454E-03  0.21573725580E-02 -0.34922702650E-01  0.34999972705E-01  0.00000000000E+00 0. -1.
       22    1    1    2    0    0 -0.86528719421E-03 -0.21576598890E-02  0.34921473554E-01  0.34998764740E-01  0.00000000000E+00 0.  1.
</event>
<event>
 5   0  0.1496444E+06  0.9118800E+02  0.7546771E-02  0.1180000E+00
      -11   -1    0    0    0    0  0.00000000000E+00  0.00000000000E+00  0.34996269501E-01  0.35000000000E-01  0.51099999109E-03 0. -1.
       11   -1    0    0    0    0 -0.00000000000E+00 -0.00000000000E+00 -0.34996269501E-01  0.35000000000E-01  0.51099999109E-03 0.  1.
       22    1    1    2    0    0 -0.18657001621E-05 -0.17582298854E-05  0.22077557839E-06  0.25731209223E-05  0.00000000000E+00 0.  1.
       22    1    1    2    0    0 -0.25512108776E-01  0.13974181817E-01  0.19461170647E-01  0.34998323025E-01  0.00000000000E+00 0. -1.
       22    1    1    2    0    0  0.25513974476E-01 -0.13972423587E-01 -0.19461391423E-01  0.34999103854E-01  0.00000000000E+00 0.  1.
</event>
<event>
 5   0  0.1496444E+06  0.9118800E+02  0.7546771E-02  0.1180000E+00
      -11   -1    0    0    0    0  0.00000000000E+00  0.00000000000E+00  0.34996269501E-01  0.35000000000E-01  0.51099999109E-03 0.  1.
       11   -1    0    0    0    0 -0.00000000000E+00 -0.00000000000E+00 -0.34996269501E-01  0.35000000000E-01  0.51099999109E-03 0. -1.
       22    1    1    2    0    0  0.46057873343E-08 -0.50489232730E-08  0.79201629463E-08  0.10461065160E-07  0.00000000000E+00 0.  1.
       22    1    1    2    0    0 -0.27115752194E-01 -0.45655926055E-02  0.21653889057E-01  0.34999993774E-01  0.00000000000E+00 0.  1.
       22    1    1    2    0    0  0.27115747588E-01  0.45655976544E-02 -0.21653896978E-01  0.34999995765E-01  0.00000000000E+00 0. -1.
</event>
<event>
 5   0  0.1496444E+06  0.9118800E+02  0.7546771E-02  0.1180000E+00
      -11   -1    0    0    0    0  0.00000000000E+00  0.00000000000E+00  0.34996269501E-01  0.35000000000E-01  0.51099999109E-03 0.  1.
       11   -1    0    0    0    0 -0.00000000000E+00 -0.00000000000E+00 -0.34996269501E-01  0.35000000000E-01  0.51099999109E-03 0. -1.
       22    1    1    2    0    0 -0.16411356763E-01 -0.59235293416E-02  0.25083266959E-02  0.17627039839E-01  0.00000000000E+00 0. -1.
       22    1    1    2    0    0  0.30403585028E-01 -0.55578478528E-02  0.73403749054E-02  0.31767101836E-01  0.00000000000E+00 0.  1.
       22    1    1    2    0    0 -0.13992228264E-01  0.11481377194E-01 -0.98487016014E-02  0.20605858325E-01  0.00000000000E+00 0. -1.
</event>
<event>
 5   0  0.1496444E+06  0.9118800E+02  0.7546771E-02  0.1180000E+00
      -11   -1    0    0    0    0  0.00000000000E+00  0.00000000000E+00  0.34996269501E-01  0.35000000000E-01  0.51099999109E-03 0. -1.
       11   -1    0    0    0    0 -0.00000000000E+00 -0.00000000000E+00 -0.34996269501E-01  0.35000000000E-01  0.51099999109E-03 0.  1.
       22    1    1    2    0    0  0.34298999585E-02  0.98734549160E-02 -0.32513275145E-01  0.34152048055E-01  0.00000000000E+00 0.  1.
       22    1    1    2    0    0 -0.12113666180E-02  0.18182305567E-03 -0.45677325111E-03  0.13073295337E-02  0.00000000000E+00 0.  1.
       22    1    1    2    0    0 -0.22185333406E-02 -0.10055277972E-01  0.32970048396E-01  0.34540622411E-01  0.00000000000E+00 0. -1.
</event>
<event>
 5   0  0.1496444E+06  0.9118800E+02  0.7546771E-02  0.1180000E+00
      -11   -1    0    0    0    0  0.00000000000E+00  0.00000000000E+00  0.34996269501E-01  0.35000000000E-01  0.51099999109E-03 0. -1.
       11   -1    0    0    0    0 -0.00000000000E+00 -0.00000000000E+00 -0.34996269501E-01  0.35000000000E-01  0.51099999109E-03 0.  1.
       22    1    1    2    0    0  0.64122948053E-08  0.18164116161E-07  0.15140361257E-06  0.15262406933E-06  0.00000000000E+00 0.  1.
       22    1    1    2    0    0  0.19092611421E-03 -0.11636487126E-03  0.34999133796E-01  0.34999848000E-01  0.00000000000E+00 0. -1.
       22    1    1    2    0    0 -0.19093252650E-03  0.11634670714E-03 -0.34999285200E-01  0.34999999376E-01  0.00000000000E+00 0.  1.
</event>
<event>
 5   0  0.1496444E+06  0.9118800E+02  0.7546771E-02  0.1180000E+00
      -11   -1    0    0    0    0  0.00000000000E+00  0.00000000000E+00  0.34996269501E-01  0.35000000000E-01  0.51099999109E-03 0.  1.
       11   -1    0    0    0    0 -0.00000000000E+00 -0.00000000000E+00 -0.34996269501E-01  0.35000000000E-01  0.51099999109E-03 0. -1.
       22    1    1    2    0    0 -0.27721847507E-07 -0.23239860149E-07  0.61600506175E-07  0.71436785272E-07  0.00000000000E+00 0. -1.
       22    1    1    2    0    0 -0.22217316728E-01  0.18729267672E-01 -0.19509072011E-01  0.34999978869E-01  0.00000000000E+00 0. -1.
       22    1    1    2    0    0  0.22217344450E-01 -0.18729244432E-01  0.19509010411E-01  0.34999949694E-01  0.00000000000E+00 0.  1.
</event>
<event>
 5   0  0.1496444E+06  0.9118800E+02  0.7546771E-02  0.1180000E+00
      -11   -1    0    0    0    0  0.00000000000E+00  0.00000000000E+00  0.34996269501E-01  0.35000000000E-01  0.51099999109E-03 0. -1.
       11   -1    0    0    0    0 -0.00000000000E+00 -0.00000000000E+00 -0.34996269501E-01  0.35000000000E-01  0.51099999109E-03 0.  1.
       22    1    1    2    0    0  0.18515183215E-05 -0.37530400508E-06  0.96602713113E-06  0.21218344915E-05  0.00000000000E+00 0. -1.
       22    1    1    2    0    0  0.45673785340E-02 -0.36179343363E-02 -0.34510851384E-01  0.34999275118E-01  0.00000000000E+00 0.  1.
       22    1    1    2    0    0 -0.45692300523E-02  0.36183096403E-02  0.34509885357E-01  0.34998603047E-01  0.00000000000E+00 0. -1.
</event>
<event>
 5   0  0.1496444E+06  0.9118800E+02  0.7546771E-02  0.1180000E+00
      -11   -1    0    0    0    0  0.00000000000E+00  0.00000000000E+00  0.34996269501E-01  0.35000000000E-01  0.51099999109E-03 0. -1.
       11   -1    0    0    0    0 -0.00000000000E+00 -0.00000000000E+00 -0.34996269501E-01  0.35000000000E-01  0.51099999109E-03 0.  1.
       22    1    1    2    0    0 -0.33245474940E-05 -0.61309974922E-05  0.36138374896E-05  0.78550345442E-05  0.00000000000E+00 0. -1.
       22    1    1    2    0    0 -0.61170907122E-02  0.30684809375E-02  0.34318583043E-01  0.34994278334E-01  0.00000000000E+00 0. -1.
       22    1    1    2    0    0  0.61204152596E-02 -0.30623499400E-02 -0.34322196880E-01  0.34997866632E-01  0.00000000000E+00 0.  1.
</event>
<event>
 5   0  0.1496444E+06  0.9118800E+02  0.7546771E-02  0.1180000E+00
      -11   -1    0    0    0    0  0.00000000000E+00  0.00000000000E+00  0.34996269501E-01  0.35000000000E-01  0.51099999109E-03 0.  1.
       11   -1    0    0    0    0 -0.00000000000E+00 -0.00000000000E+00 -0.34996269501E-01  0.35000000000E-01  0.51099999109E-03 0. -1.
       22    1    1    2    0    0 -0.10039550974E-02  0.25778288972E-03  0.34973377006E-01  0.34988733573E-01  0.00000000000E+00 0.  1.
       22    1    1    2    0    0 -0.40803682252E-06 -0.20482817971E-06  0.11259171069E-04  0.11268424104E-04  0.00000000000E+00 0.  1.
       22    1    1    2    0    0  0.10043631342E-02 -0.25757806154E-03 -0.34984636177E-01  0.34999998003E-01  0.00000000000E+00 0. -1.
</event>
<event>
 5   0  0.1496444E+06  0.9118800E+02  0.7546771E-02  0.1180000E+00
      -11   -1    0    0    0    0  0.00000000000E+00  0.00000000000E+00  0.34996269501E-01  0.35000000000E-01  0.51099999109E-03 0.  1.
       11   -1    0    0    0    0 -0.00000000000E+00 -0.00000000000E+00 -0.34996269501E-01  0.35000000000E-01  0.51099999109E-03 0. -1.
       22    1    1    2    0    0 -0.17210187166E-01  0.14841376693E-01  0.26618468056E-01  0.34999997801E-01  0.00000000000E+00 0.  1.
       22    1    1    2    0    0  0.48861720255E-08 -0.12995205573E-08  0.23414446920E-08  0.55718752667E-08  0.00000000000E+00 0.  1.
       22    1    1    2    0    0  0.17210182280E-01 -0.14841375393E-01 -0.26618470397E-01  0.34999996628E-01  0.00000000000E+00 0. -1.
</event>
<event>
 5   0  0.1496444E+06  0.9118800E+02  0.7546771E-02  0.1180000E+00
      -11   -1    0    0    0    0  0.00000000000E+00  0.00000000000E+00  0.34996269501E-01  0.35000000000E-01  0.51099999109E-03 0. -1.
       11   -1    0    0    0    0 -0.00000000000E+00 -0.00000000000E+00 -0.34996269501E-01  0.35000000000E-01  0.51099999109E-03 0.  1.
       22    1    1    2    0    0 -0.17554671877E-03 -0.40542509291E-03 -0.14636349049E-02  0.15288601281E-02  0.00000000000E+00 0. -1.
       22    1    1    2    0    0  0.22668200582E-03  0.29412623035E-01  0.18580054619E-01  0.34790403967E-01  0.00000000000E+00 0. -1.
       22    1    1    2    0    0 -0.51135287050E-04 -0.29007197942E-01 -0.17116419714E-01  0.33680735905E-01  0.00000000000E+00 0.  1.
</event>
<event>
 5   0  0.1496444E+06  0.9118800E+02  0.7546771E-02  0.1180000E+00
      -11   -1    0    0    0    0  0.00000000000E+00  0.00000000000E+00  0.34996269501E-01  0.35000000000E-01  0.51099999109E-03 0.  1.
       11   -1    0    0    0    0 -0.00000000000E+00 -0.00000000000E+00 -0.34996269501E-01  0.35000000000E-01  0.51099999109E-03 0.  1.
       22    1    1    2    0    0  0.11957875814E-02  0.15146859135E-02 -0.29871703271E-01  0.29933974639E-01  0.00000000000E+00 0.  1.
       22    1    1    2    0    0 -0.39989922019E-04  0.35967695469E-03  0.34730044011E-01  0.34731929455E-01  0.00000000000E+00 0.  1.
       22    1    1    2    0    0 -0.11557976594E-02 -0.18743628682E-02 -0.48583407392E-02  0.53340959056E-02  0.00000000000E+00 0. -1.
</event>
<event>
 5   0  0.1496444E+06  0.9118800E+02  0.7546771E-02  0.1180000E+00
      -11   -1    0    0    0    0  0.00000000000E+00  0.00000000000E+00  0.34996269501E-01  0.35000000000E-01  0.51099999109E-03 0. -1.
       11   -1    0    0    0    0 -0.00000000000E+00 -0.00000000000E+00 -0.34996269501E-01  0.35000000000E-01  0.51099999109E-03 0.  1.
       22    1    1    2    0    0  0.48516429964E-02 -0.12170645504E-01 -0.32455152837E-01  0.34999999963E-01  0.00000000000E+00 0.  1.
       22    1    1    2    0    0  0.21778651168E-09  0.11297624758E-08  0.33861161137E-08  0.35762517461E-08  0.00000000000E+00 0. -1.
       22    1    1    2    0    0 -0.48516432142E-02  0.12170644374E-01  0.32455149451E-01  0.34999996461E-01  0.00000000000E+00 0. -1.
</event>
<event>
 5   0  0.1496444E+06  0.9118800E+02  0.7546771E-02  0.1180000E+00
      -11   -1    0    0    0    0  0.00000000000E+00  0.00000000000E+00  0.34996269501E-01  0.35000000000E-01  0.51099999109E-03 0. -1.
       11   -1    0    0    0    0 -0.00000000000E+00 -0.00000000000E+00 -0.34996269501E-01  0.35000000000E-01  0.51099999109E-03 0.  1.
       22    1    1    2    0    0 -0.49266870093E-02  0.46298791885E-02 -0.34300086380E-01  0.34960033636E-01  0.00000000000E+00 0.  1.
       22    1    1    2    0    0  0.47465805562E-02 -0.47018626109E-02  0.34142516320E-01  0.34790069843E-01  0.00000000000E+00 0. -1.
       22    1    1    2    0    0  0.18010645311E-03  0.71983422403E-04  0.15757005930E-03  0.24989652086E-03  0.00000000000E+00 0. -1.
</event>
<event>
 5   0  0.1496444E+06  0.9118800E+02  0.7546771E-02  0.1180000E+00
      -11   -1    0    0    0    0  0.00000000000E+00  0.00000000000E+00  0.34996269501E-01  0.35000000000E-01  0.51099999109E-03 0. -1.
       11   -1    0    0    0    0 -0.00000000000E+00 -0.00000000000E+00 -0.34996269501E-01  0.35000000000E-01  0.51099999109E-03 0. -1.
       22    1    1    2    0    0  0.16625331277E-02 -0.16895778739E-02 -0.34919639706E-01  0.34999998957E-01  0.00000000000E+00 0. -1.
       22    1    1    2    0    0 -0.16625324094E-02  0.16895762698E-02  0.34919640103E-01  0.34999999242E-01  0.00000000000E+00 0. -1.
       22    1    1    2    0    0 -0.71826613044E-09  0.16040701022E-08 -0.39741541160E-09  0.18019118003E-08  0.00000000000E+00 0.  1.
</event>
<event>
 5   0  0.1496444E+06  0.9118800E+02  0.7546771E-02  0.1180000E+00
      -11   -1    0    0    0    0  0.00000000000E+00  0.00000000000E+00  0.34996269501E-01  0.35000000000E-01  0.51099999109E-03 0.  1.
       11   -1    0    0    0    0 -0.00000000000E+00 -0.00000000000E+00 -0.34996269501E-01  0.35000000000E-01  0.51099999109E-03 0. -1.
       22    1    1    2    0    0  0.44976236964E-03  0.12996793828E-01 -0.18014859719E-01  0.22218328171E-01  0.00000000000E+00 0. -1.
       22    1    1    2    0    0 -0.15856857064E-02 -0.13339600622E-01  0.31499785241E-01  0.34244646504E-01  0.00000000000E+00 0.  1.
       22    1    1    2    0    0  0.11359233368E-02  0.34280679343E-03 -0.13484925522E-01  0.13537025326E-01  0.00000000000E+00 0. -1.
</event>
<event>
 5   0  0.1496444E+06  0.9118800E+02  0.7546771E-02  0.1180000E+00
      -11   -1    0    0    0    0  0.00000000000E+00  0.00000000000E+00  0.34996269501E-01  0.35000000000E-01  0.51099999109E-03 0. -1.
       11   -1    0    0    0    0 -0.00000000000E+00 -0.00000000000E+00 -0.34996269501E-01  0.35000000000E-01  0.51099999109E-03 0.  1.
       22    1    1    2    0    0  0.16378139768E-05  0.38140885869E-06  0.23577307779E-05  0.28959975416E-05  0.00000000000E+00 0.  1.
       22    1    1    2    0    0 -0.27161881170E-02 -0.63487562617E-02  0.34309477302E-01  0.34997494434E-01  0.00000000000E+00 0. -1.
       22    1    1    2    0    0  0.27145503030E-02  0.63483748528E-02 -0.34311835033E-01  0.34999609568E-01  0.00000000000E+00 0.  1.
</event>
<event>
 5   0  0.1496444E+06  0.9118800E+02  0.7546771E-02  0.1180000E+00
      -11   -1    0    0    0    0  0.00000000000E+00  0.00000000000E+00  0.34996269501E-01  0.35000000000E-01  0.51099999109E-03 0. -1.
       11   -1    0    0    0    0 -0.00000000000E+00 -0.00000000000E+00 -0.34996269501E-01  0.35000000000E-01  0.51099999109E-03 0.  1.
       22    1    1    2    0    0 -0.46691080950E-08  0.63211202359E-08  0.26297728781E-07  0.27446815307E-07  0.00000000000E+00 0. -1.
       22    1    1    2    0    0  0.44412784757E-03  0.52413259234E-02 -0.34602473485E-01  0.34999998832E-01  0.00000000000E+00 0.  1.
       22    1    1    2    0    0 -0.44412317846E-03 -0.52413322446E-02  0.34602447187E-01  0.34999973721E-01  0.00000000000E+00 0. -1.
</event>
<event>
 5   0  0.1496444E+06  0.9118800E+02  0.7546771E-02  0.1180000E+00
      -11   -1    0    0    0    0  0.00000000000E+00  0.00000000000E+00  0.34996269501E-01  0.35000000000E-01  0.51099999109E-03 0. -1.
       11   -1    0    0    0    0 -0.00000000000E+00 -0.00000000000E+00 -0.34996269501E-01  0.35000000000E-01  0.51099999109E-03 0.  1.
       22    1    1    2    0    0  0.97392396995E-09  0.67535409627E-07  0.21085621197E-07  0.70757215198E-07  0.00000000000E+00 0.  1.
       22    1    1    2    0    0  0.21537698437E-01 -0.21321370956E-01 -0.17507883887E-01  0.34999990166E-01  0.00000000000E+00 0. -1.
       22    1    1    2    0    0 -0.21537699411E-01  0.21321303421E-01  0.17507862801E-01  0.34999939077E-01  0.00000000000E+00 0.  1.
</event>
<event>
 5   0  0.1496444E+06  0.9118800E+02  0.7546771E-02  0.1180000E+00
      -11   -1    0    0    0    0  0.00000000000E+00  0.00000000000E+00  0.34996269501E-01  0.35000000000E-01  0.51099999109E-03 0.  1.
       11   -1    0    0    0    0 -0.00000000000E+00 -0.00000000000E+00 -0.34996269501E-01  0.35000000000E-01  0.51099999109E-03 0. -1.
       22    1    1    2    0    0  0.31229372696E-02  0.13284455179E-02  0.34825724350E-01  0.34990692779E-01  0.00000000000E+00 0.  1.
       22    1    1    2    0    0 -0.31214854465E-02 -0.13326235104E-02 -0.34834512475E-01  0.34999468798E-01  0.00000000000E+00 0. -1.
       22    1    1    2    0    0 -0.14518230608E-05  0.41779925422E-05  0.87881252793E-05  0.98384225263E-05  0.00000000000E+00 0.  1.
</event>
<event>
 5   0  0.1496444E+06  0.9118800E+02  0.7546771E-02  0.1180000E+00
      -11   -1    0    0    0    0  0.00000000000E+00  0.00000000000E+00  0.34996269501E-01  0.35000000000E-01  0.51099999109E-03 0.  1.
       11   -1    0    0    0    0 -0.00000000000E+00 -0.00000000000E+00 -0.34996269501E-01  0.35000000000E-01  0.51099999109E-03 0. -1.
       22    1    1    2    0    0 -0.71196962463E-03 -0.87719721724E-04 -0.10121261697E-02  0.12405623239E-02  0.00000000000E+00 0. -1.
       22    1    1    2    0    0  0.85212044204E-02  0.19647041540E-02 -0.32831346188E-01  0.33975995640E-01  0.00000000000E+00 0. -1.
       22    1    1    2    0    0 -0.78092347958E-02 -0.18769844323E-02  0.33843472358E-01  0.34783442036E-01  0.00000000000E+00 0.  1.
</event>
<event>
 5   0  0.1496444E+06  0.9118800E+02  0.7546771E-02  0.1180000E+00
      -11   -1    0    0    0    0  0.00000000000E+00  0.00000000000E+00  0.34996269501E-01  0.35000000000E-01  0.51099999109E-03 0. -1.
       11   -1    0    0    0    0 -0.00000000000E+00 -0.00000000000E+00 -0.34996269501E-01  0.35000000000E-01  0.51099999109E-03 0.  1.
       22    1    1    2    0    0 -0.10436675533E-04 -0.25516406266E-05  0.23146851411E-04  0.25518851783E-04  0.00000000000E+00 0. -1.
       22    1    1    2    0    0  0.17553828365E-02  0.50594590786E-03  0.34928220502E-01  0.34975962283E-01  0.00000000000E+00 0. -1.
       22    1    1    2    0    0 -0.17449461609E-02 -0.50339426723E-03 -0.34951367354E-01  0.34998518865E-01  0.00000000000E+00 0.  1.
</event>
<event>
 5   0  0.1496444E+06  0.9118800E+02  0.7546771E-02  0.1180000E+00
      -11   -1    0    0    0    0  0.00000000000E+00  0.00000000000E+00  0.34996269501E-01  0.35000000000E-01  0.51099999109E-03 0.  1.
       11   -1    0    0    0    0 -0.00000000000E+00 -0.00000000000E+00 -0.34996269501E-01  0.35000000000E-01  0.51099999109E-03 0.  1.
       22    1    1    2    0    0  0.73503253209E-06 -0.11694471473E-05  0.34998435110E-01  0.34998236173E-01  0.00000000000E+00 0.  1.
       22    1    1    2    0    0 -0.73499126713E-06  0.11693814942E-05  0.14934505861E-05  0.20342221842E-05  0.00000000000E+00 0.  1.
       22    1    1    2    0    0 -0.41264961023E-10  0.65653136217E-10 -0.34999928561E-01  0.34999729605E-01  0.00000000000E+00 0.  1.
</event>
<event>
 5   0  0.1496444E+06  0.9118800E+02  0.7546771E-02  0.1180000E+00
      -11   -1    0    0    0    0  0.00000000000E+00  0.00000000000E+00  0.34996269501E-01  0.35000000000E-01  0.51099999109E-03 0.  1.
       11   -1    0    0    0    0 -0.00000000000E+00 -0.00000000000E+00 -0.34996269501E-01  0.35000000000E-01  0.51099999109E-03 0. -1.
       22    1    1    2    0    0  0.20363418434E-01 -0.65101971930E-02 -0.27711833154E-01  0.34999959636E-01  0.00000000000E+00 0. -1.
       22    1    1    2    0    0 -0.20363479320E-01  0.65102059725E-02  0.27711680847E-01  0.34999876102E-01  0.00000000000E+00 0.  1.
       22    1    1    2    0    0  0.60886630256E-07 -0.87795793986E-08  0.15230724711E-06  0.16426125617E-06  0.00000000000E+00 0. -1.
</event>
<event>
 5   0  0.1496444E+06  0.9118800E+02  0.7546771E-02  0.1180000E+00
      -11   -1    0    0    0    0  0.00000000000E+00  0.00000000000E+00  0.34996269501E-01  0.35000000000E-01  0.51099999109E-03 0. -1.
       11   -1    0    0    0    0 -0.00000000000E+00 -0.00000000000E+00 -0.34996269501E-01  0.35000000000E-01  0.51099999109E-03 0.  1.
       22    1    1    2    0    0  0.11137022556E-06  0.13681205047E-06 -0.15678706271E-07  0.17710642599E-06  0.00000000000E+00 0. -1.
       22    1    1    2    0    0  0.22090403214E-01  0.12172703225E-01  0.24265808005E-01  0.34999857945E-01  0.00000000000E+00 0. -1.
       22    1    1    2    0    0 -0.22090514585E-01 -0.12172840037E-01 -0.24265792327E-01  0.34999964949E-01  0.00000000000E+00 0.  1.
</event>
<event>
 5   0  0.1496444E+06  0.9118800E+02  0.7546771E-02  0.1180000E+00
      -11   -1    0    0    0    0  0.00000000000E+00  0.00000000000E+00  0.34996269501E-01  0.35000000000E-01  0.51099999109E-03 0. -1.
       11   -1    0    0    0    0 -0.00000000000E+00 -0.00000000000E+00 -0.34996269501E-01  0.35000000000E-01  0.51099999109E-03 0.  1.
       22    1    1    2    0    0 -0.89258816901E-03 -0.93244570595E-03 -0.34976186771E-01  0.34999997281E-01  0.00000000000E+00 0.  1.
       22    1    1    2    0    0  0.89257791197E-03  0.93246819813E-03  0.34976128937E-01  0.34999939824E-01  0.00000000000E+00 0. -1.
       22    1    1    2    0    0  0.10257037810E-07 -0.22492174049E-07  0.57833234011E-07  0.62895052860E-07  0.00000000000E+00 0.  1.
</event>
<event>
 5   0  0.1496444E+06  0.9118800E+02  0.7546771E-02  0.1180000E+00
      -11   -1    0    0    0    0  0.00000000000E+00  0.00000000000E+00  0.34996269501E-01  0.35000000000E-01  0.51099999109E-03 0.  1.
       11   -1    0    0    0    0 -0.00000000000E+00 -0.00000000000E+00 -0.34996269501E-01  0.35000000000E-01  0.51099999109E-03 0. -1.
       22    1    1    2    0    0 -0.30375992175E-02  0.13237565351E-01  0.32219555054E-01  0.34965123671E-01  0.00000000000E+00 0.  1.
       22    1    1    2    0    0  0.30110234164E-02 -0.13228639784E-01 -0.31286992739E-01  0.34101892721E-01  0.00000000000E+00 0. -1.
       22    1    1    2    0    0  0.26575801069E-04 -0.89255676246E-05 -0.93256231556E-03  0.93298360723E-03  0.00000000000E+00 0. -1.
</event>
<event>
 5   0  0.1496444E+06  0.9118800E+02  0.7546771E-02  0.1180000E+00
      -11   -1    0    0    0    0  0.00000000000E+00  0.00000000000E+00  0.34996269501E-01  0.35000000000E-01  0.51099999109E-03 0. -1.
       11   -1    0    0    0    0 -0.00000000000E+00 -0.00000000000E+00 -0.34996269501E-01  0.35000000000E-01  0.51099999109E-03 0. -1.
       22    1    1    2    0    0  0.92364083128E-04 -0.18513212699E-03  0.34905479062E-01  0.34906092213E-01  0.00000000000E+00 0. -1.
       22    1    1    2    0    0  0.35898280983E-03  0.16428566688E-03 -0.34450267345E-01  0.34452529349E-01  0.00000000000E+00 0. -1.
       22    1    1    2    0    0 -0.45134689296E-03  0.20846460111E-04 -0.45521171732E-03  0.64137843764E-03  0.00000000000E+00 0.  1.
</event>
<event>
 5   0  0.1496444E+06  0.9118800E+02  0.7546771E-02  0.1180000E+00
      -11   -1    0    0    0    0  0.00000000000E+00  0.00000000000E+00  0.34996269501E-01  0.35000000000E-01  0.51099999109E-03 0. -1.
       11   -1    0    0    0    0 -0.00000000000E+00 -0.00000000000E+00 -0.34996269501E-01  0.35000000000E-01  0.51099999109E-03 0.  1.
       22    1    1    2    0    0 -0.66017061751E-02 -0.38570026257E-02 -0.33988618247E-01  0.34837984500E-01  0.00000000000E+00 0.  1.
       22    1    1    2    0    0  0.65567852275E-02  0.38532096468E-02  0.34154056609E-01  0.34990545008E-01  0.00000000000E+00 0. -1.
       22    1    1    2    0    0  0.44920947625E-04  0.37929789249E-05 -0.16543836188E-03  0.17147049252E-03  0.00000000000E+00 0.  1.
</event>
<event>
 5   0  0.1496444E+06  0.9118800E+02  0.7546771E-02  0.1180000E+00
      -11   -1    0    0    0    0  0.00000000000E+00  0.00000000000E+00  0.34996269501E-01  0.35000000000E-01  0.51099999109E-03 0.  1.
       11   -1    0    0    0    0 -0.00000000000E+00 -0.00000000000E+00 -0.34996269501E-01  0.35000000000E-01  0.51099999109E-03 0.  1.
       22    1    1    2    0    0  0.14172765244E-09 -0.72189503543E-10 -0.35003059695E-01  0.34999972904E-01  0.00000000000E+00 0.  1.
       22    1    1    2    0    0 -0.14542638415E-05  0.74073466211E-06  0.34979412588E-01  0.34976323748E-01  0.00000000000E+00 0.  1.
       22    1    1    2    0    0  0.14541221139E-05 -0.74066247261E-06  0.23647107032E-04  0.23703348351E-04  0.00000000000E+00 0. -1.
</event>
<event>
 5   0  0.1496444E+06  0.9118800E+02  0.7546771E-02  0.1180000E+00
      -11   -1    0    0    0    0  0.00000000000E+00  0.00000000000E+00  0.34996269501E-01  0.35000000000E-01  0.51099999109E-03 0. -1.
       11   -1    0    0    0    0 -0.00000000000E+00 -0.00000000000E+00 -0.34996269501E-01  0.35000000000E-01  0.51099999109E-03 0.  1.
       22    1    1    2    0    0  0.31475394196E-01  0.10718433447E-01  0.10927703440E-01  0.34999999398E-01  0.00000000000E+00 0. -1.
       22    1    1    2    0    0 -0.14680905094E-08 -0.21026508708E-09  0.15108970657E-08  0.21171469231E-08  0.00000000000E+00 0. -1.
       22    1    1    2    0    0 -0.31475392728E-01 -0.10718433237E-01 -0.10927704951E-01  0.34999998485E-01  0.00000000000E+00 0.  1.
</event>
<event>
 5   0  0.1496444E+06  0.9118800E+02  0.7546771E-02  0.1180000E+00
      -11   -1    0    0    0    0  0.00000000000E+00  0.00000000000E+00  0.34996269501E-01  0.35000000000E-01  0.51099999109E-03 0. -1.
       11   -1    0    0    0    0 -0.00000000000E+00 -0.00000000000E+00 -0.34996269501E-01  0.35000000000E-01  0.51099999109E-03 0.  1.
       22    1    1    2    0    0 -0.40639688550E-02  0.37858501087E-02  0.33561392382E-01  0.34017871223E-01  0.00000000000E+00 0. -1.
       22    1    1    2    0    0  0.18166452972E-06  0.94901849321E-04  0.98105024788E-03  0.98562973924E-03  0.00000000000E+00 0.  1.
       22    1    1    2    0    0  0.40637871905E-02 -0.38807519580E-02 -0.34542442630E-01  0.34996499038E-01  0.00000000000E+00 0.  1.
</event>
<event>
 5   0  0.1496444E+06  0.9118800E+02  0.7546771E-02  0.1180000E+00
      -11   -1    0    0    0    0  0.00000000000E+00  0.00000000000E+00  0.34996269501E-01  0.35000000000E-01  0.51099999109E-03 0.  1.
       11   -1    0    0    0    0 -0.00000000000E+00 -0.00000000000E+00 -0.34996269501E-01  0.35000000000E-01  0.51099999109E-03 0. -1.
       22    1    1    2    0    0 -0.39121652352E-02  0.26682803460E-02 -0.34678132669E-01  0.34999966317E-01  0.00000000000E+00 0. -1.
       22    1    1    2    0    0  0.39090962903E-02 -0.26680699277E-02  0.34660119118E-01  0.34981759364E-01  0.00000000000E+00 0.  1.
       22    1    1    2    0    0  0.30689448847E-05 -0.21041829479E-06  0.18013550602E-04  0.18274318150E-04  0.00000000000E+00 0.  1.
</event>
<event>
 5   0  0.1496444E+06  0.9118800E+02  0.7546771E-02  0.1180000E+00
      -11   -1    0    0    0    0  0.00000000000E+00  0.00000000000E+00  0.34996269501E-01  0.35000000000E-01  0.51099999109E-03 0. -1.
       11   -1    0    0    0    0 -0.00000000000E+00 -0.00000000000E+00 -0.34996269501E-01  0.35000000000E-01  0.51099999109E-03 0.  1.
       22    1    1    2    0    0 -0.12150722970E-01  0.45974850792E-02 -0.22821206684E-02  0.13190337846E-01  0.00000000000E+00 0.  1.
       22    1    1    2    0    0  0.82596511015E-03  0.60037506900E-03 -0.25939492965E-01  0.25959583276E-01  0.00000000000E+00 0. -1.
       22    1    1    2    0    0  0.11324757860E-01 -0.51978601482E-02  0.28221613633E-01  0.30850078878E-01  0.00000000000E+00 0. -1.
</event>
<event>
 5   0  0.1496444E+06  0.9118800E+02  0.7546771E-02  0.1180000E+00
      -11   -1    0    0    0    0  0.00000000000E+00  0.00000000000E+00  0.34996269501E-01  0.35000000000E-01  0.51099999109E-03 0.  1.
       11   -1    0    0    0    0 -0.00000000000E+00 -0.00000000000E+00 -0.34996269501E-01  0.35000000000E-01  0.51099999109E-03 0. -1.
       22    1    1    2    0    0  0.14709383036E-01 -0.18328474961E-01  0.24043295042E-01  0.33621109145E-01  0.00000000000E+00 0.  1.
       22    1    1    2    0    0 -0.25592643597E-02  0.35553517911E-02  0.13532565943E-02  0.45849388035E-02  0.00000000000E+00 0. -1.
       22    1    1    2    0    0 -0.12150118676E-01  0.14773123170E-01 -0.25396551636E-01  0.31793952051E-01  0.00000000000E+00 0. -1.
</event>
<event>
 5   0  0.1496444E+06  0.9118800E+02  0.7546771E-02  0.1180000E+00
      -11   -1    0    0    0    0  0.00000000000E+00  0.00000000000E+00  0.34996269501E-01  0.35000000000E-01  0.51099999109E-03 0. -1.
       11   -1    0    0    0    0 -0.00000000000E+00 -0.00000000000E+00 -0.34996269501E-01  0.35000000000E-01  0.51099999109E-03 0.  1.
       22    1    1    2    0    0  0.30721915794E-03  0.69836770137E-03  0.33972496642E-01  0.33981062802E-01  0.00000000000E+00 0. -1.
       22    1    1    2    0    0  0.26411179531E-04 -0.71593479132E-04  0.10181907996E-02  0.10210463658E-02  0.00000000000E+00 0.  1.
       22    1    1    2    0    0 -0.33363033747E-03 -0.62677422223E-03 -0.34990687441E-01  0.34997890833E-01  0.00000000000E+00 0.  1.
</event>
<event>
 5   0  0.1496444E+06  0.9118800E+02  0.7546771E-02  0.1180000E+00
      -11   -1    0    0    0    0  0.00000000000E+00  0.00000000000E+00  0.34996269501E-01  0.35000000000E-01  0.51099999109E-03 0.  1.
       11   -1    0    0    0    0 -0.00000000000E+00 -0.00000000000E+00 -0.34996269501E-01  0.35000000000E-01  0.51099999109E-03 0. -1.
       22    1    1    2    0    0 -0.94130987045E-03 -0.54481883068E-03  0.34867488297E-01  0.34884446849E-01  0.00000000000E+00 0.  1.
       22    1    1    2    0    0 -0.15685851079E-02  0.41720448102E-03 -0.15802211688E-01  0.15885352154E-01  0.00000000000E+00 0. -1.
       22    1    1    2    0    0  0.25098949783E-02  0.12761434966E-03 -0.19065276609E-01  0.19230200997E-01  0.00000000000E+00 0. -1.
</event>
<event>
 5   0  0.1496444E+06  0.9118800E+02  0.7546771E-02  0.1180000E+00
      -11   -1    0    0    0    0  0.00000000000E+00  0.00000000000E+00  0.34996269501E-01  0.35000000000E-01  0.51099999109E-03 0. -1.
       11   -1    0    0    0    0 -0.00000000000E+00 -0.00000000000E+00 -0.34996269501E-01  0.35000000000E-01  0.51099999109E-03 0.  1.
       22    1    1    2    0    0  0.93609454319E-02  0.90570481309E-02 -0.32486017282E-01  0.34999981986E-01  0.00000000000E+00 0.  1.
       22    1    1    2    0    0 -0.93609593370E-02 -0.90570486511E-02  0.32485572391E-01  0.34999572905E-01  0.00000000000E+00 0. -1.
       22    1    1    2    0    0  0.13905109215E-07  0.52017282886E-09  0.44489078544E-06  0.44510833918E-06  0.00000000000E+00 0. -1.
</event>
<event>
 5   0  0.1496444E+06  0.9118800E+02  0.7546771E-02  0.1180000E+00
      -11   -1    0    0    0    0  0.00000000000E+00  0.00000000000E+00  0.34996269501E-01  0.35000000000E-01  0.51099999109E-03 0.  1.
       11   -1    0    0    0    0 -0.00000000000E+00 -0.00000000000E+00 -0.34996269501E-01  0.35000000000E-01  0.51099999109E-03 0. -1.
       22    1    1    2    0    0 -0.34761612155E-05  0.42053168856E-04  0.22000967850E-04  0.47587764120E-04  0.00000000000E+00 0.  1.
       22    1    1    2    0    0 -0.25489966718E-02 -0.12817147286E-02 -0.34871278457E-01  0.34987801272E-01  0.00000000000E+00 0. -1.
       22    1    1    2    0    0  0.25524728330E-02  0.12396615598E-02  0.34849277489E-01  0.34964610964E-01  0.00000000000E+00 0.  1.
</event>
<event>
 5   0  0.1496444E+06  0.9118800E+02  0.7546771E-02  0.1180000E+00
      -11   -1    0    0    0    0  0.00000000000E+00  0.00000000000E+00  0.34996269501E-01  0.35000000000E-01  0.51099999109E-03 0.  1.
       11   -1    0    0    0    0 -0.00000000000E+00 -0.00000000000E+00 -0.34996269501E-01  0.35000000000E-01  0.51099999109E-03 0. -1.
       22    1    1    2    0    0  0.62621148688E-07 -0.94157503121E-08  0.23646213590E-06  0.24479462071E-06  0.00000000000E+00 0.  1.
       22    1    1    2    0    0  0.38552640638E-02  0.24262548946E-02 -0.34702300292E-01  0.34999991706E-01  0.00000000000E+00 0. -1.
       22    1    1    2    0    0 -0.38553266849E-02 -0.24262454788E-02  0.34702063830E-01  0.34999763500E-01  0.00000000000E+00 0.  1.
</event>
<event>
 5   0  0.1496444E+06  0.9118800E+02  0.7546771E-02  0.1180000E+00
      -11   -1    0    0    0    0  0.00000000000E+00  0.00000000000E+00  0.34996269501E-01  0.35000000000E-01  0.51099999109E-03 0. -1.
       11   -1    0    0    0    0 -0.00000000000E+00 -0.00000000000E+00 -0.34996269501E-01  0.35000000000E-01  0.51099999109E-03 0.  1.
       22    1    1    2    0    0 -0.58255432222E-06 -0.24657515425E-06  0.21305464413E-04  0.21314853570E-04  0.00000000000E+00 0. -1.
       22    1    1    2    0    0  0.28809543451E-02  0.56058736726E-02 -0.34427675174E-01  0.34999864792E-01  0.00000000000E+00 0.  1.
       22    1    1    2    0    0 -0.28803717908E-02 -0.56056270974E-02  0.34406369709E-01  0.34978820355E-01  0.00000000000E+00 0. -1.
</event>
<event>
 5   0  0.1496444E+06  0.9118800E+02  0.7546771E-02  0.1180000E+00
      -11   -1    0    0    0    0  0.00000000000E+00  0.00000000000E+00  0.34996269501E-01  0.35000000000E-01  0.51099999109E-03 0. -1.
       11   -1    0    0    0    0 -0.00000000000E+00 -0.00000000000E+00 -0.34996269501E-01  0.35000000000E-01  0.51099999109E-03 0.  1.
       22    1    1    2    0    0 -0.59623112607E-05  0.61179826942E-05  0.19590649194E-04  0.21372234410E-04  0.00000000000E+00 0. -1.
       22    1    1    2    0    0  0.85140811521E-03  0.11563716169E-02 -0.34969600235E-01  0.34999071869E-01  0.00000000000E+00 0.  1.
       22    1    1    2    0    0 -0.84544580395E-03 -0.11624895996E-02  0.34950009586E-01  0.34979555897E-01  0.00000000000E+00 0. -1.
</event>
<event>
 5   0  0.1496444E+06  0.9118800E+02  0.7546771E-02  0.1180000E+00
      -11   -1    0    0    0    0  0.00000000000E+00  0.00000000000E+00  0.34996269501E-01  0.35000000000E-01  0.51099999109E-03 0. -1.
       11   -1    0    0    0    0 -0.00000000000E+00 -0.00000000000E+00 -0.34996269501E-01  0.35000000000E-01  0.51099999109E-03 0.  1.
       22    1    1    2    0    0 -0.29754754309E-03  0.10876962585E-03 -0.34998562512E-01  0.34999996332E-01  0.00000000000E+00 0.  1.
       22    1    1    2    0    0  0.29756393145E-03 -0.10880662041E-03  0.34998450372E-01  0.34999884452E-01  0.00000000000E+00 0. -1.
       22    1    1    2    0    0 -0.16388360797E-07  0.36994558726E-07  0.11213930853E-06  0.11921577187E-06  0.00000000000E+00 0.  1.
</event>
<event>
 5   0  0.1496444E+06  0.9118800E+02  0.7546771E-02  0.1180000E+00
      -11   -1    0    0    0    0  0.00000000000E+00  0.00000000000E+00  0.34996269501E-01  0.35000000000E-01  0.51099999109E-03 0.  1.
       11   -1    0    0    0    0 -0.00000000000E+00 -0.00000000000E+00 -0.34996269501E-01  0.35000000000E-01  0.51099999109E-03 0. -1.
       22    1    1    2    0    0  0.31343751023E-02  0.12705628244E-01 -0.32222092740E-01  0.34778162069E-01  0.00000000000E+00 0. -1.
       22    1    1    2    0    0 -0.32508518489E-02 -0.12603857834E-01  0.26761800869E-01  0.29759355769E-01  0.00000000000E+00 0.  1.
       22    1    1    2    0    0  0.11647674667E-03 -0.10177041022E-03  0.54602918710E-02  0.54624821616E-02  0.00000000000E+00 0.  1.
</event>
<event>
 5   0  0.1496444E+06  0.9118800E+02  0.7546771E-02  0.1180000E+00
      -11   -1    0    0    0    0  0.00000000000E+00  0.00000000000E+00  0.34996269501E-01  0.35000000000E-01  0.51099999109E-03 0. -1.
       11   -1    0    0    0    0 -0.00000000000E+00 -0.00000000000E+00 -0.34996269501E-01  0.35000000000E-01  0.51099999109E-03 0.  1.
       22    1    1    2    0    0  0.54134670325E-03  0.13733855981E-02 -0.34968783835E-01  0.34999929816E-01  0.00000000000E+00 0.  1.
       22    1    1    2    0    0 -0.54141756751E-03 -0.13732323665E-02  0.34968758361E-01  0.34999899448E-01  0.00000000000E+00 0. -1.
       22    1    1    2    0    0  0.70864256858E-07 -0.15323158795E-06  0.25474141066E-07  0.17073545124E-06  0.00000000000E+00 0. -1.
</event>
<event>
 5   0  0.1496444E+06  0.9118800E+02  0.7546771E-02  0.1180000E+00
      -11   -1    0    0    0    0  0.00000000000E+00  0.00000000000E+00  0.34996269501E-01  0.35000000000E-01  0.51099999109E-03 0. -1.
       11   -1    0    0    0    0 -0.00000000000E+00 -0.00000000000E+00 -0.34996269501E-01  0.35000000000E-01  0.51099999109E-03 0.  1.
       22    1    1    2    0    0  0.97759674240E-02  0.43005490133E-02  0.33330701628E-01  0.34999999028E-01  0.00000000000E+00 0. -1.
       22    1    1    2    0    0 -0.29550730034E-10  0.68365523558E-09  0.83160762736E-09  0.10769535611E-08  0.00000000000E+00 0.  1.
       22    1    1    2    0    0 -0.97759673945E-02 -0.43005496969E-02 -0.33330702460E-01  0.34999999895E-01  0.00000000000E+00 0.  1.
</event>
<event>
 5   0  0.1496444E+06  0.9118800E+02  0.7546771E-02  0.1180000E+00
      -11   -1    0    0    0    0  0.00000000000E+00  0.00000000000E+00  0.34996269501E-01  0.35000000000E-01  0.51099999109E-03 0.  1.
       11   -1    0    0    0    0 -0.00000000000E+00 -0.00000000000E+00 -0.34996269501E-01  0.35000000000E-01  0.51099999109E-03 0. -1.
       22    1    1    2    0    0 -0.43817044399E-07 -0.20739281267E-06  0.78659892712E-07  0.22609531364E-06  0.00000000000E+00 0.  1.
       22    1    1    2    0    0  0.18260841322E-02  0.16289730902E-02 -0.34914282382E-01  0.34999932155E-01  0.00000000000E+00 0. -1.
       22    1    1    2    0    0 -0.18260403151E-02 -0.16287656974E-02  0.34914203722E-01  0.34999841750E-01  0.00000000000E+00 0.  1.
</event>
<event>
 5   0  0.1496444E+06  0.9118800E+02  0.7546771E-02  0.1180000E+00
      -11   -1    0    0    0    0  0.00000000000E+00  0.00000000000E+00  0.34996269501E-01  0.35000000000E-01  0.51099999109E-03 0. -1.
       11   -1    0    0    0    0 -0.00000000000E+00 -0.00000000000E+00 -0.34996269501E-01  0.35000000000E-01  0.51099999109E-03 0.  1.
       22    1    1    2    0    0  0.17243463475E-01 -0.30431910091E-01  0.75461328510E-03  0.34985820351E-01  0.00000000000E+00 0.  1.
       22    1    1    2    0    0 -0.17225257757E-01  0.30387331500E-01 -0.81188392330E-03  0.34939355689E-01  0.00000000000E+00 0. -1.
       22    1    1    2    0    0 -0.18205717432E-04  0.44578591589E-04  0.57270638206E-04  0.74823959904E-04  0.00000000000E+00 0. -1.
</event>
<event>
 5   0  0.1496444E+06  0.9118800E+02  0.7546771E-02  0.1180000E+00
      -11   -1    0    0    0    0  0.00000000000E+00  0.00000000000E+00  0.34996269501E-01  0.35000000000E-01  0.51099999109E-03 0. -1.
       11   -1    0    0    0    0 -0.00000000000E+00 -0.00000000000E+00 -0.34996269501E-01  0.35000000000E-01  0.51099999109E-03 0.  1.
       22    1    1    2    0    0  0.13656183191E-01 -0.47647965315E-03  0.32212939425E-01  0.34991310902E-01  0.00000000000E+00 0. -1.
       22    1    1    2    0    0  0.19901132338E-04 -0.13518869841E-04 -0.54403283573E-04  0.59485562733E-04  0.00000000000E+00 0.  1.
       22    1    1    2    0    0 -0.13676084323E-01  0.48999852299E-03 -0.32158536142E-01  0.34949203535E-01  0.00000000000E+00 0.  1.
</event>
<event>
 5   0  0.1496444E+06  0.9118800E+02  0.7546771E-02  0.1180000E+00
      -11   -1    0    0    0    0  0.00000000000E+00  0.00000000000E+00  0.34996269501E-01  0.35000000000E-01  0.51099999109E-03 0.  1.
       11   -1    0    0    0    0 -0.00000000000E+00 -0.00000000000E+00 -0.34996269501E-01  0.35000000000E-01  0.51099999109E-03 0. -1.
       22    1    1    2    0    0 -0.25921067541E-01  0.86056287392E-02  0.10534735962E-01  0.29273524732E-01  0.00000000000E+00 0.  1.
       22    1    1    2    0    0  0.25831804675E-01 -0.84864894939E-02  0.28516612238E-02  0.27339250327E-01  0.00000000000E+00 0. -1.
       22    1    1    2    0    0  0.89262866414E-04 -0.11913924532E-03 -0.13386397185E-01  0.13387224941E-01  0.00000000000E+00 0.  1.
</event>
<event>
 5   0  0.1496444E+06  0.9118800E+02  0.7546771E-02  0.1180000E+00
      -11   -1    0    0    0    0  0.00000000000E+00  0.00000000000E+00  0.34996269501E-01  0.35000000000E-01  0.51099999109E-03 0. -1.
       11   -1    0    0    0    0 -0.00000000000E+00 -0.00000000000E+00 -0.34996269501E-01  0.35000000000E-01  0.51099999109E-03 0.  1.
       22    1    1    2    0    0  0.17665646733E-04  0.70225947552E-05 -0.22553432818E-03  0.22633410061E-03  0.00000000000E+00 0.  1.
       22    1    1    2    0    0 -0.16802524199E-01 -0.24548513104E-01 -0.18124443436E-01  0.34834605853E-01  0.00000000000E+00 0.  1.
       22    1    1    2    0    0  0.16784858552E-01  0.24541490509E-01  0.18349977764E-01  0.34939060047E-01  0.00000000000E+00 0. -1.
</event>
<event>
 5   0  0.1496444E+06  0.9118800E+02  0.7546771E-02  0.1180000E+00
      -11   -1    0    0    0    0  0.00000000000E+00  0.00000000000E+00  0.34996269501E-01  0.35000000000E-01  0.51099999109E-03 0. -1.
       11   -1    0    0    0    0 -0.00000000000E+00 -0.00000000000E+00 -0.34996269501E-01  0.35000000000E-01  0.51099999109E-03 0.  1.
       22    1    1    2    0    0  0.20101653783E-02  0.21507271728E-03  0.29844638469E-01  0.29913031716E-01  0.00000000000E+00 0. -1.
       22    1    1    2    0    0 -0.40561392820E-03 -0.41985651369E-03  0.50857502780E-02  0.51191462219E-02  0.00000000000E+00 0.  1.
       22    1    1    2    0    0 -0.16045514501E-02  0.20478379641E-03 -0.34930388747E-01  0.34967822062E-01  0.00000000000E+00 0.  1.
</event>
<event>
 5   0  0.1496444E+06  0.9118800E+02  0.7546771E-02  0.1180000E+00
      -11   -1    0    0    0    0  0.00000000000E+00  0.00000000000E+00  0.34996269501E-01  0.35000000000E-01  0.51099999109E-03 0. -1.
       11   -1    0    0    0    0 -0.00000000000E+00 -0.00000000000E+00 -0.34996269501E-01  0.35000000000E-01  0.51099999109E-03 0.  1.
       22    1    1    2    0    0 -0.33522413340E-02 -0.41800348160E-04  0.31622000114E-01  0.31799216349E-01  0.00000000000E+00 0. -1.
       22    1    1    2    0    0  0.94100647100E-02 -0.18697985504E-02 -0.30205416910E-01  0.31692470323E-01  0.00000000000E+00 0.  1.
       22    1    1    2    0    0 -0.60578233760E-02  0.19115988986E-02 -0.14165832041E-02  0.65083133282E-02  0.00000000000E+00 0. -1.
</event>
<event>
 5   0  0.1496444E+06  0.9118800E+02  0.7546771E-02  0.1180000E+00
      -11   -1    0    0    0    0  0.00000000000E+00  0.00000000000E+00  0.34996269501E-01  0.35000000000E-01  0.51099999109E-03 0. -1.
       11   -1    0    0    0    0 -0.00000000000E+00 -0.00000000000E+00 -0.34996269501E-01  0.35000000000E-01  0.51099999109E-03 0.  1.
       22    1    1    2    0    0 -0.20525309402E-02 -0.34137900843E-02  0.33868504989E-01  0.34101942411E-01  0.00000000000E+00 0. -1.
       22    1    1    2    0    0  0.21805658214E-02  0.22178997475E-02 -0.34430365704E-01  0.34570565935E-01  0.00000000000E+00 0.  1.
       22    1    1    2    0    0 -0.12803488120E-03  0.11958903369E-02  0.56186071432E-03  0.13274916538E-02  0.00000000000E+00 0.  1.
</event>
<event>
 5   0  0.1496444E+06  0.9118800E+02  0.7546771E-02  0.1180000E+00
      -11   -1    0    0    0    0  0.00000000000E+00  0.00000000000E+00  0.34996269501E-01  0.35000000000E-01  0.51099999109E-03 0.  1.
       11   -1    0    0    0    0 -0.00000000000E+00 -0.00000000000E+00 -0.34996269501E-01  0.35000000000E-01  0.51099999109E-03 0. -1.
       22    1    1    2    0    0  0.12330340532E-01 -0.36854754465E-02 -0.32548105439E-01  0.34999988494E-01  0.00000000000E+00 0. -1.
       22    1    1    2    0    0 -0.12330364138E-01  0.36854913960E-02  0.32547958764E-01  0.34999862090E-01  0.00000000000E+00 0.  1.
       22    1    1    2    0    0  0.23605774616E-07 -0.15949470763E-07  0.14667514496E-06  0.14941625200E-06  0.00000000000E+00 0.  1.
</event>
<event>
 5   0  0.1496444E+06  0.9118800E+02  0.7546771E-02  0.1180000E+00
      -11   -1    0    0    0    0  0.00000000000E+00  0.00000000000E+00  0.34996269501E-01  0.35000000000E-01  0.51099999109E-03 0.  1.
       11   -1    0    0    0    0 -0.00000000000E+00 -0.00000000000E+00 -0.34996269501E-01  0.35000000000E-01  0.51099999109E-03 0. -1.
       22    1    1    2    0    0 -0.15827792519E-02 -0.30020052384E-02  0.33775028555E-01  0.33945099492E-01  0.00000000000E+00 0.  1.
       22    1    1    2    0    0  0.15097341376E-02  0.30240799521E-02 -0.34831784271E-01  0.34995393300E-01  0.00000000000E+00 0. -1.
       22    1    1    2    0    0  0.73045114280E-04 -0.22074713638E-04  0.10567557155E-02  0.10595072081E-02  0.00000000000E+00 0. -1.
</event>
<event>
 5   0  0.1496444E+06  0.9118800E+02  0.7546771E-02  0.1180000E+00
      -11   -1    0    0    0    0  0.00000000000E+00  0.00000000000E+00  0.34996269501E-01  0.35000000000E-01  0.51099999109E-03 0. -1.
       11   -1    0    0    0    0 -0.00000000000E+00 -0.00000000000E+00 -0.34996269501E-01  0.35000000000E-01  0.51099999109E-03 0.  1.
       22    1    1    2    0    0 -0.18390282180E-01  0.23305763645E-01  0.18537448762E-01  0.34999972919E-01  0.00000000000E+00 0. -1.
       22    1    1    2    0    0 -0.17384466124E-07 -0.50758670639E-07  0.31429112395E-07  0.62180796179E-07  0.00000000000E+00 0. -1.
       22    1    1    2    0    0  0.18390299564E-01 -0.23305712886E-01 -0.18537480191E-01  0.34999964900E-01  0.00000000000E+00 0.  1.
</event>
<event>
 5   0  0.1496444E+06  0.9118800E+02  0.7546771E-02  0.1180000E+00
      -11   -1    0    0    0    0  0.00000000000E+00  0.00000000000E+00  0.34996269501E-01  0.35000000000E-01  0.51099999109E-03 0. -1.
       11   -1    0    0    0    0 -0.00000000000E+00 -0.00000000000E+00 -0.34996269501E-01  0.35000000000E-01  0.51099999109E-03 0.  1.
       22    1    1    2    0    0  0.84763178049E-03 -0.40280180943E-03 -0.34987403982E-01  0.34999988090E-01  0.00000000000E+00 0.  1.
       22    1    1    2    0    0 -0.31917895734E-06  0.36281414500E-06  0.33656979684E-05  0.34002106001E-05  0.00000000000E+00 0. -1.
       22    1    1    2    0    0 -0.84731260154E-03  0.40243899528E-03  0.34984038284E-01  0.34996611699E-01  0.00000000000E+00 0. -1.
</event>
<event>
 5   0  0.1496444E+06  0.9118800E+02  0.7546771E-02  0.1180000E+00
      -11   -1    0    0    0    0  0.00000000000E+00  0.00000000000E+00  0.34996269501E-01  0.35000000000E-01  0.51099999109E-03 0. -1.
       11   -1    0    0    0    0 -0.00000000000E+00 -0.00000000000E+00 -0.34996269501E-01  0.35000000000E-01  0.51099999109E-03 0.  1.
       22    1    1    2    0    0 -0.15478262191E-01  0.23770627334E-01 -0.27598539011E-02  0.28499756453E-01  0.00000000000E+00 0.  1.
       22    1    1    2    0    0  0.48983364608E-03  0.97378055654E-03  0.11287243017E-01  0.11339754870E-01  0.00000000000E+00 0. -1.
       22    1    1    2    0    0  0.14988428545E-01 -0.24744407891E-01 -0.85273891162E-02  0.30160488677E-01  0.00000000000E+00 0. -1.
</event>
<event>
 5   0  0.1496444E+06  0.9118800E+02  0.7546771E-02  0.1180000E+00
      -11   -1    0    0    0    0  0.00000000000E+00  0.00000000000E+00  0.34996269501E-01  0.35000000000E-01  0.51099999109E-03 0. -1.
       11   -1    0    0    0    0 -0.00000000000E+00 -0.00000000000E+00 -0.34996269501E-01  0.35000000000E-01  0.51099999109E-03 0.  1.
       22    1    1    2    0    0  0.50899350055E-07  0.89474770051E-07  0.25219127344E-06  0.27239110982E-06  0.00000000000E+00 0.  1.
       22    1    1    2    0    0  0.20021947131E-02  0.27184926815E-01 -0.21953688504E-01  0.34999906693E-01  0.00000000000E+00 0.  1.
       22    1    1    2    0    0 -0.20022456124E-02 -0.27185016290E-01  0.21953436313E-01  0.34999820915E-01  0.00000000000E+00 0. -1.
</event>
<event>
 5   0  0.1496444E+06  0.9118800E+02  0.7546771E-02  0.1180000E+00
      -11   -1    0    0    0    0  0.00000000000E+00  0.00000000000E+00  0.34996269501E-01  0.35000000000E-01  0.51099999109E-03 0. -1.
       11   -1    0    0    0    0 -0.00000000000E+00 -0.00000000000E+00 -0.34996269501E-01  0.35000000000E-01  0.51099999109E-03 0.  1.
       22    1    1    2    0    0 -0.47666960448E-02  0.43076643039E-02 -0.34405267431E-01  0.34999996999E-01  0.00000000000E+00 0.  1.
       22    1    1    2    0    0  0.27771416841E-08 -0.88698697964E-08  0.43389324164E-06  0.43399277903E-06  0.00000000000E+00 0.  1.
       22    1    1    2    0    0  0.47666932676E-02 -0.43076554340E-02  0.34404833537E-01  0.34999569008E-01  0.00000000000E+00 0. -1.
</event>
<event>
 5   0  0.1496444E+06  0.9118800E+02  0.7546771E-02  0.1180000E+00
      -11   -1    0    0    0    0  0.00000000000E+00  0.00000000000E+00  0.34996269501E-01  0.35000000000E-01  0.51099999109E-03 0. -1.
       11   -1    0    0    0    0 -0.00000000000E+00 -0.00000000000E+00 -0.34996269501E-01  0.35000000000E-01  0.51099999109E-03 0. -1.
       22    1    1    2    0    0  0.12918247106E-02  0.49777446434E-02 -0.34620108717E-01  0.34999981148E-01  0.00000000000E+00 0. -1.
       22    1    1    2    0    0 -0.12917184708E-02 -0.49776763776E-02  0.34619973761E-01  0.34999834027E-01  0.00000000000E+00 0. -1.
       22    1    1    2    0    0 -0.10623985505E-06 -0.68265752004E-07  0.13495568927E-06  0.18482466763E-06  0.00000000000E+00 0. -1.
</event>
<event>
 5   0  0.1496444E+06  0.9118800E+02  0.7546771E-02  0.1180000E+00
      -11   -1    0    0    0    0  0.00000000000E+00  0.00000000000E+00  0.34996269501E-01  0.35000000000E-01  0.51099999109E-03 0.  1.
       11   -1    0    0    0    0 -0.00000000000E+00 -0.00000000000E+00 -0.34996269501E-01  0.35000000000E-01  0.51099999109E-03 0. -1.
       22    1    1    2    0    0 -0.89992009376E-03  0.23623935312E-03  0.30181172537E-01  0.30195510277E-01  0.00000000000E+00 0.  1.
       22    1    1    2    0    0  0.32694418740E-02  0.16052197777E-02  0.40472119552E-02  0.54448053512E-02  0.00000000000E+00 0.  1.
       22    1    1    2    0    0 -0.23695217803E-02 -0.18414591308E-02 -0.34228384492E-01  0.34359684372E-01  0.00000000000E+00 0. -1.
</event>
<event>
 5   0  0.1496444E+06  0.9118800E+02  0.7546771E-02  0.1180000E+00
      -11   -1    0    0    0    0  0.00000000000E+00  0.00000000000E+00  0.34996269501E-01  0.35000000000E-01  0.51099999109E-03 0.  1.
       11   -1    0    0    0    0 -0.00000000000E+00 -0.00000000000E+00 -0.34996269501E-01  0.35000000000E-01  0.51099999109E-03 0. -1.
       22    1    1    2    0    0  0.11194997105E-01  0.29129501604E-01 -0.15847475565E-01  0.34999975794E-01  0.00000000000E+00 0. -1.
       22    1    1    2    0    0 -0.27256970577E-07  0.12863428014E-07  0.74057376659E-07  0.79955645597E-07  0.00000000000E+00 0. -1.
       22    1    1    2    0    0 -0.11194969848E-01 -0.29129514467E-01  0.15847401507E-01  0.34999944250E-01  0.00000000000E+00 0.  1.
</event>
<event>
 5   0  0.1496444E+06  0.9118800E+02  0.7546771E-02  0.1180000E+00
      -11   -1    0    0    0    0  0.00000000000E+00  0.00000000000E+00  0.34996269501E-01  0.35000000000E-01  0.51099999109E-03 0. -1.
       11   -1    0    0    0    0 -0.00000000000E+00 -0.00000000000E+00 -0.34996269501E-01  0.35000000000E-01  0.51099999109E-03 0.  1.
       22    1    1    2    0    0  0.46144301257E-05  0.32637050223E-05  0.45554508619E-03  0.45558014694E-03  0.00000000000E+00 0.  1.
       22    1    1    2    0    0 -0.13999044868E-02  0.12369814339E-02  0.34494251718E-01  0.34544800726E-01  0.00000000000E+00 0. -1.
       22    1    1    2    0    0  0.13952900567E-02 -0.12402451389E-02 -0.34949796804E-01  0.34999619127E-01  0.00000000000E+00 0.  1.
</event>
<event>
 5   0  0.1496444E+06  0.9118800E+02  0.7546771E-02  0.1180000E+00
      -11   -1    0    0    0    0  0.00000000000E+00  0.00000000000E+00  0.34996269501E-01  0.35000000000E-01  0.51099999109E-03 0.  1.
       11   -1    0    0    0    0 -0.00000000000E+00 -0.00000000000E+00 -0.34996269501E-01  0.35000000000E-01  0.51099999109E-03 0. -1.
       22    1    1    2    0    0 -0.10673906720E-01 -0.32806432991E-01  0.58995772770E-02  0.34999990605E-01  0.00000000000E+00 0. -1.
       22    1    1    2    0    0  0.10673906601E-01  0.32806432367E-01 -0.58995938786E-02  0.34999992781E-01  0.00000000000E+00 0.  1.
       22    1    1    2    0    0  0.11913918465E-09  0.62466221249E-09  0.16601635226E-07  0.16613810196E-07  0.00000000000E+00 0. -1.
</event>
<event>
 5   0  0.1496444E+06  0.9118800E+02  0.7546771E-02  0.1180000E+00
      -11   -1    0    0    0    0  0.00000000000E+00  0.00000000000E+00  0.34996269501E-01  0.35000000000E-01  0.51099999109E-03 0. -1.
       11   -1    0    0    0    0 -0.00000000000E+00 -0.00000000000E+00 -0.34996269501E-01  0.35000000000E-01  0.51099999109E-03 0.  1.
       22    1    1    2    0    0 -0.12074857153E-01  0.47479752717E-02 -0.31939877146E-01  0.34474645706E-01  0.00000000000E+00 0.  1.
       22    1    1    2    0    0  0.13040335079E-01 -0.42016432276E-02  0.25096343670E-01  0.28592492203E-01  0.00000000000E+00 0. -1.
       22    1    1    2    0    0 -0.96547792626E-03 -0.54633204411E-03  0.68435334760E-02  0.69328620905E-02  0.00000000000E+00 0.  1.
</event>
<event>
 5   0  0.1496444E+06  0.9118800E+02  0.7546771E-02  0.1180000E+00
      -11   -1    0    0    0    0  0.00000000000E+00  0.00000000000E+00  0.34996269501E-01  0.35000000000E-01  0.51099999109E-03 0. -1.
       11   -1    0    0    0    0 -0.00000000000E+00 -0.00000000000E+00 -0.34996269501E-01  0.35000000000E-01  0.51099999109E-03 0.  1.
       22    1    1    2    0    0  0.18678510100E-01  0.14807124645E-01  0.25627061457E-01  0.34998342228E-01  0.00000000000E+00 0. -1.
       22    1    1    2    0    0 -0.15143151520E-05  0.20693739068E-05  0.77677633205E-06  0.26793357789E-05  0.00000000000E+00 0.  1.
       22    1    1    2    0    0 -0.18676995785E-01 -0.14809194019E-01 -0.25627838233E-01  0.34998978436E-01  0.00000000000E+00 0.  1.
</event>
<event>
 5   0  0.1496444E+06  0.9118800E+02  0.7546771E-02  0.1180000E+00
      -11   -1    0    0    0    0  0.00000000000E+00  0.00000000000E+00  0.34996269501E-01  0.35000000000E-01  0.51099999109E-03 0.  1.
       11   -1    0    0    0    0 -0.00000000000E+00 -0.00000000000E+00 -0.34996269501E-01  0.35000000000E-01  0.51099999109E-03 0. -1.
       22    1    1    2    0    0 -0.48951967286E-03  0.40043047813E-03  0.34994208777E-01  0.34999923171E-01  0.00000000000E+00 0.  1.
       22    1    1    2    0    0  0.48949741773E-03 -0.40043394567E-03 -0.34994284100E-01  0.34999998210E-01  0.00000000000E+00 0. -1.
       22    1    1    2    0    0  0.22255132810E-07  0.34675424353E-08  0.75322864801E-07  0.78618374116E-07  0.00000000000E+00 0. -1.
</event>
<event>
 5   0  0.1496444E+06  0.9118800E+02  0.7546771E-02  0.1180000E+00
      -11   -1    0    0    0    0  0.00000000000E+00  0.00000000000E+00  0.34996269501E-01  0.35000000000E-01  0.51099999109E-03 0. -1.
       11   -1    0    0    0    0 -0.00000000000E+00 -0.00000000000E+00 -0.34996269501E-01  0.35000000000E-01  0.51099999109E-03 0.  1.
       22    1    1    2    0    0 -0.50991289467E-03 -0.69208815600E-03 -0.34971771078E-01  0.34982335107E-01  0.00000000000E+00 0.  1.
       22    1    1    2    0    0  0.74616648026E-03  0.50305458369E-03  0.33636742909E-01  0.33648778609E-01  0.00000000000E+00 0. -1.
       22    1    1    2    0    0 -0.23625358559E-03  0.18903357230E-03  0.13350281691E-02  0.13688862847E-02  0.00000000000E+00 0. -1.
</event>
<event>
 5   0  0.1496444E+06  0.9118800E+02  0.7546771E-02  0.1180000E+00
      -11   -1    0    0    0    0  0.00000000000E+00  0.00000000000E+00  0.34996269501E-01  0.35000000000E-01  0.51099999109E-03 0. -1.
       11   -1    0    0    0    0 -0.00000000000E+00 -0.00000000000E+00 -0.34996269501E-01  0.35000000000E-01  0.51099999109E-03 0.  1.
       22    1    1    2    0    0 -0.24435681458E-03  0.76902043660E-03 -0.34240821197E-01  0.34250327574E-01  0.00000000000E+00 0.  1.
       22    1    1    2    0    0 -0.16595452857E-03  0.38833142368E-04 -0.73885741622E-03  0.75826064121E-03  0.00000000000E+00 0.  1.
       22    1    1    2    0    0  0.41031134315E-03 -0.80785357897E-03  0.34979678613E-01  0.34991411785E-01  0.00000000000E+00 0. -1.
</event>
<event>
 5   0  0.1496444E+06  0.9118800E+02  0.7546771E-02  0.1180000E+00
      -11   -1    0    0    0    0  0.00000000000E+00  0.00000000000E+00  0.34996269501E-01  0.35000000000E-01  0.51099999109E-03 0.  1.
       11   -1    0    0    0    0 -0.00000000000E+00 -0.00000000000E+00 -0.34996269501E-01  0.35000000000E-01  0.51099999109E-03 0. -1.
       22    1    1    2    0    0 -0.93081587749E-04  0.40930620346E-03 -0.62675085303E-03  0.75432909392E-03  0.00000000000E+00 0.  1.
       22    1    1    2    0    0 -0.20288686665E-01  0.51850528183E-03  0.28324146498E-01  0.34844754686E-01  0.00000000000E+00 0.  1.
       22    1    1    2    0    0  0.20381768252E-01 -0.92781148528E-03 -0.27697395645E-01  0.34400916220E-01  0.00000000000E+00 0. -1.
</event>
<event>
 5   0  0.1496444E+06  0.9118800E+02  0.7546771E-02  0.1180000E+00
      -11   -1    0    0    0    0  0.00000000000E+00  0.00000000000E+00  0.34996269501E-01  0.35000000000E-01  0.51099999109E-03 0.  1.
       11   -1    0    0    0    0 -0.00000000000E+00 -0.00000000000E+00 -0.34996269501E-01  0.35000000000E-01  0.51099999109E-03 0. -1.
       22    1    1    2    0    0  0.24016477943E-02 -0.66450830613E-02 -0.34279366257E-01  0.34999999885E-01  0.00000000000E+00 0. -1.
       22    1    1    2    0    0 -0.24016454779E-02  0.66450801892E-02  0.34279330013E-01  0.34999963684E-01  0.00000000000E+00 0.  1.
       22    1    1    2    0    0 -0.23163454554E-08  0.28721189992E-08  0.36243569967E-07  0.36430905667E-07  0.00000000000E+00 0.  1.
</event>
<event>
 5   0  0.1496444E+06  0.9118800E+02  0.7546771E-02  0.1180000E+00
      -11   -1    0    0    0    0  0.00000000000E+00  0.00000000000E+00  0.34996269501E-01  0.35000000000E-01  0.51099999109E-03 0. -1.
       11   -1    0    0    0    0 -0.00000000000E+00 -0.00000000000E+00 -0.34996269501E-01  0.35000000000E-01  0.51099999109E-03 0.  1.
       22    1    1    2    0    0 -0.37356828776E-02 -0.71358467109E-03 -0.90683264199E-02  0.98335687166E-02  0.00000000000E+00 0.  1.
       22    1    1    2    0    0 -0.16792046539E-01  0.15563254400E-02  0.27701057495E-01  0.32430596082E-01  0.00000000000E+00 0. -1.
       22    1    1    2    0    0  0.20527729417E-01 -0.84274076887E-03 -0.18632731075E-01  0.27735835202E-01  0.00000000000E+00 0.  1.
</event>
<event>
 5   0  0.1496444E+06  0.9118800E+02  0.7546771E-02  0.1180000E+00
      -11   -1    0    0    0    0  0.00000000000E+00  0.00000000000E+00  0.34996269501E-01  0.35000000000E-01  0.51099999109E-03 0. -1.
       11   -1    0    0    0    0 -0.00000000000E+00 -0.00000000000E+00 -0.34996269501E-01  0.35000000000E-01  0.51099999109E-03 0.  1.
       22    1    1    2    0    0 -0.27422999286E-01  0.56198071855E-03  0.13235380819E-01  0.30455081966E-01  0.00000000000E+00 0. -1.
       22    1    1    2    0    0  0.61514687200E-03  0.73877847144E-02  0.20317354632E-02  0.76867234667E-02  0.00000000000E+00 0. -1.
       22    1    1    2    0    0  0.26807852414E-01 -0.79497654330E-02 -0.15267116283E-01  0.31858194567E-01  0.00000000000E+00 0.  1.
</event>
<event>
 5   0  0.1496444E+06  0.9118800E+02  0.7546771E-02  0.1180000E+00
      -11   -1    0    0    0    0  0.00000000000E+00  0.00000000000E+00  0.34996269501E-01  0.35000000000E-01  0.51099999109E-03 0.  1.
       11   -1    0    0    0    0 -0.00000000000E+00 -0.00000000000E+00 -0.34996269501E-01  0.35000000000E-01  0.51099999109E-03 0.  1.
       22    1    1    2    0    0  0.23128156173E-04 -0.21746863826E-03 -0.34504236004E-01  0.34504929064E-01  0.00000000000E+00 0.  1.
       22    1    1    2    0    0 -0.23128156173E-04  0.21746863826E-03 -0.47223928712E-03  0.52042046898E-03  0.00000000000E+00 0. -1.
       22    1    1    2    0    0  0.00000000000E+00 -0.00000000000E+00  0.34976475291E-01  0.34974650467E-01  0.00000000000E+00 0.  1.
</event>
<event>
 5   0  0.1496444E+06  0.9118800E+02  0.7546771E-02  0.1180000E+00
      -11   -1    0    0    0    0  0.00000000000E+00  0.00000000000E+00  0.34996269501E-01  0.35000000000E-01  0.51099999109E-03 0.  1.
       11   -1    0    0    0    0 -0.00000000000E+00 -0.00000000000E+00 -0.34996269501E-01  0.35000000000E-01  0.51099999109E-03 0. -1.
       22    1    1    2    0    0  0.16502745265E-01 -0.19253071565E-02  0.30805073553E-01  0.34999999507E-01  0.00000000000E+00 0.  1.
       22    1    1    2    0    0 -0.16502745584E-01  0.19253070974E-02 -0.30805073935E-01  0.34999999991E-01  0.00000000000E+00 0. -1.
       22    1    1    2    0    0  0.31992265029E-09  0.59170120016E-10  0.38220699476E-09  0.50193006695E-09  0.00000000000E+00 0.  1.
</event>
<event>
 5   0  0.1496444E+06  0.9118800E+02  0.7546771E-02  0.1180000E+00
      -11   -1    0    0    0    0  0.00000000000E+00  0.00000000000E+00  0.34996269501E-01  0.35000000000E-01  0.51099999109E-03 0. -1.
       11   -1    0    0    0    0 -0.00000000000E+00 -0.00000000000E+00 -0.34996269501E-01  0.35000000000E-01  0.51099999109E-03 0.  1.
       22    1    1    2    0    0  0.46797016086E-02  0.18261012542E-02  0.34637634561E-01  0.34999999727E-01  0.00000000000E+00 0. -1.
       22    1    1    2    0    0  0.55059054823E-10  0.56807979241E-09 -0.66138006514E-10  0.57456103764E-09  0.00000000000E+00 0.  1.
       22    1    1    2    0    0 -0.46797016637E-02 -0.18261018223E-02 -0.34637634494E-01  0.34999999698E-01  0.00000000000E+00 0.  1.
</event>
<event>
 5   0  0.1496444E+06  0.9118800E+02  0.7546771E-02  0.1180000E+00
      -11   -1    0    0    0    0  0.00000000000E+00  0.00000000000E+00  0.34996269501E-01  0.35000000000E-01  0.51099999109E-03 0. -1.
       11   -1    0    0    0    0 -0.00000000000E+00 -0.00000000000E+00 -0.34996269501E-01  0.35000000000E-01  0.51099999109E-03 0.  1.
       22    1    1    2    0    0 -0.68412753056E-03  0.83049383246E-03 -0.11341544710E-02  0.15633479612E-02  0.00000000000E+00 0. -1.
       22    1    1    2    0    0  0.39123528254E-02 -0.14705276041E-01  0.31451550129E-01  0.34939256627E-01  0.00000000000E+00 0. -1.
       22    1    1    2    0    0 -0.32282252948E-02  0.13874782209E-01 -0.30317395658E-01  0.33497395412E-01  0.00000000000E+00 0.  1.
</event>
<event>
 5   0  0.1496444E+06  0.9118800E+02  0.7546771E-02  0.1180000E+00
      -11   -1    0    0    0    0  0.00000000000E+00  0.00000000000E+00  0.34996269501E-01  0.35000000000E-01  0.51099999109E-03 0. -1.
       11   -1    0    0    0    0 -0.00000000000E+00 -0.00000000000E+00 -0.34996269501E-01  0.35000000000E-01  0.51099999109E-03 0.  1.
       22    1    1    2    0    0 -0.11217633042E-02  0.54919782339E-02  0.34548219649E-01  0.34999995125E-01  0.00000000000E+00 0. -1.
       22    1    1    2    0    0  0.11217593825E-02 -0.54919781271E-02 -0.34548223849E-01  0.34999999128E-01  0.00000000000E+00 0.  1.
       22    1    1    2    0    0  0.39216721896E-08 -0.10683211886E-09  0.41997779099E-08  0.57470914694E-08  0.00000000000E+00 0.  1.
</event>
<event>
 5   0  0.1496444E+06  0.9118800E+02  0.7546771E-02  0.1180000E+00
      -11   -1    0    0    0    0  0.00000000000E+00  0.00000000000E+00  0.34996269501E-01  0.35000000000E-01  0.51099999109E-03 0. -1.
       11   -1    0    0    0    0 -0.00000000000E+00 -0.00000000000E+00 -0.34996269501E-01  0.35000000000E-01  0.51099999109E-03 0.  1.
       22    1    1    2    0    0 -0.16568142063E-05  0.22513010257E-06  0.37307687375E-05  0.40883190005E-05  0.00000000000E+00 0. -1.
       22    1    1    2    0    0 -0.45524645685E-02 -0.10701552552E-01  0.33007279068E-01  0.34996123102E-01  0.00000000000E+00 0. -1.
       22    1    1    2    0    0  0.45541213827E-02  0.10701327422E-01 -0.33011009837E-01  0.34999788579E-01  0.00000000000E+00 0.  1.
</event>
<event>
 5   0  0.1496444E+06  0.9118800E+02  0.7546771E-02  0.1180000E+00
      -11   -1    0    0    0    0  0.00000000000E+00  0.00000000000E+00  0.34996269501E-01  0.35000000000E-01  0.51099999109E-03 0.  1.
       11   -1    0    0    0    0 -0.00000000000E+00 -0.00000000000E+00 -0.34996269501E-01  0.35000000000E-01  0.51099999109E-03 0. -1.
       22    1    1    2    0    0 -0.52110513589E-02 -0.56734921748E-02 -0.34141711000E-01  0.34999999996E-01  0.00000000000E+00 0. -1.
       22    1    1    2    0    0  0.52110498891E-02  0.56734903968E-02  0.34141698942E-01  0.34999987727E-01  0.00000000000E+00 0.  1.
       22    1    1    2    0    0  0.14698152925E-08  0.17780503974E-08  0.12058121558E-07  0.12276812116E-07  0.00000000000E+00 0. -1.
</event>
<event>
 5   0  0.1496444E+06  0.9118800E+02  0.7546771E-02  0.1180000E+00
      -11   -1    0    0    0    0  0.00000000000E+00  0.00000000000E+00  0.34996269501E-01  0.35000000000E-01  0.51099999109E-03 0.  1.
       11   -1    0    0    0    0 -0.00000000000E+00 -0.00000000000E+00 -0.34996269501E-01  0.35000000000E-01  0.51099999109E-03 0. -1.
       22    1    1    2    0    0 -0.81119400151E-03 -0.85476237978E-04 -0.78514216962E-03  0.11321617031E-02  0.00000000000E+00 0.  1.
       22    1    1    2    0    0 -0.15202181114E-02  0.63725943617E-03  0.34764783157E-01  0.34803840458E-01  0.00000000000E+00 0.  1.
       22    1    1    2    0    0  0.23314121129E-02 -0.55178319819E-03 -0.33979640987E-01  0.34063997839E-01  0.00000000000E+00 0. -1.
</event>
<event>
 5   0  0.1496444E+06  0.9118800E+02  0.7546771E-02  0.1180000E+00
      -11   -1    0    0    0    0  0.00000000000E+00  0.00000000000E+00  0.34996269501E-01  0.35000000000E-01  0.51099999109E-03 0.  1.
       11   -1    0    0    0    0 -0.00000000000E+00 -0.00000000000E+00 -0.34996269501E-01  0.35000000000E-01  0.51099999109E-03 0. -1.
       22    1    1    2    0    0  0.39644354028E-04  0.24300587609E-04 -0.53982883109E-03  0.54182779574E-03  0.00000000000E+00 0. -1.
       22    1    1    2    0    0 -0.12296480254E-01 -0.17998010306E-01  0.27323167661E-01  0.34952643572E-01  0.00000000000E+00 0.  1.
       22    1    1    2    0    0  0.12256835900E-01  0.17973709719E-01 -0.26783338830E-01  0.34505528633E-01  0.00000000000E+00 0. -1.
</event>
<event>
 5   0  0.1496444E+06  0.9118800E+02  0.7546771E-02  0.1180000E+00
      -11   -1    0    0    0    0  0.00000000000E+00  0.00000000000E+00  0.34996269501E-01  0.35000000000E-01  0.51099999109E-03 0.  1.
       11   -1    0    0    0    0 -0.00000000000E+00 -0.00000000000E+00 -0.34996269501E-01  0.35000000000E-01  0.51099999109E-03 0. -1.
       22    1    1    2    0    0 -0.11125326497E-03  0.30824575123E-03  0.65005325877E-03  0.72798487028E-03  0.00000000000E+00 0.  1.
       22    1    1    2    0    0  0.32832808477E-03 -0.18450037814E-02 -0.34918345349E-01  0.34968595628E-01  0.00000000000E+00 0. -1.
       22    1    1    2    0    0 -0.21707481980E-03  0.15367580301E-02  0.34268292090E-01  0.34303419502E-01  0.00000000000E+00 0.  1.
</event>
<event>
 5   0  0.1496444E+06  0.9118800E+02  0.7546771E-02  0.1180000E+00
      -11   -1    0    0    0    0  0.00000000000E+00  0.00000000000E+00  0.34996269501E-01  0.35000000000E-01  0.51099999109E-03 0. -1.
       11   -1    0    0    0    0 -0.00000000000E+00 -0.00000000000E+00 -0.34996269501E-01  0.35000000000E-01  0.51099999109E-03 0. -1.
       22    1    1    2    0    0 -0.82999523344E-07  0.10686386261E-07  0.39345686926E-07  0.92472713847E-07  0.00000000000E+00 0.  1.
       22    1    1    2    0    0 -0.83898598527E-11  0.10802144332E-11 -0.35003318004E-01  0.34999973438E-01  0.00000000000E+00 0. -1.
       22    1    1    2    0    0  0.83007913204E-07 -0.10687466476E-07  0.35003278659E-01  0.34999934089E-01  0.00000000000E+00 0. -1.
</event>
<event>
 5   0  0.1496444E+06  0.9118800E+02  0.7546771E-02  0.1180000E+00
      -11   -1    0    0    0    0  0.00000000000E+00  0.00000000000E+00  0.34996269501E-01  0.35000000000E-01  0.51099999109E-03 0. -1.
       11   -1    0    0    0    0 -0.00000000000E+00 -0.00000000000E+00 -0.34996269501E-01  0.35000000000E-01  0.51099999109E-03 0.  1.
       22    1    1    2    0    0 -0.16142880121E-01  0.29019020095E-01  0.10785749128E-01  0.34914588500E-01  0.00000000000E+00 0. -1.
       22    1    1    2    0    0 -0.12266418104E-03 -0.21175848366E-03  0.91071409606E-04  0.26111713533E-03  0.00000000000E+00 0.  1.
       22    1    1    2    0    0  0.16265544302E-01 -0.28807261611E-01 -0.10876820537E-01  0.34824294365E-01  0.00000000000E+00 0.  1.
</event>
<event>
 5   0  0.1496444E+06  0.9118800E+02  0.7546771E-02  0.1180000E+00
      -11   -1    0    0    0    0  0.00000000000E+00  0.00000000000E+00  0.34996269501E-01  0.35000000000E-01  0.51099999109E-03 0. -1.
       11   -1    0    0    0    0 -0.00000000000E+00 -0.00000000000E+00 -0.34996269501E-01  0.35000000000E-01  0.51099999109E-03 0.  1.
       22    1    1    2    0    0  0.25004339138E-02  0.13928341022E-03 -0.34842481065E-01  0.34932364025E-01  0.00000000000E+00 0.  1.
       22    1    1    2    0    0 -0.63953984196E-03  0.65720166319E-03  0.25170806042E-02  0.26789214254E-02  0.00000000000E+00 0. -1.
       22    1    1    2    0    0 -0.18608940719E-02 -0.79648507341E-03  0.32325400461E-01  0.32388714549E-01  0.00000000000E+00 0. -1.
</event>
<event>
 5   0  0.1496444E+06  0.9118800E+02  0.7546771E-02  0.1180000E+00
      -11   -1    0    0    0    0  0.00000000000E+00  0.00000000000E+00  0.34996269501E-01  0.35000000000E-01  0.51099999109E-03 0.  1.
       11   -1    0    0    0    0 -0.00000000000E+00 -0.00000000000E+00 -0.34996269501E-01  0.35000000000E-01  0.51099999109E-03 0. -1.
       22    1    1    2    0    0  0.25222412830E-07  0.82445220766E-08  0.20170683315E-06  0.20344480527E-06  0.00000000000E+00 0.  1.
       22    1    1    2    0    0  0.65874645363E-02  0.43834900158E-02  0.34093637625E-01  0.34999797145E-01  0.00000000000E+00 0.  1.
       22    1    1    2    0    0 -0.65874897587E-02 -0.43834982603E-02 -0.34093839332E-01  0.34999999410E-01  0.00000000000E+00 0. -1.
</event>
<event>
 5   0  0.1496444E+06  0.9118800E+02  0.7546771E-02  0.1180000E+00
      -11   -1    0    0    0    0  0.00000000000E+00  0.00000000000E+00  0.34996269501E-01  0.35000000000E-01  0.51099999109E-03 0.  1.
       11   -1    0    0    0    0 -0.00000000000E+00 -0.00000000000E+00 -0.34996269501E-01  0.35000000000E-01  0.51099999109E-03 0. -1.
       22    1    1    2    0    0 -0.10236403337E-02  0.83047842539E-04  0.34984907379E-01  0.34999978297E-01  0.00000000000E+00 0.  1.
       22    1    1    2    0    0  0.10236335826E-02 -0.83042400884E-04 -0.34984928330E-01  0.34999999029E-01  0.00000000000E+00 0. -1.
       22    1    1    2    0    0  0.67511293138E-08 -0.54416559112E-08  0.20950414896E-07  0.22673977383E-07  0.00000000000E+00 0.  1.
</event>
<event>
 5   0  0.1496444E+06  0.9118800E+02  0.7546771E-02  0.1180000E+00
      -11   -1    0    0    0    0  0.00000000000E+00  0.00000000000E+00  0.34996269501E-01  0.35000000000E-01  0.51099999109E-03 0. -1.
       11   -1    0    0    0    0 -0.00000000000E+00 -0.00000000000E+00 -0.34996269501E-01  0.35000000000E-01  0.51099999109E-03 0.  1.
       22    1    1    2    0    0  0.00000000000E+00 -0.00000000000E+00  0.20229132195E-01  0.20228247062E-01  0.00000000000E+00 0. -1.
       22    1    1    2    0    0 -0.25416467563E-04 -0.22609910466E-02 -0.34877086459E-01  0.34950305956E-01  0.00000000000E+00 0.  1.
       22    1    1    2    0    0  0.25416467563E-04  0.22609910466E-02  0.14647954264E-01  0.14821446982E-01  0.00000000000E+00 0. -1.
</event>
<event>
 5   0  0.1496444E+06  0.9118800E+02  0.7546771E-02  0.1180000E+00
      -11   -1    0    0    0    0  0.00000000000E+00  0.00000000000E+00  0.34996269501E-01  0.35000000000E-01  0.51099999109E-03 0.  1.
       11   -1    0    0    0    0 -0.00000000000E+00 -0.00000000000E+00 -0.34996269501E-01  0.35000000000E-01  0.51099999109E-03 0. -1.
       22    1    1    2    0    0  0.41683956522E-03  0.21434615127E-02 -0.13398093534E-01  0.13574869901E-01  0.00000000000E+00 0. -1.
       22    1    1    2    0    0  0.82978812745E-03 -0.27388516169E-02 -0.21404582027E-01  0.21595045457E-01  0.00000000000E+00 0. -1.
       22    1    1    2    0    0 -0.12466276927E-02  0.59539010419E-03  0.34802675561E-01  0.34830084642E-01  0.00000000000E+00 0.  1.
</event>
<event>
 5   0  0.1496444E+06  0.9118800E+02  0.7546771E-02  0.1180000E+00
      -11   -1    0    0    0    0  0.00000000000E+00  0.00000000000E+00  0.34996269501E-01  0.35000000000E-01  0.51099999109E-03 0.  1.
       11   -1    0    0    0    0 -0.00000000000E+00 -0.00000000000E+00 -0.34996269501E-01  0.35000000000E-01  0.51099999109E-03 0. -1.
       22    1    1    2    0    0  0.19048144949E-02 -0.21149838329E-03  0.34946581210E-01  0.34999094104E-01  0.00000000000E+00 0.  1.
       22    1    1    2    0    0 -0.19043468386E-02  0.21197559695E-03 -0.34947377376E-01  0.34999866514E-01  0.00000000000E+00 0. -1.
       22    1    1    2    0    0 -0.46765632468E-06 -0.47721366538E-06  0.79616625120E-06  0.10393825186E-05  0.00000000000E+00 0. -1.
</event>
<event>
 5   0  0.1496444E+06  0.9118800E+02  0.7546771E-02  0.1180000E+00
      -11   -1    0    0    0    0  0.00000000000E+00  0.00000000000E+00  0.34996269501E-01  0.35000000000E-01  0.51099999109E-03 0. -1.
       11   -1    0    0    0    0 -0.00000000000E+00 -0.00000000000E+00 -0.34996269501E-01  0.35000000000E-01  0.51099999109E-03 0.  1.
       22    1    1    2    0    0 -0.54651013949E-02  0.27499442011E-03  0.34562243358E-01  0.34992736691E-01  0.00000000000E+00 0. -1.
       22    1    1    2    0    0 -0.27042294496E-04  0.70313632266E-05 -0.76597547539E-03  0.76648493439E-03  0.00000000000E+00 0. -1.
       22    1    1    2    0    0  0.54921436894E-02 -0.28202578334E-03 -0.33796267883E-01  0.34240778374E-01  0.00000000000E+00 0.  1.
</event>
<event>
 5   0  0.1496444E+06  0.9118800E+02  0.7546771E-02  0.1180000E+00
      -11   -1    0    0    0    0  0.00000000000E+00  0.00000000000E+00  0.34996269501E-01  0.35000000000E-01  0.51099999109E-03 0.  1.
       11   -1    0    0    0    0 -0.00000000000E+00 -0.00000000000E+00 -0.34996269501E-01  0.35000000000E-01  0.51099999109E-03 0. -1.
       22    1    1    2    0    0  0.17358404155E-03 -0.25219260670E-02  0.10489739139E-01  0.10790035668E-01  0.00000000000E+00 0.  1.
       22    1    1    2    0    0  0.83951770423E-02  0.48148930069E-02 -0.33330580735E-01  0.34707201045E-01  0.00000000000E+00 0. -1.
       22    1    1    2    0    0 -0.85687610839E-02 -0.22929669399E-02  0.22840841596E-01  0.24502763287E-01  0.00000000000E+00 0.  1.
</event>
<event>
 5   0  0.1496444E+06  0.9118800E+02  0.7546771E-02  0.1180000E+00
      -11   -1    0    0    0    0  0.00000000000E+00  0.00000000000E+00  0.34996269501E-01  0.35000000000E-01  0.51099999109E-03 0.  1.
       11   -1    0    0    0    0 -0.00000000000E+00 -0.00000000000E+00 -0.34996269501E-01  0.35000000000E-01  0.51099999109E-03 0.  1.
       22    1    1    2    0    0  0.77512849253E-05 -0.37235370191E-03  0.34876691123E-01  0.34878679606E-01  0.00000000000E+00 0.  1.
       22    1    1    2    0    0  0.22797604392E-03 -0.24241333101E-04  0.12003643207E-04  0.22957527368E-03  0.00000000000E+00 0. -1.
       22    1    1    2    0    0 -0.23572732885E-03  0.39659503501E-03 -0.34888694767E-01  0.34891745120E-01  0.00000000000E+00 0.  1.
</event>
<event>
 5   0  0.1496444E+06  0.9118800E+02  0.7546771E-02  0.1180000E+00
      -11   -1    0    0    0    0  0.00000000000E+00  0.00000000000E+00  0.34996269501E-01  0.35000000000E-01  0.51099999109E-03 0.  1.
       11   -1    0    0    0    0 -0.00000000000E+00 -0.00000000000E+00 -0.34996269501E-01  0.35000000000E-01  0.51099999109E-03 0. -1.
       22    1    1    2    0    0  0.10934905026E-06  0.21896911748E-06  0.18822608510E-07  0.24547704535E-06  0.00000000000E+00 0.  1.
       22    1    1    2    0    0 -0.27867732154E-01  0.65901504706E-03  0.21164808449E-01  0.34999913042E-01  0.00000000000E+00 0.  1.
       22    1    1    2    0    0  0.27867622805E-01 -0.65923401617E-03 -0.21164827272E-01  0.34999841481E-01  0.00000000000E+00 0. -1.
</event>
<event>
 5   0  0.1496444E+06  0.9118800E+02  0.7546771E-02  0.1180000E+00
      -11   -1    0    0    0    0  0.00000000000E+00  0.00000000000E+00  0.34996269501E-01  0.35000000000E-01  0.51099999109E-03 0.  1.
       11   -1    0    0    0    0 -0.00000000000E+00 -0.00000000000E+00 -0.34996269501E-01  0.35000000000E-01  0.51099999109E-03 0. -1.
       22    1    1    2    0    0 -0.34160069184E-03 -0.18326639368E-03 -0.34982806096E-01  0.34984953908E-01  0.00000000000E+00 0. -1.
       22    1    1    2    0    0 -0.13133534062E-03  0.13333149761E-04  0.29035883235E-03  0.31895923894E-03  0.00000000000E+00 0. -1.
       22    1    1    2    0    0  0.47293603246E-03  0.16993324392E-03  0.34692447263E-01  0.34696086853E-01  0.00000000000E+00 0.  1.
</event>
<event>
 5   0  0.1496444E+06  0.9118800E+02  0.7546771E-02  0.1180000E+00
      -11   -1    0    0    0    0  0.00000000000E+00  0.00000000000E+00  0.34996269501E-01  0.35000000000E-01  0.51099999109E-03 0.  1.
       11   -1    0    0    0    0 -0.00000000000E+00 -0.00000000000E+00 -0.34996269501E-01  0.35000000000E-01  0.51099999109E-03 0. -1.
       22    1    1    2    0    0 -0.30989652510E-04 -0.30705892152E-04  0.11858569307E-04  0.45208804911E-04  0.00000000000E+00 0.  1.
       22    1    1    2    0    0 -0.69406286117E-02 -0.34185580215E-01  0.23020029424E-02  0.34958910705E-01  0.00000000000E+00 0.  1.
       22    1    1    2    0    0  0.69716182642E-02  0.34216286107E-01 -0.23138615117E-02  0.34995880490E-01  0.00000000000E+00 0. -1.
</event>
<event>
 5   0  0.1496444E+06  0.9118800E+02  0.7546771E-02  0.1180000E+00
      -11   -1    0    0    0    0  0.00000000000E+00  0.00000000000E+00  0.34996269501E-01  0.35000000000E-01  0.51099999109E-03 0.  1.
       11   -1    0    0    0    0 -0.00000000000E+00 -0.00000000000E+00 -0.34996269501E-01  0.35000000000E-01  0.51099999109E-03 0. -1.
       22    1    1    2    0    0 -0.34886748447E-01 -0.14723241492E-02  0.22294819957E-02  0.34988906035E-01  0.00000000000E+00 0.  1.
       22    1    1    2    0    0  0.86522803551E-05  0.16187529849E-05 -0.31688586730E-04  0.32888430270E-04  0.00000000000E+00 0. -1.
       22    1    1    2    0    0  0.34878096166E-01  0.14707053962E-02 -0.21977934089E-02  0.34978205534E-01  0.00000000000E+00 0. -1.
</event>
<event>
 5   0  0.1496444E+06  0.9118800E+02  0.7546771E-02  0.1180000E+00
      -11   -1    0    0    0    0  0.00000000000E+00  0.00000000000E+00  0.34996269501E-01  0.35000000000E-01  0.51099999109E-03 0. -1.
       11   -1    0    0    0    0 -0.00000000000E+00 -0.00000000000E+00 -0.34996269501E-01  0.35000000000E-01  0.51099999109E-03 0.  1.
       22    1    1    2    0    0  0.44220968667E-03 -0.52578220529E-04  0.24912263439E-02  0.25307158222E-02  0.00000000000E+00 0. -1.
       22    1    1    2    0    0  0.63066570938E-02  0.13676569476E-01  0.28900609492E-01  0.32589380254E-01  0.00000000000E+00 0. -1.
       22    1    1    2    0    0 -0.67488667805E-02 -0.13623991255E-01 -0.31391835836E-01  0.34879903924E-01  0.00000000000E+00 0.  1.
</event>
<event>
 5   0  0.1496444E+06  0.9118800E+02  0.7546771E-02  0.1180000E+00
      -11   -1    0    0    0    0  0.00000000000E+00  0.00000000000E+00  0.34996269501E-01  0.35000000000E-01  0.51099999109E-03 0. -1.
       11   -1    0    0    0    0 -0.00000000000E+00 -0.00000000000E+00 -0.34996269501E-01  0.35000000000E-01  0.51099999109E-03 0.  1.
       22    1    1    2    0    0 -0.25122879049E-03  0.22957380959E-03  0.33539528748E-03  0.47781799682E-03  0.00000000000E+00 0. -1.
       22    1    1    2    0    0  0.51396821217E-02  0.33945720001E-02  0.34049915242E-01  0.34602545851E-01  0.00000000000E+00 0. -1.
       22    1    1    2    0    0 -0.48884533312E-02 -0.36241458097E-02 -0.34385310529E-01  0.34919636152E-01  0.00000000000E+00 0.  1.
</event>
<event>
 5   0  0.1496444E+06  0.9118800E+02  0.7546771E-02  0.1180000E+00
      -11   -1    0    0    0    0  0.00000000000E+00  0.00000000000E+00  0.34996269501E-01  0.35000000000E-01  0.51099999109E-03 0.  1.
       11   -1    0    0    0    0 -0.00000000000E+00 -0.00000000000E+00 -0.34996269501E-01  0.35000000000E-01  0.51099999109E-03 0. -1.
       22    1    1    2    0    0 -0.12134578908E-02 -0.11712633359E-02 -0.33689038937E-01  0.33731227110E-01  0.00000000000E+00 0. -1.
       22    1    1    2    0    0  0.74680846144E-04  0.27795360958E-02  0.34135212263E-01  0.34248271699E-01  0.00000000000E+00 0.  1.
       22    1    1    2    0    0  0.11387770446E-02 -0.16082727599E-02 -0.44617332597E-03  0.20205011914E-02  0.00000000000E+00 0. -1.
</event>
<event>
 5   0  0.1496444E+06  0.9118800E+02  0.7546771E-02  0.1180000E+00
      -11   -1    0    0    0    0  0.00000000000E+00  0.00000000000E+00  0.34996269501E-01  0.35000000000E-01  0.51099999109E-03 0.  1.
       11   -1    0    0    0    0 -0.00000000000E+00 -0.00000000000E+00 -0.34996269501E-01  0.35000000000E-01  0.51099999109E-03 0. -1.
       22    1    1    2    0    0  0.44591855430E-05  0.24983010484E-05  0.95141230601E-04  0.95278431998E-04  0.00000000000E+00 0. -1.
       22    1    1    2    0    0  0.81477423109E-02  0.14677058812E-02 -0.34004712240E-01  0.34998004512E-01  0.00000000000E+00 0. -1.
       22    1    1    2    0    0 -0.81522014964E-02 -0.14702041823E-02  0.33909571009E-01  0.34906717056E-01  0.00000000000E+00 0.  1.
</event>
<event>
 5   0  0.1496444E+06  0.9118800E+02  0.7546771E-02  0.1180000E+00
      -11   -1    0    0    0    0  0.00000000000E+00  0.00000000000E+00  0.34996269501E-01  0.35000000000E-01  0.51099999109E-03 0. -1.
       11   -1    0    0    0    0 -0.00000000000E+00 -0.00000000000E+00 -0.34996269501E-01  0.35000000000E-01  0.51099999109E-03 0.  1.
       22    1    1    2    0    0  0.13269459916E-02  0.24400802601E-02  0.34861262260E-01  0.34971736927E-01  0.00000000000E+00 0. -1.
       22    1    1    2    0    0 -0.99195524757E-03 -0.22727282457E-02 -0.33984877408E-01  0.34075227972E-01  0.00000000000E+00 0.  1.
       22    1    1    2    0    0 -0.33499074400E-03 -0.16735201438E-03 -0.87638485216E-03  0.95303510134E-03  0.00000000000E+00 0. -1.
</event>
<event>
 5   0  0.1496444E+06  0.9118800E+02  0.7546771E-02  0.1180000E+00
      -11   -1    0    0    0    0  0.00000000000E+00  0.00000000000E+00  0.34996269501E-01  0.35000000000E-01  0.51099999109E-03 0.  1.
       11   -1    0    0    0    0 -0.00000000000E+00 -0.00000000000E+00 -0.34996269501E-01  0.35000000000E-01  0.51099999109E-03 0. -1.
       22    1    1    2    0    0  0.58665397978E-02 -0.24141862546E-01  0.24649545389E-01  0.34997798564E-01  0.00000000000E+00 0.  1.
       22    1    1    2    0    0 -0.55579837146E-07 -0.26713301406E-07  0.25775586751E-05  0.25782962286E-05  0.00000000000E+00 0. -1.
       22    1    1    2    0    0 -0.58664842180E-02  0.24141889260E-01 -0.24652122948E-01  0.34999623140E-01  0.00000000000E+00 0. -1.
</event>
<event>
 5   0  0.1496444E+06  0.9118800E+02  0.7546771E-02  0.1180000E+00
      -11   -1    0    0    0    0  0.00000000000E+00  0.00000000000E+00  0.34996269501E-01  0.35000000000E-01  0.51099999109E-03 0. -1.
       11   -1    0    0    0    0 -0.00000000000E+00 -0.00000000000E+00 -0.34996269501E-01  0.35000000000E-01  0.51099999109E-03 0.  1.
       22    1    1    2    0    0  0.13630129833E-02  0.20558077697E-02 -0.34405317366E-01  0.34493622788E-01  0.00000000000E+00 0.  1.
       22    1    1    2    0    0 -0.23721829917E-02 -0.24820447432E-02  0.34224237447E-01  0.34396020512E-01  0.00000000000E+00 0. -1.
       22    1    1    2    0    0  0.10091700083E-02  0.42623697343E-03  0.18107991887E-03  0.11103566996E-02  0.00000000000E+00 0.  1.
</event>
<event>
 5   0  0.1496444E+06  0.9118800E+02  0.7546771E-02  0.1180000E+00
      -11   -1    0    0    0    0  0.00000000000E+00  0.00000000000E+00  0.34996269501E-01  0.35000000000E-01  0.51099999109E-03 0.  1.
       11   -1    0    0    0    0 -0.00000000000E+00 -0.00000000000E+00 -0.34996269501E-01  0.35000000000E-01  0.51099999109E-03 0. -1.
       22    1    1    2    0    0 -0.43872879727E-02  0.55318214723E-02  0.34280450322E-01  0.34999980269E-01  0.00000000000E+00 0.  1.
       22    1    1    2    0    0  0.43872921335E-02 -0.55318408148E-02 -0.34280462979E-01  0.34999996244E-01  0.00000000000E+00 0. -1.
       22    1    1    2    0    0 -0.41608304354E-08  0.19342532573E-07  0.12656908080E-07  0.23487090037E-07  0.00000000000E+00 0.  1.
</event>
<event>
 5   0  0.1496444E+06  0.9118800E+02  0.7546771E-02  0.1180000E+00
      -11   -1    0    0    0    0  0.00000000000E+00  0.00000000000E+00  0.34996269501E-01  0.35000000000E-01  0.51099999109E-03 0.  1.
       11   -1    0    0    0    0 -0.00000000000E+00 -0.00000000000E+00 -0.34996269501E-01  0.35000000000E-01  0.51099999109E-03 0. -1.
       22    1    1    2    0    0  0.81120526235E-04 -0.74141473591E-03 -0.34987061700E-01  0.34995010540E-01  0.00000000000E+00 0. -1.
       22    1    1    2    0    0  0.21328001202E-03  0.26728103229E-05  0.28027841271E-02  0.28108885375E-02  0.00000000000E+00 0.  1.
       22    1    1    2    0    0 -0.29440053825E-03  0.73874192558E-03  0.32184277573E-01  0.32194100922E-01  0.00000000000E+00 0.  1.
</event>
<event>
 5   0  0.1496444E+06  0.9118800E+02  0.7546771E-02  0.1180000E+00
      -11   -1    0    0    0    0  0.00000000000E+00  0.00000000000E+00  0.34996269501E-01  0.35000000000E-01  0.51099999109E-03 0.  1.
       11   -1    0    0    0    0 -0.00000000000E+00 -0.00000000000E+00 -0.34996269501E-01  0.35000000000E-01  0.51099999109E-03 0. -1.
       22    1    1    2    0    0 -0.15386888839E-01  0.99439760328E-03  0.29381615919E-01  0.33181689660E-01  0.00000000000E+00 0.  1.
       22    1    1    2    0    0  0.13865251706E-01 -0.29359838748E-02 -0.10157917461E-01  0.17436986360E-01  0.00000000000E+00 0. -1.
       22    1    1    2    0    0  0.15216371327E-02  0.19415862716E-02 -0.19223698457E-01  0.19381323979E-01  0.00000000000E+00 0. -1.
</event>
<event>
 5   0  0.1496444E+06  0.9118800E+02  0.7546771E-02  0.1180000E+00
      -11   -1    0    0    0    0  0.00000000000E+00  0.00000000000E+00  0.34996269501E-01  0.35000000000E-01  0.51099999109E-03 0. -1.
       11   -1    0    0    0    0 -0.00000000000E+00 -0.00000000000E+00 -0.34996269501E-01  0.35000000000E-01  0.51099999109E-03 0.  1.
       22    1    1    2    0    0  0.29576350319E-06 -0.12861226616E-05  0.19291447441E-04  0.19336533607E-04  0.00000000000E+00 0.  1.
       22    1    1    2    0    0  0.17242922279E-02 -0.21129705201E-02 -0.34893485203E-01  0.34999901968E-01  0.00000000000E+00 0.  1.
       22    1    1    2    0    0 -0.17245879914E-02  0.21142566427E-02  0.34874193756E-01  0.34980761499E-01  0.00000000000E+00 0. -1.
</event>
<event>
 5   0  0.1496444E+06  0.9118800E+02  0.7546771E-02  0.1180000E+00
      -11   -1    0    0    0    0  0.00000000000E+00  0.00000000000E+00  0.34996269501E-01  0.35000000000E-01  0.51099999109E-03 0. -1.
       11   -1    0    0    0    0 -0.00000000000E+00 -0.00000000000E+00 -0.34996269501E-01  0.35000000000E-01  0.51099999109E-03 0.  1.
       22    1    1    2    0    0  0.40776156828E-02  0.23897274055E-01 -0.25244665176E-01  0.34999996811E-01  0.00000000000E+00 0.  1.
       22    1    1    2    0    0  0.10047813437E-08  0.31996279962E-08  0.13112600016E-07  0.13534677094E-07  0.00000000000E+00 0. -1.
       22    1    1    2    0    0 -0.40776166876E-02 -0.23897277254E-01  0.25244652064E-01  0.34999989655E-01  0.00000000000E+00 0. -1.
</event>
<event>
 5   0  0.1496444E+06  0.9118800E+02  0.7546771E-02  0.1180000E+00
      -11   -1    0    0    0    0  0.00000000000E+00  0.00000000000E+00  0.34996269501E-01  0.35000000000E-01  0.51099999109E-03 0. -1.
       11   -1    0    0    0    0 -0.00000000000E+00 -0.00000000000E+00 -0.34996269501E-01  0.35000000000E-01  0.51099999109E-03 0.  1.
       22    1    1    2    0    0 -0.82522996924E-03 -0.31083453848E-03 -0.34988885171E-01  0.34999995830E-01  0.00000000000E+00 0.  1.
       22    1    1    2    0    0  0.92777029771E-08  0.91163583812E-08  0.54744020622E-08  0.14112152232E-07  0.00000000000E+00 0. -1.
       22    1    1    2    0    0  0.82522069154E-03  0.31082542212E-03  0.34988879696E-01  0.34999990058E-01  0.00000000000E+00 0. -1.
</event>
<event>
 5   0  0.1496444E+06  0.9118800E+02  0.7546771E-02  0.1180000E+00
      -11   -1    0    0    0    0  0.00000000000E+00  0.00000000000E+00  0.34996269501E-01  0.35000000000E-01  0.51099999109E-03 0. -1.
       11   -1    0    0    0    0 -0.00000000000E+00 -0.00000000000E+00 -0.34996269501E-01  0.35000000000E-01  0.51099999109E-03 0.  1.
       22    1    1    2    0    0 -0.21266703224E-02  0.11257890587E-02  0.34873018787E-01  0.34955937507E-01  0.00000000000E+00 0. -1.
       22    1    1    2    0    0  0.21254363095E-02 -0.11273183657E-02 -0.34917124516E-01  0.34999913010E-01  0.00000000000E+00 0.  1.
       22    1    1    2    0    0  0.12340129013E-05  0.15293070197E-05  0.44105729025E-04  0.44149483583E-04  0.00000000000E+00 0.  1.
</event>
<event>
 5   0  0.1496444E+06  0.9118800E+02  0.7546771E-02  0.1180000E+00
      -11   -1    0    0    0    0  0.00000000000E+00  0.00000000000E+00  0.34996269501E-01  0.35000000000E-01  0.51099999109E-03 0. -1.
       11   -1    0    0    0    0 -0.00000000000E+00 -0.00000000000E+00 -0.34996269501E-01  0.35000000000E-01  0.51099999109E-03 0.  1.
       22    1    1    2    0    0  0.18149024861E-07  0.13149348756E-06  0.16148830244E-06  0.20904161355E-06  0.00000000000E+00 0. -1.
       22    1    1    2    0    0  0.46528334260E-02 -0.23786450773E-02  0.34607521030E-01  0.34999818902E-01  0.00000000000E+00 0. -1.
       22    1    1    2    0    0 -0.46528515751E-02  0.23785135838E-02 -0.34607682519E-01  0.34999972057E-01  0.00000000000E+00 0.  1.
</event>
<event>
 5   0  0.1496444E+06  0.9118800E+02  0.7546771E-02  0.1180000E+00
      -11   -1    0    0    0    0  0.00000000000E+00  0.00000000000E+00  0.34996269501E-01  0.35000000000E-01  0.51099999109E-03 0. -1.
       11   -1    0    0    0    0 -0.00000000000E+00 -0.00000000000E+00 -0.34996269501E-01  0.35000000000E-01  0.51099999109E-03 0. -1.
       22    1    1    2    0    0  0.10468980663E-03  0.17606208807E-03  0.34997228541E-01  0.34997827981E-01  0.00000000000E+00 0. -1.
       22    1    1    2    0    0 -0.10446074341E-03 -0.17624023963E-03 -0.34999390780E-01  0.34999990395E-01  0.00000000000E+00 0. -1.
       22    1    1    2    0    0 -0.22906322129E-06  0.17815155238E-06  0.21622387211E-05  0.21816242165E-05  0.00000000000E+00 0. -1.
</event>
<event>
 5   0  0.1496444E+06  0.9118800E+02  0.7546771E-02  0.1180000E+00
      -11   -1    0    0    0    0  0.00000000000E+00  0.00000000000E+00  0.34996269501E-01  0.35000000000E-01  0.51099999109E-03 0.  1.
       11   -1    0    0    0    0 -0.00000000000E+00 -0.00000000000E+00 -0.34996269501E-01  0.35000000000E-01  0.51099999109E-03 0. -1.
       22    1    1    2    0    0 -0.10214550459E-03 -0.25089134042E-03 -0.28879628364E-03  0.39595891485E-03  0.00000000000E+00 0. -1.
       22    1    1    2    0    0 -0.94322928450E-02  0.28808919271E-02  0.33515535592E-01  0.34936496857E-01  0.00000000000E+00 0.  1.
       22    1    1    2    0    0  0.95344383496E-02 -0.26300005867E-02 -0.33226739309E-01  0.34667544228E-01  0.00000000000E+00 0. -1.
</event>
<event>
 5   0  0.1496444E+06  0.9118800E+02  0.7546771E-02  0.1180000E+00
      -11   -1    0    0    0    0  0.00000000000E+00  0.00000000000E+00  0.34996269501E-01  0.35000000000E-01  0.51099999109E-03 0. -1.
       11   -1    0    0    0    0 -0.00000000000E+00 -0.00000000000E+00 -0.34996269501E-01  0.35000000000E-01  0.51099999109E-03 0.  1.
       22    1    1    2    0    0 -0.52970404667E-04 -0.17659728154E-03  0.35339879593E-02  0.35387940545E-02  0.00000000000E+00 0. -1.
       22    1    1    2    0    0  0.93677376946E-02 -0.31716836562E-01 -0.23673699590E-03  0.33072167686E-01  0.00000000000E+00 0.  1.
       22    1    1    2    0    0 -0.93147672900E-02  0.31893433844E-01 -0.32972509634E-02  0.33389038260E-01  0.00000000000E+00 0. -1.
</event>
<event>
 5   0  0.1496444E+06  0.9118800E+02  0.7546771E-02  0.1180000E+00
      -11   -1    0    0    0    0  0.00000000000E+00  0.00000000000E+00  0.34996269501E-01  0.35000000000E-01  0.51099999109E-03 0.  1.
       11   -1    0    0    0    0 -0.00000000000E+00 -0.00000000000E+00 -0.34996269501E-01  0.35000000000E-01  0.51099999109E-03 0. -1.
       22    1    1    2    0    0 -0.21604234561E-01 -0.24482763716E-01  0.12432851423E-01  0.34938867535E-01  0.00000000000E+00 0.  1.
       22    1    1    2    0    0  0.21487995878E-01  0.24380026174E-01 -0.12070951796E-01  0.34667384101E-01  0.00000000000E+00 0. -1.
       22    1    1    2    0    0  0.11623868253E-03  0.10273754221E-03 -0.36189962717E-03  0.39374836386E-03  0.00000000000E+00 0.  1.
</event>
<event>
 5   0  0.1496444E+06  0.9118800E+02  0.7546771E-02  0.1180000E+00
      -11   -1    0    0    0    0  0.00000000000E+00  0.00000000000E+00  0.34996269501E-01  0.35000000000E-01  0.51099999109E-03 0. -1.
       11   -1    0    0    0    0 -0.00000000000E+00 -0.00000000000E+00 -0.34996269501E-01  0.35000000000E-01  0.51099999109E-03 0. -1.
       22    1    1    2    0    0  0.72029977032E-04  0.11341336322E-03  0.34836847148E-01  0.34837106225E-01  0.00000000000E+00 0. -1.
       22    1    1    2    0    0 -0.17929534930E-03 -0.13892024530E-03 -0.34980818444E-01  0.34981553777E-01  0.00000000000E+00 0. -1.
       22    1    1    2    0    0  0.10726537227E-03  0.25506882087E-04  0.14397129582E-03  0.18133999874E-03  0.00000000000E+00 0.  1.
</event>
<event>
 5   0  0.1496444E+06  0.9118800E+02  0.7546771E-02  0.1180000E+00
      -11   -1    0    0    0    0  0.00000000000E+00  0.00000000000E+00  0.34996269501E-01  0.35000000000E-01  0.51099999109E-03 0. -1.
       11   -1    0    0    0    0 -0.00000000000E+00 -0.00000000000E+00 -0.34996269501E-01  0.35000000000E-01  0.51099999109E-03 0.  1.
       22    1    1    2    0    0 -0.65272019657E-02 -0.30669494201E-01  0.15433297999E-01  0.34948661307E-01  0.00000000000E+00 0. -1.
       22    1    1    2    0    0 -0.50381801845E-05 -0.26117954597E-05 -0.17726222851E-03  0.17735304450E-03  0.00000000000E+00 0.  1.
       22    1    1    2    0    0  0.65322401459E-02  0.30672105996E-01 -0.15256035770E-01  0.34873985648E-01  0.00000000000E+00 0.  1.
</event>
<event>
 5   0  0.1496444E+06  0.9118800E+02  0.7546771E-02  0.1180000E+00
      -11   -1    0    0    0    0  0.00000000000E+00  0.00000000000E+00  0.34996269501E-01  0.35000000000E-01  0.51099999109E-03 0. -1.
       11   -1    0    0    0    0 -0.00000000000E+00 -0.00000000000E+00 -0.34996269501E-01  0.35000000000E-01  0.51099999109E-03 0. -1.
       22    1    1    2    0    0  0.33861225160E-03 -0.93070524880E-03 -0.99400278154E-03  0.14031792640E-02  0.00000000000E+00 0.  1.
       22    1    1    2    0    0 -0.33861225160E-03  0.93070524880E-03 -0.33795989454E-01  0.33810497980E-01  0.00000000000E+00 0. -1.
       22    1    1    2    0    0  0.00000000000E+00 -0.00000000000E+00  0.34789992235E-01  0.34786322756E-01  0.00000000000E+00 0. -1.
</event>
<event>
 5   0  0.1496444E+06  0.9118800E+02  0.7546771E-02  0.1180000E+00
      -11   -1    0    0    0    0  0.00000000000E+00  0.00000000000E+00  0.34996269501E-01  0.35000000000E-01  0.51099999109E-03 0.  1.
       11   -1    0    0    0    0 -0.00000000000E+00 -0.00000000000E+00 -0.34996269501E-01  0.35000000000E-01  0.51099999109E-03 0. -1.
       22    1    1    2    0    0  0.18096435445E-02  0.62950393627E-03  0.34943440328E-01  0.34995929862E-01  0.00000000000E+00 0.  1.
       22    1    1    2    0    0 -0.27184670909E-07 -0.21239417507E-06  0.40729925187E-05  0.40786172104E-05  0.00000000000E+00 0.  1.
       22    1    1    2    0    0 -0.18096163598E-02 -0.62929154210E-03 -0.34947513320E-01  0.34999991521E-01  0.00000000000E+00 0. -1.
</event>
<event>
 5   0  0.1496444E+06  0.9118800E+02  0.7546771E-02  0.1180000E+00
      -11   -1    0    0    0    0  0.00000000000E+00  0.00000000000E+00  0.34996269501E-01  0.35000000000E-01  0.51099999109E-03 0.  1.
       11   -1    0    0    0    0 -0.00000000000E+00 -0.00000000000E+00 -0.34996269501E-01  0.35000000000E-01  0.51099999109E-03 0. -1.
       22    1    1    2    0    0 -0.29730551141E-02 -0.64995784680E-02  0.34131240672E-01  0.34871552400E-01  0.00000000000E+00 0.  1.
       22    1    1    2    0    0  0.22901954149E-03  0.23778704809E-03 -0.11320953911E-04  0.33033436791E-03  0.00000000000E+00 0.  1.
       22    1    1    2    0    0  0.27440355726E-02  0.62617914199E-02 -0.34119919718E-01  0.34798113233E-01  0.00000000000E+00 0. -1.
</event>
<event>
 5   0  0.1496444E+06  0.9118800E+02  0.7546771E-02  0.1180000E+00
      -11   -1    0    0    0    0  0.00000000000E+00  0.00000000000E+00  0.34996269501E-01  0.35000000000E-01  0.51099999109E-03 0. -1.
       11   -1    0    0    0    0 -0.00000000000E+00 -0.00000000000E+00 -0.34996269501E-01  0.35000000000E-01  0.51099999109E-03 0.  1.
       22    1    1    2    0    0  0.38058990082E-02 -0.97672839210E-03  0.28373397080E-01  0.28644170917E-01  0.00000000000E+00 0. -1.
       22    1    1    2    0    0 -0.31008432527E-02  0.11621932702E-04  0.61099486634E-02  0.68517761651E-02  0.00000000000E+00 0.  1.
       22    1    1    2    0    0 -0.70505575555E-03  0.96510645940E-03 -0.34483345744E-01  0.34504052918E-01  0.00000000000E+00 0.  1.
</event>
<event>
 5   0  0.1496444E+06  0.9118800E+02  0.7546771E-02  0.1180000E+00
      -11   -1    0    0    0    0  0.00000000000E+00  0.00000000000E+00  0.34996269501E-01  0.35000000000E-01  0.51099999109E-03 0. -1.
       11   -1    0    0    0    0 -0.00000000000E+00 -0.00000000000E+00 -0.34996269501E-01  0.35000000000E-01  0.51099999109E-03 0. -1.
       22    1    1    2    0    0  0.15724606877E-10  0.95107255860E-09 -0.88393398989E-09  0.12985089809E-08  0.00000000000E+00 0.  1.
       22    1    1    2    0    0  0.49304872087E-03 -0.46155648070E-03  0.34993483029E-01  0.34999999799E-01  0.00000000000E+00 0. -1.
       22    1    1    2    0    0 -0.49304873659E-03  0.46155552963E-03 -0.34993482145E-01  0.34999998903E-01  0.00000000000E+00 0. -1.
</event>
<event>
 5   0  0.1496444E+06  0.9118800E+02  0.7546771E-02  0.1180000E+00
      -11   -1    0    0    0    0  0.00000000000E+00  0.00000000000E+00  0.34996269501E-01  0.35000000000E-01  0.51099999109E-03 0. -1.
       11   -1    0    0    0    0 -0.00000000000E+00 -0.00000000000E+00 -0.34996269501E-01  0.35000000000E-01  0.51099999109E-03 0.  1.
       22    1    1    2    0    0 -0.79742763252E-09 -0.15289261746E-08  0.18724932509E-08  0.25455327637E-08  0.00000000000E+00 0.  1.
       22    1    1    2    0    0  0.18867469161E-01  0.47144103411E-02 -0.29099706703E-01  0.34999999824E-01  0.00000000000E+00 0.  1.
       22    1    1    2    0    0 -0.18867468364E-01 -0.47144088122E-02  0.29099704831E-01  0.34999997631E-01  0.00000000000E+00 0. -1.
</event>
<event>
 5   0  0.1496444E+06  0.9118800E+02  0.7546771E-02  0.1180000E+00
      -11   -1    0    0    0    0  0.00000000000E+00  0.00000000000E+00  0.34996269501E-01  0.35000000000E-01  0.51099999109E-03 0. -1.
       11   -1    0    0    0    0 -0.00000000000E+00 -0.00000000000E+00 -0.34996269501E-01  0.35000000000E-01  0.51099999109E-03 0.  1.
       22    1    1    2    0    0 -0.50695297622E-02 -0.10485451232E-01 -0.33004688960E-01  0.34999347321E-01  0.00000000000E+00 0.  1.
       22    1    1    2    0    0  0.54120627362E-06  0.39789341637E-06  0.26203890201E-04  0.26212498642E-04  0.00000000000E+00 0. -1.
       22    1    1    2    0    0  0.50689885559E-02  0.10485053338E-01  0.32978485069E-01  0.34974440181E-01  0.00000000000E+00 0. -1.
</event>
<event>
 5   0  0.1496444E+06  0.9118800E+02  0.7546771E-02  0.1180000E+00
      -11   -1    0    0    0    0  0.00000000000E+00  0.00000000000E+00  0.34996269501E-01  0.35000000000E-01  0.51099999109E-03 0. -1.
       11   -1    0    0    0    0 -0.00000000000E+00 -0.00000000000E+00 -0.34996269501E-01  0.35000000000E-01  0.51099999109E-03 0. -1.
       22    1    1    2    0    0  0.16994393844E-06  0.21408180711E-06  0.41571011973E-06  0.49752071916E-06  0.00000000000E+00 0.  1.
       22    1    1    2    0    0 -0.16995721089E-06 -0.21409852668E-06  0.35001279176E-01  0.34999543375E-01  0.00000000000E+00 0. -1.
       22    1    1    2    0    0  0.13272452518E-10  0.16719576149E-10 -0.35001694886E-01  0.34999959104E-01  0.00000000000E+00 0. -1.
</event>
<event>
 5   0  0.1496444E+06  0.9118800E+02  0.7546771E-02  0.1180000E+00
      -11   -1    0    0    0    0  0.00000000000E+00  0.00000000000E+00  0.34996269501E-01  0.35000000000E-01  0.51099999109E-03 0.  1.
       11   -1    0    0    0    0 -0.00000000000E+00 -0.00000000000E+00 -0.34996269501E-01  0.35000000000E-01  0.51099999109E-03 0. -1.
       22    1    1    2    0    0 -0.58838823297E-02  0.11054399420E-01  0.28028825187E-01  0.30699101928E-01  0.00000000000E+00 0.  1.
       22    1    1    2    0    0 -0.32474425273E-02  0.40153692455E-02 -0.18625913851E-01  0.19328573148E-01  0.00000000000E+00 0.  1.
       22    1    1    2    0    0  0.91313248570E-02 -0.15069768666E-01 -0.94029113365E-02  0.19972324924E-01  0.00000000000E+00 0. -1.
</event>
<event>
 5   0  0.1496444E+06  0.9118800E+02  0.7546771E-02  0.1180000E+00
      -11   -1    0    0    0    0  0.00000000000E+00  0.00000000000E+00  0.34996269501E-01  0.35000000000E-01  0.51099999109E-03 0.  1.
       11   -1    0    0    0    0 -0.00000000000E+00 -0.00000000000E+00 -0.34996269501E-01  0.35000000000E-01  0.51099999109E-03 0. -1.
       22    1    1    2    0    0  0.16522763987E-03  0.19841640754E-03 -0.64213150253E-03  0.69209978348E-03  0.00000000000E+00 0.  1.
       22    1    1    2    0    0  0.21005134272E-02 -0.40060959780E-02 -0.34042349108E-01  0.34341556377E-01  0.00000000000E+00 0. -1.
       22    1    1    2    0    0 -0.22657410671E-02  0.38076795705E-02  0.34684480610E-01  0.34966343839E-01  0.00000000000E+00 0.  1.
</event>
<event>
 5   0  0.1496444E+06  0.9118800E+02  0.7546771E-02  0.1180000E+00
      -11   -1    0    0    0    0  0.00000000000E+00  0.00000000000E+00  0.34996269501E-01  0.35000000000E-01  0.51099999109E-03 0.  1.
       11   -1    0    0    0    0 -0.00000000000E+00 -0.00000000000E+00 -0.34996269501E-01  0.35000000000E-01  0.51099999109E-03 0. -1.
       22    1    1    2    0    0 -0.14209723376E-02  0.35867852035E-04 -0.34971123833E-01  0.34999999300E-01  0.00000000000E+00 0. -1.
       22    1    1    2    0    0 -0.13406089451E-07  0.43932646937E-08  0.13416359546E-06  0.13490327778E-06  0.00000000000E+00 0. -1.
       22    1    1    2    0    0  0.14209857437E-02 -0.35872245299E-04  0.34970989669E-01  0.34999865796E-01  0.00000000000E+00 0.  1.
</event>
<event>
 5   0  0.1496444E+06  0.9118800E+02  0.7546771E-02  0.1180000E+00
      -11   -1    0    0    0    0  0.00000000000E+00  0.00000000000E+00  0.34996269501E-01  0.35000000000E-01  0.51099999109E-03 0.  1.
       11   -1    0    0    0    0 -0.00000000000E+00 -0.00000000000E+00 -0.34996269501E-01  0.35000000000E-01  0.51099999109E-03 0. -1.
       22    1    1    2    0    0  0.10740379440E-01 -0.11990318938E-01 -0.31078553080E-01  0.34999999433E-01  0.00000000000E+00 0. -1.
       22    1    1    2    0    0 -0.10740375737E-01  0.11990317170E-01  0.31078551266E-01  0.34999996081E-01  0.00000000000E+00 0.  1.
       22    1    1    2    0    0 -0.37034010390E-08  0.17676365420E-08  0.18136054949E-08  0.44865223828E-08  0.00000000000E+00 0. -1.
</event>
<event>
 5   0  0.1496444E+06  0.9118800E+02  0.7546771E-02  0.1180000E+00
      -11   -1    0    0    0    0  0.00000000000E+00  0.00000000000E+00  0.34996269501E-01  0.35000000000E-01  0.51099999109E-03 0. -1.
       11   -1    0    0    0    0 -0.00000000000E+00 -0.00000000000E+00 -0.34996269501E-01  0.35000000000E-01  0.51099999109E-03 0.  1.
       22    1    1    2    0    0 -0.20473876821E-02  0.96770680092E-03 -0.34926106213E-01  0.34999444967E-01  0.00000000000E+00 0.  1.
       22    1    1    2    0    0 -0.75901147771E-06 -0.86515908794E-06  0.63211747814E-07  0.11526466917E-05  0.00000000000E+00 0. -1.
       22    1    1    2    0    0  0.20481466936E-02 -0.96684164184E-03  0.34926043002E-01  0.34999402386E-01  0.00000000000E+00 0. -1.
</event>
<event>
 5   0  0.1496444E+06  0.9118800E+02  0.7546771E-02  0.1180000E+00
      -11   -1    0    0    0    0  0.00000000000E+00  0.00000000000E+00  0.34996269501E-01  0.35000000000E-01  0.51099999109E-03 0. -1.
       11   -1    0    0    0    0 -0.00000000000E+00 -0.00000000000E+00 -0.34996269501E-01  0.35000000000E-01  0.51099999109E-03 0.  1.
       22    1    1    2    0    0  0.19691276237E-01 -0.38653480319E-02 -0.28675995007E-01  0.34999999498E-01  0.00000000000E+00 0.  1.
       22    1    1    2    0    0  0.13864315110E-09 -0.86084490852E-09  0.52919197674E-10  0.87354239814E-09  0.00000000000E+00 0. -1.
       22    1    1    2    0    0 -0.19691276375E-01  0.38653488927E-02  0.28675994954E-01  0.34999999628E-01  0.00000000000E+00 0. -1.
</event>
<event>
 5   0  0.1496444E+06  0.9118800E+02  0.7546771E-02  0.1180000E+00
      -11   -1    0    0    0    0  0.00000000000E+00  0.00000000000E+00  0.34996269501E-01  0.35000000000E-01  0.51099999109E-03 0. -1.
       11   -1    0    0    0    0 -0.00000000000E+00 -0.00000000000E+00 -0.34996269501E-01  0.35000000000E-01  0.51099999109E-03 0.  1.
       22    1    1    2    0    0  0.24181186655E-05  0.59192550285E-06  0.95948849893E-04  0.95981141218E-04  0.00000000000E+00 0.  1.
       22    1    1    2    0    0  0.12055548918E-02  0.15097993579E-02  0.34850539765E-01  0.34904053900E-01  0.00000000000E+00 0. -1.
       22    1    1    2    0    0 -0.12079730104E-02 -0.15103912834E-02 -0.34946488615E-01  0.34999964959E-01  0.00000000000E+00 0.  1.
</event>
<event>
 5   0  0.1496444E+06  0.9118800E+02  0.7546771E-02  0.1180000E+00
      -11   -1    0    0    0    0  0.00000000000E+00  0.00000000000E+00  0.34996269501E-01  0.35000000000E-01  0.51099999109E-03 0.  1.
       11   -1    0    0    0    0 -0.00000000000E+00 -0.00000000000E+00 -0.34996269501E-01  0.35000000000E-01  0.51099999109E-03 0. -1.
       22    1    1    2    0    0  0.22560338176E-01 -0.26644178259E-01 -0.24736422358E-02  0.34999999995E-01  0.00000000000E+00 0.  1.
       22    1    1    2    0    0 -0.35357711276E-09  0.39298562412E-09  0.14058557175E-09  0.54700893815E-09  0.00000000000E+00 0. -1.
       22    1    1    2    0    0 -0.22560337823E-01  0.26644177866E-01  0.24736420952E-02  0.34999999458E-01  0.00000000000E+00 0. -1.
</event>
<event>
 5   0  0.1496444E+06  0.9118800E+02  0.7546771E-02  0.1180000E+00
      -11   -1    0    0    0    0  0.00000000000E+00  0.00000000000E+00  0.34996269501E-01  0.35000000000E-01  0.51099999109E-03 0. -1.
       11   -1    0    0    0    0 -0.00000000000E+00 -0.00000000000E+00 -0.34996269501E-01  0.35000000000E-01  0.51099999109E-03 0.  1.
       22    1    1    2    0    0  0.29412780551E-01 -0.17730253087E-03  0.76881481671E-02  0.30401492039E-01  0.00000000000E+00 0. -1.
       22    1    1    2    0    0 -0.28898290177E-01 -0.46815356645E-05 -0.14798660605E-01  0.32467084143E-01  0.00000000000E+00 0.  1.
       22    1    1    2    0    0 -0.51449037431E-03  0.18198406653E-03  0.71105124377E-02  0.71314238180E-02  0.00000000000E+00 0. -1.
</event>
<event>
 5   0  0.1496444E+06  0.9118800E+02  0.7546771E-02  0.1180000E+00
      -11   -1    0    0    0    0  0.00000000000E+00  0.00000000000E+00  0.34996269501E-01  0.35000000000E-01  0.51099999109E-03 0. -1.
       11   -1    0    0    0    0 -0.00000000000E+00 -0.00000000000E+00 -0.34996269501E-01  0.35000000000E-01  0.51099999109E-03 0.  1.
       22    1    1    2    0    0  0.39938187495E-02  0.34450017231E-01 -0.45428735547E-02  0.34977020678E-01  0.00000000000E+00 0. -1.
       22    1    1    2    0    0 -0.39853067569E-02 -0.34444761120E-01  0.44840135938E-02  0.34963275254E-01  0.00000000000E+00 0.  1.
       22    1    1    2    0    0 -0.85119926385E-05 -0.52561104356E-05  0.58859960870E-04  0.59704067777E-04  0.00000000000E+00 0. -1.
</event>
<event>
 5   0  0.1496444E+06  0.9118800E+02  0.7546771E-02  0.1180000E+00
      -11   -1    0    0    0    0  0.00000000000E+00  0.00000000000E+00  0.34996269501E-01  0.35000000000E-01  0.51099999109E-03 0. -1.
       11   -1    0    0    0    0 -0.00000000000E+00 -0.00000000000E+00 -0.34996269501E-01  0.35000000000E-01  0.51099999109E-03 0.  1.
       22    1    1    2    0    0  0.49787679899E-05  0.62330759344E-05 -0.66655485946E-06  0.80052271475E-05  0.00000000000E+00 0.  1.
       22    1    1    2    0    0  0.21098331507E-02  0.28656692359E-02 -0.34813858933E-01  0.34995260107E-01  0.00000000000E+00 0.  1.
       22    1    1    2    0    0 -0.21148119186E-02 -0.28719023119E-02  0.34814525488E-01  0.34996734666E-01  0.00000000000E+00 0. -1.
</event>
<event>
 5   0  0.1496444E+06  0.9118800E+02  0.7546771E-02  0.1180000E+00
      -11   -1    0    0    0    0  0.00000000000E+00  0.00000000000E+00  0.34996269501E-01  0.35000000000E-01  0.51099999109E-03 0.  1.
       11   -1    0    0    0    0 -0.00000000000E+00 -0.00000000000E+00 -0.34996269501E-01  0.35000000000E-01  0.51099999109E-03 0. -1.
       22    1    1    2    0    0  0.55384173260E-06  0.14370919750E-06  0.13260377604E-04  0.13272716648E-04  0.00000000000E+00 0.  1.
       22    1    1    2    0    0  0.11369998062E-02  0.11446232815E-02 -0.34962770899E-01  0.34999975427E-01  0.00000000000E+00 0. -1.
       22    1    1    2    0    0 -0.11375536480E-02 -0.11447669907E-02  0.34949510521E-01  0.34986751856E-01  0.00000000000E+00 0.  1.
</event>
<event>
 5   0  0.1496444E+06  0.9118800E+02  0.7546771E-02  0.1180000E+00
      -11   -1    0    0    0    0  0.00000000000E+00  0.00000000000E+00  0.34996269501E-01  0.35000000000E-01  0.51099999109E-03 0.  1.
       11   -1    0    0    0    0 -0.00000000000E+00 -0.00000000000E+00 -0.34996269501E-01  0.35000000000E-01  0.51099999109E-03 0. -1.
       22    1    1    2    0    0 -0.19923954562E-05  0.23405003715E-04  0.12754319232E-03  0.12968820203E-03  0.00000000000E+00 0. -1.
       22    1    1    2    0    0  0.13678844517E-02  0.46500513326E-03  0.34841376369E-01  0.34871318371E-01  0.00000000000E+00 0.  1.
       22    1    1    2    0    0 -0.13658920563E-02 -0.48841013697E-03 -0.34968919562E-01  0.34998993427E-01  0.00000000000E+00 0. -1.
</event>
<event>
 5   0  0.1496444E+06  0.9118800E+02  0.7546771E-02  0.1180000E+00
      -11   -1    0    0    0    0  0.00000000000E+00  0.00000000000E+00  0.34996269501E-01  0.35000000000E-01  0.51099999109E-03 0.  1.
       11   -1    0    0    0    0 -0.00000000000E+00 -0.00000000000E+00 -0.34996269501E-01  0.35000000000E-01  0.51099999109E-03 0. -1.
       22    1    1    2    0    0  0.11225867977E-03 -0.10649837033E-04  0.10921556126E-02  0.10979614348E-02  0.00000000000E+00 0.  1.
       22    1    1    2    0    0 -0.15597818281E-01  0.24361434248E-01 -0.19305442256E-01  0.34777456986E-01  0.00000000000E+00 0. -1.
       22    1    1    2    0    0  0.15485559601E-01 -0.24350784411E-01  0.18213286643E-01  0.34124581579E-01  0.00000000000E+00 0.  1.
</event>
<event>
 5   0  0.1496444E+06  0.9118800E+02  0.7546771E-02  0.1180000E+00
      -11   -1    0    0    0    0  0.00000000000E+00  0.00000000000E+00  0.34996269501E-01  0.35000000000E-01  0.51099999109E-03 0. -1.
       11   -1    0    0    0    0 -0.00000000000E+00 -0.00000000000E+00 -0.34996269501E-01  0.35000000000E-01  0.51099999109E-03 0.  1.
       22    1    1    2    0    0  0.29671706752E-02 -0.13397867436E-02 -0.34422851784E-01  0.34576463892E-01  0.00000000000E+00 0.  1.
       22    1    1    2    0    0 -0.30059374146E-02  0.14776067000E-02  0.34830653408E-01  0.34991333186E-01  0.00000000000E+00 0. -1.
       22    1    1    2    0    0  0.38766739381E-04 -0.13781995635E-03 -0.40780162472E-03  0.43220292176E-03  0.00000000000E+00 0.  1.
</event>
<event>
 5   0  0.1496444E+06  0.9118800E+02  0.7546771E-02  0.1180000E+00
      -11   -1    0    0    0    0  0.00000000000E+00  0.00000000000E+00  0.34996269501E-01  0.35000000000E-01  0.51099999109E-03 0. -1.
       11   -1    0    0    0    0 -0.00000000000E+00 -0.00000000000E+00 -0.34996269501E-01  0.35000000000E-01  0.51099999109E-03 0.  1.
       22    1    1    2    0    0  0.52224963354E-03 -0.10993514803E-01  0.33212133866E-01  0.34988225853E-01  0.00000000000E+00 0. -1.
       22    1    1    2    0    0 -0.32827367190E-05  0.73294277774E-05  0.12038276489E-04  0.14471246412E-04  0.00000000000E+00 0.  1.
       22    1    1    2    0    0 -0.51896689682E-03  0.10986185375E-01 -0.33224172143E-01  0.34997302900E-01  0.00000000000E+00 0.  1.
</event>
<event>
 5   0  0.1496444E+06  0.9118800E+02  0.7546771E-02  0.1180000E+00
      -11   -1    0    0    0    0  0.00000000000E+00  0.00000000000E+00  0.34996269501E-01  0.35000000000E-01  0.51099999109E-03 0.  1.
       11   -1    0    0    0    0 -0.00000000000E+00 -0.00000000000E+00 -0.34996269501E-01  0.35000000000E-01  0.51099999109E-03 0.  1.
       22    1    1    2    0    0 -0.15097289110E-06  0.12351420075E-07  0.67701423400E-06  0.69375330231E-06  0.00000000000E+00 0. -1.
       22    1    1    2    0    0 -0.21729115700E-03  0.17517252125E-03 -0.34998878233E-01  0.34999991120E-01  0.00000000000E+00 0.  1.
       22    1    1    2    0    0  0.21744212989E-03 -0.17518487267E-03  0.34998201218E-01  0.34999315127E-01  0.00000000000E+00 0.  1.
</event>
<event>
 5   0  0.1496444E+06  0.9118800E+02  0.7546771E-02  0.1180000E+00
      -11   -1    0    0    0    0  0.00000000000E+00  0.00000000000E+00  0.34996269501E-01  0.35000000000E-01  0.51099999109E-03 0.  1.
       11   -1    0    0    0    0 -0.00000000000E+00 -0.00000000000E+00 -0.34996269501E-01  0.35000000000E-01  0.51099999109E-03 0. -1.
       22    1    1    2    0    0 -0.21560907328E-01  0.22322405412E-01 -0.16181372763E-01  0.34999990467E-01  0.00000000000E+00 0. -1.
       22    1    1    2    0    0  0.21560904406E-01 -0.22322402804E-01  0.16181331203E-01  0.34999967790E-01  0.00000000000E+00 0.  1.
       22    1    1    2    0    0  0.29216371464E-08 -0.26079267286E-08  0.41559632946E-07  0.41743746071E-07  0.00000000000E+00 0.  1.
</event>
<event>
 5   0  0.1496444E+06  0.9118800E+02  0.7546771E-02  0.1180000E+00
      -11   -1    0    0    0    0  0.00000000000E+00  0.00000000000E+00  0.34996269501E-01  0.35000000000E-01  0.51099999109E-03 0. -1.
       11   -1    0    0    0    0 -0.00000000000E+00 -0.00000000000E+00 -0.34996269501E-01  0.35000000000E-01  0.51099999109E-03 0. -1.
       22    1    1    2    0    0  0.35267139179E-10  0.13934257806E-09 -0.35000791663E-01  0.34999983531E-01  0.00000000000E+00 0. -1.
       22    1    1    2    0    0  0.54277084172E-06  0.21445200870E-05  0.70886536044E-04  0.70921044542E-04  0.00000000000E+00 0.  1.
       22    1    1    2    0    0 -0.54280610886E-06 -0.21446594296E-05  0.34929905127E-01  0.34929095425E-01  0.00000000000E+00 0. -1.
</event>
<event>
 5   0  0.1496444E+06  0.9118800E+02  0.7546771E-02  0.1180000E+00
      -11   -1    0    0    0    0  0.00000000000E+00  0.00000000000E+00  0.34996269501E-01  0.35000000000E-01  0.51099999109E-03 0. -1.
       11   -1    0    0    0    0 -0.00000000000E+00 -0.00000000000E+00 -0.34996269501E-01  0.35000000000E-01  0.51099999109E-03 0.  1.
       22    1    1    2    0    0 -0.13210087206E-06 -0.34693642912E-06  0.11425509887E-06  0.38841955907E-06  0.00000000000E+00 0. -1.
       22    1    1    2    0    0  0.65887450119E-02 -0.73842967188E-02  0.33571438444E-01  0.34999726829E-01  0.00000000000E+00 0. -1.
       22    1    1    2    0    0 -0.65886129110E-02  0.73846436552E-02 -0.33571552699E-01  0.34999884752E-01  0.00000000000E+00 0.  1.
</event>
<event>
 5   0  0.1496444E+06  0.9118800E+02  0.7546771E-02  0.1180000E+00
      -11   -1    0    0    0    0  0.00000000000E+00  0.00000000000E+00  0.34996269501E-01  0.35000000000E-01  0.51099999109E-03 0. -1.
       11   -1    0    0    0    0 -0.00000000000E+00 -0.00000000000E+00 -0.34996269501E-01  0.35000000000E-01  0.51099999109E-03 0.  1.
       22    1    1    2    0    0  0.15755364626E-02  0.12621473726E-02 -0.34941105151E-01  0.34999373713E-01  0.00000000000E+00 0.  1.
       22    1    1    2    0    0 -0.15798134345E-02 -0.12615555463E-02  0.34932906273E-01  0.34991359985E-01  0.00000000000E+00 0. -1.
       22    1    1    2    0    0  0.42769719279E-05 -0.59182634275E-06  0.81988779602E-05  0.92663016948E-05  0.00000000000E+00 0.  1.
</event>
<event>
 5   0  0.1496444E+06  0.9118800E+02  0.7546771E-02  0.1180000E+00
      -11   -1    0    0    0    0  0.00000000000E+00  0.00000000000E+00  0.34996269501E-01  0.35000000000E-01  0.51099999109E-03 0. -1.
       11   -1    0    0    0    0 -0.00000000000E+00 -0.00000000000E+00 -0.34996269501E-01  0.35000000000E-01  0.51099999109E-03 0. -1.
       22    1    1    2    0    0  0.76270982464E-04  0.97562271686E-04 -0.34999680542E-01  0.34999899624E-01  0.00000000000E+00 0. -1.
       22    1    1    2    0    0 -0.76313912979E-04 -0.96235922580E-04  0.34995472853E-01  0.34995688382E-01  0.00000000000E+00 0. -1.
       22    1    1    2    0    0  0.42930514869E-07 -0.13263491060E-05  0.42076889809E-05  0.44119940548E-05  0.00000000000E+00 0. -1.
</event>
<event>
 5   0  0.1496444E+06  0.9118800E+02  0.7546771E-02  0.1180000E+00
      -11   -1    0    0    0    0  0.00000000000E+00  0.00000000000E+00  0.34996269501E-01  0.35000000000E-01  0.51099999109E-03 0. -1.
       11   -1    0    0    0    0 -0.00000000000E+00 -0.00000000000E+00 -0.34996269501E-01  0.35000000000E-01  0.51099999109E-03 0.  1.
       22    1    1    2    0    0  0.29608363575E-05  0.28794336158E-06  0.30740484191E-05  0.42777607458E-05  0.00000000000E+00 0. -1.
       22    1    1    2    0    0  0.82215419202E-03 -0.18881279989E-02 -0.34938729570E-01  0.34999368406E-01  0.00000000000E+00 0.  1.
       22    1    1    2    0    0 -0.82511502838E-03  0.18878400556E-02  0.34935655522E-01  0.34996353833E-01  0.00000000000E+00 0. -1.
</event>
<event>
 5   0  0.1496444E+06  0.9118800E+02  0.7546771E-02  0.1180000E+00
      -11   -1    0    0    0    0  0.00000000000E+00  0.00000000000E+00  0.34996269501E-01  0.35000000000E-01  0.51099999109E-03 0. -1.
       11   -1    0    0    0    0 -0.00000000000E+00 -0.00000000000E+00 -0.34996269501E-01  0.35000000000E-01  0.51099999109E-03 0.  1.
       22    1    1    2    0    0 -0.28807917006E-02 -0.16043868448E-02 -0.55788070933E-02  0.64804403056E-02  0.00000000000E+00 0. -1.
       22    1    1    2    0    0 -0.20211913874E-02 -0.15522748844E-01  0.29676387388E-01  0.33551883922E-01  0.00000000000E+00 0. -1.
       22    1    1    2    0    0  0.49019830880E-02  0.17127135689E-01 -0.24097580295E-01  0.29967675772E-01  0.00000000000E+00 0.  1.
</event>
<event>
 5   0  0.1496444E+06  0.9118800E+02  0.7546771E-02  0.1180000E+00
      -11   -1    0    0    0    0  0.00000000000E+00  0.00000000000E+00  0.34996269501E-01  0.35000000000E-01  0.51099999109E-03 0.  1.
       11   -1    0    0    0    0 -0.00000000000E+00 -0.00000000000E+00 -0.34996269501E-01  0.35000000000E-01  0.51099999109E-03 0. -1.
       22    1    1    2    0    0  0.27983985909E-02 -0.17556623738E-02  0.23497073298E-01  0.23728165513E-01  0.00000000000E+00 0.  1.
       22    1    1    2    0    0 -0.24353985608E-02  0.34261673087E-02 -0.34692706508E-01  0.34946440068E-01  0.00000000000E+00 0. -1.
       22    1    1    2    0    0 -0.36300003010E-03 -0.16705049350E-02  0.11195633210E-01  0.11325394419E-01  0.00000000000E+00 0.  1.
</event>
<event>
 5   0  0.1496444E+06  0.9118800E+02  0.7546771E-02  0.1180000E+00
      -11   -1    0    0    0    0  0.00000000000E+00  0.00000000000E+00  0.34996269501E-01  0.35000000000E-01  0.51099999109E-03 0. -1.
       11   -1    0    0    0    0 -0.00000000000E+00 -0.00000000000E+00 -0.34996269501E-01  0.35000000000E-01  0.51099999109E-03 0.  1.
       22    1    1    2    0    0 -0.83711026409E-02 -0.19918974409E-01 -0.27534635743E-01  0.34999958092E-01  0.00000000000E+00 0.  1.
       22    1    1    2    0    0  0.83710826242E-02  0.19918996043E-01  0.27534283840E-01  0.34999688773E-01  0.00000000000E+00 0. -1.
       22    1    1    2    0    0  0.20016731823E-07 -0.21634293042E-07  0.35190300656E-06  0.35313515574E-06  0.00000000000E+00 0.  1.
</event>
<event>
 5   0  0.1496444E+06  0.9118800E+02  0.7546771E-02  0.1180000E+00
      -11   -1    0    0    0    0  0.00000000000E+00  0.00000000000E+00  0.34996269501E-01  0.35000000000E-01  0.51099999109E-03 0. -1.
       11   -1    0    0    0    0 -0.00000000000E+00 -0.00000000000E+00 -0.34996269501E-01  0.35000000000E-01  0.51099999109E-03 0.  1.
       22    1    1    2    0    0 -0.16564771988E-01 -0.62948580885E-02 -0.15266051110E-01  0.23389511022E-01  0.00000000000E+00 0.  1.
       22    1    1    2    0    0  0.15551230763E-01  0.51635732290E-02  0.28722875310E-01  0.33068214841E-01  0.00000000000E+00 0. -1.
       22    1    1    2    0    0  0.10135412251E-02  0.11312848596E-02 -0.13456824200E-01  0.13542274137E-01  0.00000000000E+00 0.  1.
</event>
<event>
 5   0  0.1496444E+06  0.9118800E+02  0.7546771E-02  0.1180000E+00
      -11   -1    0    0    0    0  0.00000000000E+00  0.00000000000E+00  0.34996269501E-01  0.35000000000E-01  0.51099999109E-03 0. -1.
       11   -1    0    0    0    0 -0.00000000000E+00 -0.00000000000E+00 -0.34996269501E-01  0.35000000000E-01  0.51099999109E-03 0.  1.
       22    1    1    2    0    0 -0.86938108227E-03 -0.10713769498E-01 -0.33308537817E-01  0.34999991026E-01  0.00000000000E+00 0.  1.
       22    1    1    2    0    0  0.86930336217E-03  0.10713744011E-01  0.33308381802E-01  0.34999832819E-01  0.00000000000E+00 0. -1.
       22    1    1    2    0    0  0.77720100127E-07  0.25486977701E-07  0.15601466077E-06  0.17615497259E-06  0.00000000000E+00 0.  1.
</event>
<event>
 5   0  0.1496444E+06  0.9118800E+02  0.7546771E-02  0.1180000E+00
      -11   -1    0    0    0    0  0.00000000000E+00  0.00000000000E+00  0.34996269501E-01  0.35000000000E-01  0.51099999109E-03 0. -1.
       11   -1    0    0    0    0 -0.00000000000E+00 -0.00000000000E+00 -0.34996269501E-01  0.35000000000E-01  0.51099999109E-03 0.  1.
       22    1    1    2    0    0 -0.21366921548E-03 -0.12925244485E-02 -0.25539100247E-01  0.25572679081E-01  0.00000000000E+00 0.  1.
       22    1    1    2    0    0  0.75215905335E-03 -0.13864379693E-02 -0.93244142916E-02  0.94568840198E-02  0.00000000000E+00 0.  1.
       22    1    1    2    0    0 -0.53848983787E-03  0.26789624178E-02  0.34863514538E-01  0.34970436899E-01  0.00000000000E+00 0. -1.
</event>
<event>
 5   0  0.1496444E+06  0.9118800E+02  0.7546771E-02  0.1180000E+00
      -11   -1    0    0    0    0  0.00000000000E+00  0.00000000000E+00  0.34996269501E-01  0.35000000000E-01  0.51099999109E-03 0.  1.
       11   -1    0    0    0    0 -0.00000000000E+00 -0.00000000000E+00 -0.34996269501E-01  0.35000000000E-01  0.51099999109E-03 0. -1.
       22    1    1    2    0    0  0.29089087700E-02  0.15765179267E-02 -0.34808432697E-01  0.34965327766E-01  0.00000000000E+00 0. -1.
       22    1    1    2    0    0 -0.31974136114E-02 -0.13857057080E-02  0.33518741869E-01  0.33699401932E-01  0.00000000000E+00 0.  1.
       22    1    1    2    0    0  0.28850484138E-03 -0.19081221868E-03  0.12896908277E-02  0.13352703013E-02  0.00000000000E+00 0. -1.
</event>
<event>
 5   0  0.1496444E+06  0.9118800E+02  0.7546771E-02  0.1180000E+00
      -11   -1    0    0    0    0  0.00000000000E+00  0.00000000000E+00  0.34996269501E-01  0.35000000000E-01  0.51099999109E-03 0. -1.
       11   -1    0    0    0    0 -0.00000000000E+00 -0.00000000000E+00 -0.34996269501E-01  0.35000000000E-01  0.51099999109E-03 0.  1.
       22    1    1    2    0    0 -0.72762429289E-03 -0.21734280774E-03  0.36287936128E-03  0.84163913795E-03  0.00000000000E+00 0.  1.
       22    1    1    2    0    0 -0.48463433649E-02  0.52280113461E-02 -0.33978014649E-01  0.34717785444E-01  0.00000000000E+00 0.  1.
       22    1    1    2    0    0  0.55739676578E-02 -0.50106685384E-02  0.33615135288E-01  0.34440575418E-01  0.00000000000E+00 0. -1.
</event>
<event>
 5   0  0.1496444E+06  0.9118800E+02  0.7546771E-02  0.1180000E+00
      -11   -1    0    0    0    0  0.00000000000E+00  0.00000000000E+00  0.34996269501E-01  0.35000000000E-01  0.51099999109E-03 0. -1.
       11   -1    0    0    0    0 -0.00000000000E+00 -0.00000000000E+00 -0.34996269501E-01  0.35000000000E-01  0.51099999109E-03 0.  1.
       22    1    1    2    0    0  0.36898381833E-06  0.18642857828E-06  0.10680286364E-05  0.11452466290E-05  0.00000000000E+00 0.  1.
       22    1    1    2    0    0 -0.14998137059E-03 -0.34649035065E-02 -0.34827715456E-01  0.34999968780E-01  0.00000000000E+00 0.  1.
       22    1    1    2    0    0  0.14961238677E-03  0.34647170780E-02  0.34826647428E-01  0.34998885973E-01  0.00000000000E+00 0. -1.
</event>
<event>
 5   0  0.1496444E+06  0.9118800E+02  0.7546771E-02  0.1180000E+00
      -11   -1    0    0    0    0  0.00000000000E+00  0.00000000000E+00  0.34996269501E-01  0.35000000000E-01  0.51099999109E-03 0.  1.
       11   -1    0    0    0    0 -0.00000000000E+00 -0.00000000000E+00 -0.34996269501E-01  0.35000000000E-01  0.51099999109E-03 0. -1.
       22    1    1    2    0    0  0.70353648637E-02  0.26826550135E-01  0.85917250803E-02  0.29034081538E-01  0.00000000000E+00 0. -1.
       22    1    1    2    0    0 -0.67288185423E-02 -0.26473024299E-01  0.46569891244E-02  0.27708943723E-01  0.00000000000E+00 0.  1.
       22    1    1    2    0    0 -0.30654632143E-03 -0.35352583566E-03 -0.13248714205E-01  0.13256974739E-01  0.00000000000E+00 0. -1.
</event>
<event>
 5   0  0.1496444E+06  0.9118800E+02  0.7546771E-02  0.1180000E+00
      -11   -1    0    0    0    0  0.00000000000E+00  0.00000000000E+00  0.34996269501E-01  0.35000000000E-01  0.51099999109E-03 0.  1.
       11   -1    0    0    0    0 -0.00000000000E+00 -0.00000000000E+00 -0.34996269501E-01  0.35000000000E-01  0.51099999109E-03 0. -1.
       22    1    1    2    0    0  0.18039320134E-07  0.54254611077E-09  0.13035179131E-05  0.13036428426E-05  0.00000000000E+00 0. -1.
       22    1    1    2    0    0  0.33073923682E-01  0.65875944055E-03  0.11428931954E-01  0.34999126808E-01  0.00000000000E+00 0.  1.
       22    1    1    2    0    0 -0.33073941721E-01 -0.65875998310E-03 -0.11430235472E-01  0.34999569549E-01  0.00000000000E+00 0. -1.
</event>
<event>
 5   0  0.1496444E+06  0.9118800E+02  0.7546771E-02  0.1180000E+00
      -11   -1    0    0    0    0  0.00000000000E+00  0.00000000000E+00  0.34996269501E-01  0.35000000000E-01  0.51099999109E-03 0. -1.
       11   -1    0    0    0    0 -0.00000000000E+00 -0.00000000000E+00 -0.34996269501E-01  0.35000000000E-01  0.51099999109E-03 0.  1.
       22    1    1    2    0    0  0.10663587207E-02 -0.72572700712E-03  0.34970194585E-01  0.34993975338E-01  0.00000000000E+00 0. -1.
       22    1    1    2    0    0 -0.10664649023E-02  0.72570312798E-03 -0.34976219433E-01  0.34999998832E-01  0.00000000000E+00 0.  1.
       22    1    1    2    0    0  0.10618161860E-06  0.23879138967E-07  0.60248473973E-05  0.60258303087E-05  0.00000000000E+00 0.  1.
</event>
<event>
 5   0  0.1496444E+06  0.9118800E+02  0.7546771E-02  0.1180000E+00
      -11   -1    0    0    0    0  0.00000000000E+00  0.00000000000E+00  0.34996269501E-01  0.35000000000E-01  0.51099999109E-03 0. -1.
       11   -1    0    0    0    0 -0.00000000000E+00 -0.00000000000E+00 -0.34996269501E-01  0.35000000000E-01  0.51099999109E-03 0.  1.
       22    1    1    2    0    0 -0.75142518152E-02 -0.20279738973E-01  0.27518127435E-01  0.34999701866E-01  0.00000000000E+00 0. -1.
       22    1    1    2    0    0  0.75142003112E-02  0.20280061124E-01 -0.27518228189E-01  0.34999956688E-01  0.00000000000E+00 0.  1.
       22    1    1    2    0    0  0.51503938967E-07 -0.32215094951E-06  0.10075323424E-06  0.34144560945E-06  0.00000000000E+00 0.  1.
</event>
<event>
 5   0  0.1496444E+06  0.9118800E+02  0.7546771E-02  0.1180000E+00
      -11   -1    0    0    0    0  0.00000000000E+00  0.00000000000E+00  0.34996269501E-01  0.35000000000E-01  0.51099999109E-03 0.  1.
       11   -1    0    0    0    0 -0.00000000000E+00 -0.00000000000E+00 -0.34996269501E-01  0.35000000000E-01  0.51099999109E-03 0. -1.
       22    1    1    2    0    0  0.13049203755E-02  0.19913919133E-02  0.34788494616E-01  0.34869869753E-01  0.00000000000E+00 0.  1.
       22    1    1    2    0    0 -0.13382542882E-02 -0.19820993174E-02 -0.34916103168E-01  0.34997912833E-01  0.00000000000E+00 0. -1.
       22    1    1    2    0    0  0.33333912750E-04 -0.92925959255E-05  0.12760855159E-03  0.13221741382E-03  0.00000000000E+00 0.  1.
</event>
<event>
 5   0  0.1496444E+06  0.9118800E+02  0.7546771E-02  0.1180000E+00
      -11   -1    0    0    0    0  0.00000000000E+00  0.00000000000E+00  0.34996269501E-01  0.35000000000E-01  0.51099999109E-03 0.  1.
       11   -1    0    0    0    0 -0.00000000000E+00 -0.00000000000E+00 -0.34996269501E-01  0.35000000000E-01  0.51099999109E-03 0. -1.
       22    1    1    2    0    0  0.18879361367E-03 -0.54667904585E-04 -0.94128982367E-04  0.21792630331E-03  0.00000000000E+00 0.  1.
       22    1    1    2    0    0  0.48789798737E-02  0.84288783043E-02 -0.33450022939E-01  0.34838979157E-01  0.00000000000E+00 0. -1.
       22    1    1    2    0    0 -0.50677734874E-02 -0.83742103997E-02  0.33544151921E-01  0.34943094540E-01  0.00000000000E+00 0.  1.
</event>
<event>
 5   0  0.1496444E+06  0.9118800E+02  0.7546771E-02  0.1180000E+00
      -11   -1    0    0    0    0  0.00000000000E+00  0.00000000000E+00  0.34996269501E-01  0.35000000000E-01  0.51099999109E-03 0. -1.
       11   -1    0    0    0    0 -0.00000000000E+00 -0.00000000000E+00 -0.34996269501E-01  0.35000000000E-01  0.51099999109E-03 0.  1.
       22    1    1    2    0    0  0.21912647416E-04  0.13051758281E-04  0.20498129952E-05  0.25587384476E-04  0.00000000000E+00 0.  1.
       22    1    1    2    0    0  0.21898111267E-02 -0.55138950636E-02  0.34479838616E-01  0.34986534303E-01  0.00000000000E+00 0. -1.
       22    1    1    2    0    0 -0.22117237742E-02  0.55008433054E-02 -0.34481888429E-01  0.34987878312E-01  0.00000000000E+00 0.  1.
</event>
<event>
 5   0  0.1496444E+06  0.9118800E+02  0.7546771E-02  0.1180000E+00
      -11   -1    0    0    0    0  0.00000000000E+00  0.00000000000E+00  0.34996269501E-01  0.35000000000E-01  0.51099999109E-03 0.  1.
       11   -1    0    0    0    0 -0.00000000000E+00 -0.00000000000E+00 -0.34996269501E-01  0.35000000000E-01  0.51099999109E-03 0. -1.
       22    1    1    2    0    0  0.18418388505E-01  0.19868739341E-01  0.22157646981E-01  0.34999502251E-01  0.00000000000E+00 0.  1.
       22    1    1    2    0    0  0.43339246743E-06 -0.21997209748E-06  0.40755089697E-06  0.63428265633E-06  0.00000000000E+00 0. -1.
       22    1    1    2    0    0 -0.18418821898E-01 -0.19868519368E-01 -0.22158054532E-01  0.34999863466E-01  0.00000000000E+00 0. -1.
</event>
<event>
 5   0  0.1496444E+06  0.9118800E+02  0.7546771E-02  0.1180000E+00
      -11   -1    0    0    0    0  0.00000000000E+00  0.00000000000E+00  0.34996269501E-01  0.35000000000E-01  0.51099999109E-03 0.  1.
       11   -1    0    0    0    0 -0.00000000000E+00 -0.00000000000E+00 -0.34996269501E-01  0.35000000000E-01  0.51099999109E-03 0. -1.
       22    1    1    2    0    0 -0.76704929364E-03  0.32453677990E-03 -0.34989493824E-01  0.34999405235E-01  0.00000000000E+00 0. -1.
       22    1    1    2    0    0 -0.11879970591E-05  0.23191719018E-05  0.24042672981E-05  0.35454755059E-05  0.00000000000E+00 0. -1.
       22    1    1    2    0    0  0.76823729070E-03 -0.32685595180E-03  0.34987089557E-01  0.34997049290E-01  0.00000000000E+00 0.  1.
</event>
<event>
 5   0  0.1496444E+06  0.9118800E+02  0.7546771E-02  0.1180000E+00
      -11   -1    0    0    0    0  0.00000000000E+00  0.00000000000E+00  0.34996269501E-01  0.35000000000E-01  0.51099999109E-03 0.  1.
       11   -1    0    0    0    0 -0.00000000000E+00 -0.00000000000E+00 -0.34996269501E-01  0.35000000000E-01  0.51099999109E-03 0. -1.
       22    1    1    2    0    0  0.67684433473E-02  0.27799434343E-02 -0.34226110649E-01  0.34999522297E-01  0.00000000000E+00 0. -1.
       22    1    1    2    0    0 -0.67649793948E-02 -0.27801518018E-02  0.34222968306E-01  0.34995796175E-01  0.00000000000E+00 0.  1.
       22    1    1    2    0    0 -0.34639525551E-05  0.20836741131E-06  0.31423427159E-05  0.46815277449E-05  0.00000000000E+00 0. -1.
</event>
<event>
 5   0  0.1496444E+06  0.9118800E+02  0.7546771E-02  0.1180000E+00
      -11   -1    0    0    0    0  0.00000000000E+00  0.00000000000E+00  0.34996269501E-01  0.35000000000E-01  0.51099999109E-03 0. -1.
       11   -1    0    0    0    0 -0.00000000000E+00 -0.00000000000E+00 -0.34996269501E-01  0.35000000000E-01  0.51099999109E-03 0.  1.
       22    1    1    2    0    0 -0.63261764540E-04 -0.90224544755E-03  0.34191749898E-02  0.35367791151E-02  0.00000000000E+00 0. -1.
       22    1    1    2    0    0 -0.19875481016E-02 -0.68647083974E-03  0.31438702146E-01  0.31508944481E-01  0.00000000000E+00 0. -1.
       22    1    1    2    0    0  0.20508098661E-02  0.15887162873E-02 -0.34857877136E-01  0.34954276404E-01  0.00000000000E+00 0.  1.
</event>
<event>
 5   0  0.1496444E+06  0.9118800E+02  0.7546771E-02  0.1180000E+00
      -11   -1    0    0    0    0  0.00000000000E+00  0.00000000000E+00  0.34996269501E-01  0.35000000000E-01  0.51099999109E-03 0.  1.
       11   -1    0    0    0    0 -0.00000000000E+00 -0.00000000000E+00 -0.34996269501E-01  0.35000000000E-01  0.51099999109E-03 0. -1.
       22    1    1    2    0    0  0.23719768059E-02 -0.14837962661E-02  0.34821069127E-01  0.34933290433E-01  0.00000000000E+00 0.  1.
       22    1    1    2    0    0 -0.23896280957E-02  0.14730335126E-02 -0.34885901358E-01  0.34998660885E-01  0.00000000000E+00 0. -1.
       22    1    1    2    0    0  0.17651289793E-04  0.10762753488E-04  0.64832231412E-04  0.68048682014E-04  0.00000000000E+00 0. -1.
</event>
<event>
 5   0  0.1496444E+06  0.9118800E+02  0.7546771E-02  0.1180000E+00
      -11   -1    0    0    0    0  0.00000000000E+00  0.00000000000E+00  0.34996269501E-01  0.35000000000E-01  0.51099999109E-03 0. -1.
       11   -1    0    0    0    0 -0.00000000000E+00 -0.00000000000E+00 -0.34996269501E-01  0.35000000000E-01  0.51099999109E-03 0.  1.
       22    1    1    2    0    0 -0.13107193869E-01 -0.17696522442E-01 -0.27203572733E-01  0.34999997245E-01  0.00000000000E+00 0.  1.
       22    1    1    2    0    0  0.10390829306E-07 -0.55858523083E-09  0.18695637895E-08  0.10572446259E-07  0.00000000000E+00 0.  1.
       22    1    1    2    0    0  0.13107183479E-01  0.17696523001E-01  0.27203570864E-01  0.34999992183E-01  0.00000000000E+00 0. -1.
</event>
<event>
 5   0  0.1496444E+06  0.9118800E+02  0.7546771E-02  0.1180000E+00
      -11   -1    0    0    0    0  0.00000000000E+00  0.00000000000E+00  0.34996269501E-01  0.35000000000E-01  0.51099999109E-03 0. -1.
       11   -1    0    0    0    0 -0.00000000000E+00 -0.00000000000E+00 -0.34996269501E-01  0.35000000000E-01  0.51099999109E-03 0. -1.
       22    1    1    2    0    0 -0.19268800547E-09  0.25589972061E-09 -0.34999989917E-01  0.34999481919E-01  0.00000000000E+00 0. -1.
       22    1    1    2    0    0 -0.31807737544E-05  0.42242334343E-05  0.12977587820E-04  0.14013538290E-04  0.00000000000E+00 0. -1.
       22    1    1    2    0    0  0.31809664424E-05 -0.42244893340E-05  0.34987012329E-01  0.34986504543E-01  0.00000000000E+00 0. -1.
</event>
<event>
 5   0  0.1496444E+06  0.9118800E+02  0.7546771E-02  0.1180000E+00
      -11   -1    0    0    0    0  0.00000000000E+00  0.00000000000E+00  0.34996269501E-01  0.35000000000E-01  0.51099999109E-03 0. -1.
       11   -1    0    0    0    0 -0.00000000000E+00 -0.00000000000E+00 -0.34996269501E-01  0.35000000000E-01  0.51099999109E-03 0.  1.
       22    1    1    2    0    0  0.47496280100E-04 -0.27585541679E-02 -0.10612724002E-02  0.29560406123E-02  0.00000000000E+00 0.  1.
       22    1    1    2    0    0 -0.64609106073E-02  0.20625437066E-02 -0.32330774708E-01  0.33034473594E-01  0.00000000000E+00 0.  1.
       22    1    1    2    0    0  0.64134143272E-02  0.69601046137E-03  0.33392047108E-01  0.34009485794E-01  0.00000000000E+00 0. -1.
</event>
<event>
 5   0  0.1496444E+06  0.9118800E+02  0.7546771E-02  0.1180000E+00
      -11   -1    0    0    0    0  0.00000000000E+00  0.00000000000E+00  0.34996269501E-01  0.35000000000E-01  0.51099999109E-03 0.  1.
       11   -1    0    0    0    0 -0.00000000000E+00 -0.00000000000E+00 -0.34996269501E-01  0.35000000000E-01  0.51099999109E-03 0. -1.
       22    1    1    2    0    0 -0.92794706556E-02 -0.13791894089E-01  0.30800504027E-01  0.34999942379E-01  0.00000000000E+00 0.  1.
       22    1    1    2    0    0  0.20967149556E-08  0.61091814789E-10  0.61588260827E-07  0.61623971127E-07  0.00000000000E+00 0.  1.
       22    1    1    2    0    0  0.92794685589E-02  0.13791894028E-01 -0.30800565615E-01  0.34999995997E-01  0.00000000000E+00 0. -1.
</event>
<event>
 5   0  0.1496444E+06  0.9118800E+02  0.7546771E-02  0.1180000E+00
      -11   -1    0    0    0    0  0.00000000000E+00  0.00000000000E+00  0.34996269501E-01  0.35000000000E-01  0.51099999109E-03 0.  1.
       11   -1    0    0    0    0 -0.00000000000E+00 -0.00000000000E+00 -0.34996269501E-01  0.35000000000E-01  0.51099999109E-03 0. -1.
       22    1    1    2    0    0 -0.20274027042E-01  0.15460194380E-01 -0.20382876382E-01  0.32642233875E-01  0.00000000000E+00 0. -1.
       22    1    1    2    0    0  0.19404224131E-01 -0.15569049460E-01  0.98001169837E-02  0.26738764147E-01  0.00000000000E+00 0.  1.
       22    1    1    2    0    0  0.86980291089E-03  0.10885508041E-03  0.10582759398E-01  0.10619001978E-01  0.00000000000E+00 0. -1.
</event>
<event>
 5   0  0.1496444E+06  0.9118800E+02  0.7546771E-02  0.1180000E+00
      -11   -1    0    0    0    0  0.00000000000E+00  0.00000000000E+00  0.34996269501E-01  0.35000000000E-01  0.51099999109E-03 0.  1.
       11   -1    0    0    0    0 -0.00000000000E+00 -0.00000000000E+00 -0.34996269501E-01  0.35000000000E-01  0.51099999109E-03 0. -1.
       22    1    1    2    0    0  0.13721761058E-03 -0.17818216177E-03 -0.14430359205E-03  0.26720980915E-03  0.00000000000E+00 0.  1.
       22    1    1    2    0    0  0.47384743696E-02 -0.36614955423E-03 -0.34458111755E-01  0.34784316445E-01  0.00000000000E+00 0. -1.
       22    1    1    2    0    0 -0.48756919802E-02  0.54433171600E-03  0.34602415347E-01  0.34948473746E-01  0.00000000000E+00 0.  1.
</event>
<event>
 5   0  0.1496444E+06  0.9118800E+02  0.7546771E-02  0.1180000E+00
      -11   -1    0    0    0    0  0.00000000000E+00  0.00000000000E+00  0.34996269501E-01  0.35000000000E-01  0.51099999109E-03 0.  1.
       11   -1    0    0    0    0 -0.00000000000E+00 -0.00000000000E+00 -0.34996269501E-01  0.35000000000E-01  0.51099999109E-03 0.  1.
       22    1    1    2    0    0  0.29323412150E-07 -0.28682646143E-07  0.30216998185E-06  0.30494139539E-06  0.00000000000E+00 0. -1.
       22    1    1    2    0    0  0.18150123708E-11 -0.17753512896E-11 -0.35000600362E-01  0.34999998617E-01  0.00000000000E+00 0.  1.
       22    1    1    2    0    0 -0.29325227163E-07  0.28684421494E-07  0.35000298192E-01  0.34999696442E-01  0.00000000000E+00 0.  1.
</event>
<event>
 5   0  0.1496444E+06  0.9118800E+02  0.7546771E-02  0.1180000E+00
      -11   -1    0    0    0    0  0.00000000000E+00  0.00000000000E+00  0.34996269501E-01  0.35000000000E-01  0.51099999109E-03 0. -1.
       11   -1    0    0    0    0 -0.00000000000E+00 -0.00000000000E+00 -0.34996269501E-01  0.35000000000E-01  0.51099999109E-03 0.  1.
       22    1    1    2    0    0  0.18645935489E-02 -0.86528921801E-03  0.34939583213E-01  0.34999998709E-01  0.00000000000E+00 0. -1.
       22    1    1    2    0    0  0.29084001018E-08 -0.56830429361E-09 -0.61444343706E-09  0.30264338188E-08  0.00000000000E+00 0.  1.
       22    1    1    2    0    0 -0.18645964573E-02  0.86528978631E-03 -0.34939582599E-01  0.34999998265E-01  0.00000000000E+00 0.  1.
</event>
<event>
 5   0  0.1496444E+06  0.9118800E+02  0.7546771E-02  0.1180000E+00
      -11   -1    0    0    0    0  0.00000000000E+00  0.00000000000E+00  0.34996269501E-01  0.35000000000E-01  0.51099999109E-03 0.  1.
       11   -1    0    0    0    0 -0.00000000000E+00 -0.00000000000E+00 -0.34996269501E-01  0.35000000000E-01  0.51099999109E-03 0. -1.
       22    1    1    2    0    0 -0.11197838173E-01 -0.18388707439E-01  0.27593731841E-01  0.34999288249E-01  0.00000000000E+00 0.  1.
       22    1    1    2    0    0  0.11197737290E-01  0.18388845058E-01 -0.27594494879E-01  0.34999929866E-01  0.00000000000E+00 0. -1.
       22    1    1    2    0    0  0.10088316296E-06 -0.13761956635E-06  0.76303817801E-06  0.78188478609E-06  0.00000000000E+00 0. -1.
</event>
<event>
 5   0  0.1496444E+06  0.9118800E+02  0.7546771E-02  0.1180000E+00
      -11   -1    0    0    0    0  0.00000000000E+00  0.00000000000E+00  0.34996269501E-01  0.35000000000E-01  0.51099999109E-03 0.  1.
       11   -1    0    0    0    0 -0.00000000000E+00 -0.00000000000E+00 -0.34996269501E-01  0.35000000000E-01  0.51099999109E-03 0. -1.
       22    1    1    2    0    0 -0.36878682498E-02  0.33615599861E-02 -0.34587131350E-01  0.34945244495E-01  0.00000000000E+00 0. -1.
       22    1    1    2    0    0 -0.40258745497E-04  0.26082546657E-03  0.43129387702E-03  0.50563336416E-03  0.00000000000E+00 0.  1.
       22    1    1    2    0    0  0.37281269953E-02 -0.36223854527E-02  0.34155837473E-01  0.34549122141E-01  0.00000000000E+00 0.  1.
</event>
<event>
 5   0  0.1496444E+06  0.9118800E+02  0.7546771E-02  0.1180000E+00
      -11   -1    0    0    0    0  0.00000000000E+00  0.00000000000E+00  0.34996269501E-01  0.35000000000E-01  0.51099999109E-03 0. -1.
       11   -1    0    0    0    0 -0.00000000000E+00 -0.00000000000E+00 -0.34996269501E-01  0.35000000000E-01  0.51099999109E-03 0.  1.
       22    1    1    2    0    0 -0.11034746326E-02 -0.16004589735E-02 -0.34932282544E-01  0.34986332888E-01  0.00000000000E+00 0.  1.
       22    1    1    2    0    0  0.11383499803E-02  0.70455482946E-03  0.26513501309E-01  0.26547278389E-01  0.00000000000E+00 0. -1.
       22    1    1    2    0    0 -0.34875347712E-04  0.89590414400E-03  0.84187812352E-02  0.84663887232E-02  0.00000000000E+00 0. -1.
</event>
<event>
 5   0  0.1496444E+06  0.9118800E+02  0.7546771E-02  0.1180000E+00
      -11   -1    0    0    0    0  0.00000000000E+00  0.00000000000E+00  0.34996269501E-01  0.35000000000E-01  0.51099999109E-03 0.  1.
       11   -1    0    0    0    0 -0.00000000000E+00 -0.00000000000E+00 -0.34996269501E-01  0.35000000000E-01  0.51099999109E-03 0. -1.
       22    1    1    2    0    0 -0.31166116074E-01  0.59309521161E-02  0.14721363026E-01  0.34974583821E-01  0.00000000000E+00 0.  1.
       22    1    1    2    0    0  0.31167197053E-01 -0.59283960329E-02 -0.14634727809E-01  0.34938736522E-01  0.00000000000E+00 0. -1.
       22    1    1    2    0    0 -0.10809794143E-05 -0.25560831701E-05 -0.86635217124E-04  0.86679656920E-04  0.00000000000E+00 0.  1.
</event>
<event>
 5   0  0.1496444E+06  0.9118800E+02  0.7546771E-02  0.1180000E+00
      -11   -1    0    0    0    0  0.00000000000E+00  0.00000000000E+00  0.34996269501E-01  0.35000000000E-01  0.51099999109E-03 0. -1.
       11   -1    0    0    0    0 -0.00000000000E+00 -0.00000000000E+00 -0.34996269501E-01  0.35000000000E-01  0.51099999109E-03 0.  1.
       22    1    1    2    0    0  0.36262648554E-04  0.16465758725E-03 -0.61718728461E-03  0.63980250468E-03  0.00000000000E+00 0. -1.
       22    1    1    2    0    0 -0.27462605256E-02  0.45333764941E-03  0.34876960648E-01  0.34987852834E-01  0.00000000000E+00 0. -1.
       22    1    1    2    0    0  0.27099978771E-02 -0.61799523666E-03 -0.34259773363E-01  0.34372344661E-01  0.00000000000E+00 0.  1.
</event>
<event>
 5   0  0.1496444E+06  0.9118800E+02  0.7546771E-02  0.1180000E+00
      -11   -1    0    0    0    0  0.00000000000E+00  0.00000000000E+00  0.34996269501E-01  0.35000000000E-01  0.51099999109E-03 0. -1.
       11   -1    0    0    0    0 -0.00000000000E+00 -0.00000000000E+00 -0.34996269501E-01  0.35000000000E-01  0.51099999109E-03 0.  1.
       22    1    1    2    0    0  0.17918354087E-02  0.17046551706E-02 -0.34912503909E-01  0.34999992180E-01  0.00000000000E+00 0.  1.
       22    1    1    2    0    0 -0.17917422652E-02 -0.17048072104E-02  0.34910550334E-01  0.34998046125E-01  0.00000000000E+00 0. -1.
       22    1    1    2    0    0 -0.93143487103E-07  0.15203975330E-06  0.19535751248E-05  0.19616950742E-05  0.00000000000E+00 0.  1.
</event>
<event>
 5   0  0.1496444E+06  0.9118800E+02  0.7546771E-02  0.1180000E+00
      -11   -1    0    0    0    0  0.00000000000E+00  0.00000000000E+00  0.34996269501E-01  0.35000000000E-01  0.51099999109E-03 0. -1.
       11   -1    0    0    0    0 -0.00000000000E+00 -0.00000000000E+00 -0.34996269501E-01  0.35000000000E-01  0.51099999109E-03 0.  1.
       22    1    1    2    0    0  0.45008968352E-04  0.16791515275E-03 -0.34428402222E-04  0.17721913168E-03  0.00000000000E+00 0. -1.
       22    1    1    2    0    0 -0.27893280743E-02 -0.96151179638E-03 -0.34773188097E-01  0.34898129842E-01  0.00000000000E+00 0.  1.
       22    1    1    2    0    0  0.27443191059E-02  0.79359664363E-03  0.34807616499E-01  0.34924651027E-01  0.00000000000E+00 0. -1.
</event>
<event>
 5   0  0.1496444E+06  0.9118800E+02  0.7546771E-02  0.1180000E+00
      -11   -1    0    0    0    0  0.00000000000E+00  0.00000000000E+00  0.34996269501E-01  0.35000000000E-01  0.51099999109E-03 0.  1.
       11   -1    0    0    0    0 -0.00000000000E+00 -0.00000000000E+00 -0.34996269501E-01  0.35000000000E-01  0.51099999109E-03 0. -1.
       22    1    1    2    0    0 -0.50650914064E-04  0.57075582629E-04 -0.17739428613E-03  0.19311103019E-03  0.00000000000E+00 0. -1.
       22    1    1    2    0    0  0.84878566956E-02  0.95586596207E-03 -0.33758963593E-01  0.34822765741E-01  0.00000000000E+00 0. -1.
       22    1    1    2    0    0 -0.84372057815E-02 -0.10129415447E-02  0.33936357879E-01  0.34984123228E-01  0.00000000000E+00 0.  1.
</event>
<event>
 5   0  0.1496444E+06  0.9118800E+02  0.7546771E-02  0.1180000E+00
      -11   -1    0    0    0    0  0.00000000000E+00  0.00000000000E+00  0.34996269501E-01  0.35000000000E-01  0.51099999109E-03 0. -1.
       11   -1    0    0    0    0 -0.00000000000E+00 -0.00000000000E+00 -0.34996269501E-01  0.35000000000E-01  0.51099999109E-03 0.  1.
       22    1    1    2    0    0  0.62404666957E-02 -0.59959392359E-02 -0.28318742850E-01  0.29611584026E-01  0.00000000000E+00 0.  1.
       22    1    1    2    0    0 -0.81545286474E-02  0.57524562256E-02 -0.18573442220E-02  0.10150705278E-01  0.00000000000E+00 0. -1.
       22    1    1    2    0    0  0.19140619517E-02  0.24348301027E-03  0.30176087072E-01  0.30237710696E-01  0.00000000000E+00 0. -1.
</event>
<event>
 5   0  0.1496444E+06  0.9118800E+02  0.7546771E-02  0.1180000E+00
      -11   -1    0    0    0    0  0.00000000000E+00  0.00000000000E+00  0.34996269501E-01  0.35000000000E-01  0.51099999109E-03 0.  1.
       11   -1    0    0    0    0 -0.00000000000E+00 -0.00000000000E+00 -0.34996269501E-01  0.35000000000E-01  0.51099999109E-03 0. -1.
       22    1    1    2    0    0 -0.53198549256E-09 -0.28842322085E-08  0.26579408079E-08  0.39580870803E-08  0.00000000000E+00 0. -1.
       22    1    1    2    0    0  0.38596583092E-02 -0.62564335894E-02  0.34219290335E-01  0.34999996493E-01  0.00000000000E+00 0.  1.
       22    1    1    2    0    0 -0.38596577772E-02  0.62564364736E-02 -0.34219292992E-01  0.34999999549E-01  0.00000000000E+00 0. -1.
</event>
<event>
 5   0  0.1496444E+06  0.9118800E+02  0.7546771E-02  0.1180000E+00
      -11   -1    0    0    0    0  0.00000000000E+00  0.00000000000E+00  0.34996269501E-01  0.35000000000E-01  0.51099999109E-03 0. -1.
       11   -1    0    0    0    0 -0.00000000000E+00 -0.00000000000E+00 -0.34996269501E-01  0.35000000000E-01  0.51099999109E-03 0.  1.
       22    1    1    2    0    0 -0.57166328193E-02 -0.21205238967E-02 -0.34445525115E-01  0.34981005029E-01  0.00000000000E+00 0.  1.
       22    1    1    2    0    0 -0.26757535109E-05 -0.21619618459E-04  0.22054151453E-02  0.22055227341E-02  0.00000000000E+00 0.  1.
       22    1    1    2    0    0  0.57193085728E-02  0.21421435152E-02  0.32240109970E-01  0.32813472237E-01  0.00000000000E+00 0. -1.
</event>
<event>
 5   0  0.1496444E+06  0.9118800E+02  0.7546771E-02  0.1180000E+00
      -11   -1    0    0    0    0  0.00000000000E+00  0.00000000000E+00  0.34996269501E-01  0.35000000000E-01  0.51099999109E-03 0. -1.
       11   -1    0    0    0    0 -0.00000000000E+00 -0.00000000000E+00 -0.34996269501E-01  0.35000000000E-01  0.51099999109E-03 0. -1.
       22    1    1    2    0    0 -0.47665488361E-04 -0.78997729155E-04 -0.60344686077E-04  0.11024573067E-03  0.00000000000E+00 0. -1.
       22    1    1    2    0    0 -0.36109269106E-03 -0.26241217247E-03  0.34971594118E-01  0.34974442716E-01  0.00000000000E+00 0. -1.
       22    1    1    2    0    0  0.40875817942E-03  0.34140990163E-03 -0.34911249432E-01  0.34915311554E-01  0.00000000000E+00 0. -1.
</event>
<event>
 5   0  0.1496444E+06  0.9118800E+02  0.7546771E-02  0.1180000E+00
      -11   -1    0    0    0    0  0.00000000000E+00  0.00000000000E+00  0.34996269501E-01  0.35000000000E-01  0.51099999109E-03 0. -1.
       11   -1    0    0    0    0 -0.00000000000E+00 -0.00000000000E+00 -0.34996269501E-01  0.35000000000E-01  0.51099999109E-03 0.  1.
       22    1    1    2    0    0 -0.20455929156E-02 -0.84286056183E-02 -0.33908303257E-01  0.34999983897E-01  0.00000000000E+00 0.  1.
       22    1    1    2    0    0  0.20455811397E-02  0.84283783024E-02  0.33905828576E-01  0.34997530977E-01  0.00000000000E+00 0. -1.
       22    1    1    2    0    0  0.11775842496E-07  0.22731592370E-06  0.24746802427E-05  0.24851264562E-05  0.00000000000E+00 0. -1.
</event>
<event>
 5   0  0.1496444E+06  0.9118800E+02  0.7546771E-02  0.1180000E+00
      -11   -1    0    0    0    0  0.00000000000E+00  0.00000000000E+00  0.34996269501E-01  0.35000000000E-01  0.51099999109E-03 0.  1.
       11   -1    0    0    0    0 -0.00000000000E+00 -0.00000000000E+00 -0.34996269501E-01  0.35000000000E-01  0.51099999109E-03 0. -1.
       22    1    1    2    0    0 -0.55537881549E-04  0.26280364369E-03 -0.12302753281E-03  0.29544201674E-03  0.00000000000E+00 0. -1.
       22    1    1    2    0    0  0.96787574884E-02 -0.75849205052E-02  0.32710736351E-01  0.34945695560E-01  0.00000000000E+00 0.  1.
       22    1    1    2    0    0 -0.96232196069E-02  0.73221168615E-02 -0.32587708818E-01  0.34758862423E-01  0.00000000000E+00 0. -1.
</event>
<event>
 5   0  0.1496444E+06  0.9118800E+02  0.7546771E-02  0.1180000E+00
      -11   -1    0    0    0    0  0.00000000000E+00  0.00000000000E+00  0.34996269501E-01  0.35000000000E-01  0.51099999109E-03 0. -1.
       11   -1    0    0    0    0 -0.00000000000E+00 -0.00000000000E+00 -0.34996269501E-01  0.35000000000E-01  0.51099999109E-03 0.  1.
       22    1    1    2    0    0 -0.10556293610E-06  0.12196095729E-05  0.79684130529E-06  0.14606666662E-05  0.00000000000E+00 0.  1.
       22    1    1    2    0    0  0.37189565383E-02  0.24199919295E-03  0.34799885666E-01  0.34998874893E-01  0.00000000000E+00 0. -1.
       22    1    1    2    0    0 -0.37188509754E-02 -0.24321880252E-03 -0.34800682508E-01  0.34999664441E-01  0.00000000000E+00 0.  1.
</event>
<event>
 5   0  0.1496444E+06  0.9118800E+02  0.7546771E-02  0.1180000E+00
      -11   -1    0    0    0    0  0.00000000000E+00  0.00000000000E+00  0.34996269501E-01  0.35000000000E-01  0.51099999109E-03 0.  1.
       11   -1    0    0    0    0 -0.00000000000E+00 -0.00000000000E+00 -0.34996269501E-01  0.35000000000E-01  0.51099999109E-03 0. -1.
       22    1    1    2    0    0 -0.60996062157E-03  0.10437220955E-02 -0.11266233060E-02  0.16524793028E-02  0.00000000000E+00 0.  1.
       22    1    1    2    0    0  0.16169327015E-02 -0.10167221227E-02 -0.33575998338E-01  0.33630281885E-01  0.00000000000E+00 0. -1.
       22    1    1    2    0    0 -0.10069720800E-02 -0.26999972798E-04  0.34702621644E-01  0.34717238812E-01  0.00000000000E+00 0.  1.
</event>
<event>
 5   0  0.1496444E+06  0.9118800E+02  0.7546771E-02  0.1180000E+00
      -11   -1    0    0    0    0  0.00000000000E+00  0.00000000000E+00  0.34996269501E-01  0.35000000000E-01  0.51099999109E-03 0.  1.
       11   -1    0    0    0    0 -0.00000000000E+00 -0.00000000000E+00 -0.34996269501E-01  0.35000000000E-01  0.51099999109E-03 0. -1.
       22    1    1    2    0    0  0.37350474417E-02  0.17026527201E-01  0.13029217475E-01  0.21762667941E-01  0.00000000000E+00 0. -1.
       22    1    1    2    0    0 -0.20538112962E-02 -0.19488647985E-01 -0.27329673899E-01  0.33629401073E-01  0.00000000000E+00 0.  1.
       22    1    1    2    0    0 -0.16812361456E-02  0.24621207843E-02  0.14300456424E-01  0.14607930986E-01  0.00000000000E+00 0. -1.
</event>
<event>
 5   0  0.1496444E+06  0.9118800E+02  0.7546771E-02  0.1180000E+00
      -11   -1    0    0    0    0  0.00000000000E+00  0.00000000000E+00  0.34996269501E-01  0.35000000000E-01  0.51099999109E-03 0. -1.
       11   -1    0    0    0    0 -0.00000000000E+00 -0.00000000000E+00 -0.34996269501E-01  0.35000000000E-01  0.51099999109E-03 0.  1.
       22    1    1    2    0    0  0.22780475810E-06  0.57677108430E-07  0.25860020277E-05  0.25966571094E-05  0.00000000000E+00 0. -1.
       22    1    1    2    0    0 -0.41625278691E-02  0.81872248099E-03  0.34739361496E-01  0.34997431076E-01  0.00000000000E+00 0. -1.
       22    1    1    2    0    0  0.41623000643E-02 -0.81878015810E-03 -0.34741947498E-01  0.34999972267E-01  0.00000000000E+00 0.  1.
</event>
<event>
 5   0  0.1496444E+06  0.9118800E+02  0.7546771E-02  0.1180000E+00
      -11   -1    0    0    0    0  0.00000000000E+00  0.00000000000E+00  0.34996269501E-01  0.35000000000E-01  0.51099999109E-03 0. -1.
       11   -1    0    0    0    0 -0.00000000000E+00 -0.00000000000E+00 -0.34996269501E-01  0.35000000000E-01  0.51099999109E-03 0.  1.
       22    1    1    2    0    0  0.36632899283E-02  0.58181131101E-02  0.34250207989E-01  0.34933463621E-01  0.00000000000E+00 0. -1.
       22    1    1    2    0    0 -0.36652461641E-02 -0.57996307483E-02 -0.34317574963E-01  0.34996652663E-01  0.00000000000E+00 0.  1.
       22    1    1    2    0    0  0.19562357917E-05 -0.18482361778E-04  0.67366974532E-04  0.69883716365E-04  0.00000000000E+00 0.  1.
</event>
<event>
 5   0  0.1496444E+06  0.9118800E+02  0.7546771E-02  0.1180000E+00
      -11   -1    0    0    0    0  0.00000000000E+00  0.00000000000E+00  0.34996269501E-01  0.35000000000E-01  0.51099999109E-03 0. -1.
       11   -1    0    0    0    0 -0.00000000000E+00 -0.00000000000E+00 -0.34996269501E-01  0.35000000000E-01  0.51099999109E-03 0. -1.
       22    1    1    2    0    0  0.21300595508E-08 -0.30341479125E-07  0.76266303373E-08  0.31357742257E-07  0.00000000000E+00 0. -1.
       22    1    1    2    0    0 -0.54976618587E-03  0.55750676708E-03  0.34991221714E-01  0.34999980767E-01  0.00000000000E+00 0. -1.
       22    1    1    2    0    0  0.54976405581E-03 -0.55747642560E-03 -0.34991229341E-01  0.34999987875E-01  0.00000000000E+00 0. -1.
</event>
<event>
 5   0  0.1496444E+06  0.9118800E+02  0.7546771E-02  0.1180000E+00
      -11   -1    0    0    0    0  0.00000000000E+00  0.00000000000E+00  0.34996269501E-01  0.35000000000E-01  0.51099999109E-03 0. -1.
       11   -1    0    0    0    0 -0.00000000000E+00 -0.00000000000E+00 -0.34996269501E-01  0.35000000000E-01  0.51099999109E-03 0.  1.
       22    1    1    2    0    0 -0.43696840064E-04  0.57805199652E-03 -0.34803666840E-01  0.34808494352E-01  0.00000000000E+00 0.  1.
       22    1    1    2    0    0 -0.11840715290E-03  0.10184438793E-03 -0.15840285056E-03  0.22244998601E-03  0.00000000000E+00 0.  1.
       22    1    1    2    0    0  0.16210399297E-03 -0.67989638446E-03  0.34962069691E-01  0.34969055662E-01  0.00000000000E+00 0. -1.
</event>
<event>
 5   0  0.1496444E+06  0.9118800E+02  0.7546771E-02  0.1180000E+00
      -11   -1    0    0    0    0  0.00000000000E+00  0.00000000000E+00  0.34996269501E-01  0.35000000000E-01  0.51099999109E-03 0. -1.
       11   -1    0    0    0    0 -0.00000000000E+00 -0.00000000000E+00 -0.34996269501E-01  0.35000000000E-01  0.51099999109E-03 0.  1.
       22    1    1    2    0    0 -0.17324276455E-01 -0.29776907419E-01 -0.61810195685E-02  0.34999996758E-01  0.00000000000E+00 0.  1.
       22    1    1    2    0    0  0.17324276400E-01  0.29776909226E-01  0.61810138660E-02  0.34999997260E-01  0.00000000000E+00 0. -1.
       22    1    1    2    0    0  0.54611500237E-10 -0.18064352584E-08  0.57024986081E-08  0.59820298506E-08  0.00000000000E+00 0. -1.
</event>
<event>
 5   0  0.1496444E+06  0.9118800E+02  0.7546771E-02  0.1180000E+00
      -11   -1    0    0    0    0  0.00000000000E+00  0.00000000000E+00  0.34996269501E-01  0.35000000000E-01  0.51099999109E-03 0.  1.
       11   -1    0    0    0    0 -0.00000000000E+00 -0.00000000000E+00 -0.34996269501E-01  0.35000000000E-01  0.51099999109E-03 0. -1.
       22    1    1    2    0    0 -0.22438153523E-01 -0.20206036115E-01  0.17697177079E-01  0.34999210070E-01  0.00000000000E+00 0.  1.
       22    1    1    2    0    0  0.22437668519E-01  0.20206639786E-01 -0.17697996905E-01  0.34999662205E-01  0.00000000000E+00 0. -1.
       22    1    1    2    0    0  0.48500414749E-06 -0.60367134849E-06  0.81982599750E-06  0.11277246057E-05  0.00000000000E+00 0.  1.
</event>
<event>
 5   0  0.1496444E+06  0.9118800E+02  0.7546771E-02  0.1180000E+00
      -11   -1    0    0    0    0  0.00000000000E+00  0.00000000000E+00  0.34996269501E-01  0.35000000000E-01  0.51099999109E-03 0. -1.
       11   -1    0    0    0    0 -0.00000000000E+00 -0.00000000000E+00 -0.34996269501E-01  0.35000000000E-01  0.51099999109E-03 0. -1.
       22    1    1    2    0    0  0.22469865835E-11 -0.30477924101E-10 -0.35003640442E-01  0.34999975352E-01  0.00000000000E+00 0. -1.
       22    1    1    2    0    0 -0.21267427500E-07  0.28846947548E-06  0.35002818163E-01  0.34999152988E-01  0.00000000000E+00 0. -1.
       22    1    1    2    0    0  0.21265180513E-07 -0.28843899756E-06  0.82227870238E-06  0.87166021339E-06  0.00000000000E+00 0. -1.
</event>
<event>
 5   0  0.1496444E+06  0.9118800E+02  0.7546771E-02  0.1180000E+00
      -11   -1    0    0    0    0  0.00000000000E+00  0.00000000000E+00  0.34996269501E-01  0.35000000000E-01  0.51099999109E-03 0.  1.
       11   -1    0    0    0    0 -0.00000000000E+00 -0.00000000000E+00 -0.34996269501E-01  0.35000000000E-01  0.51099999109E-03 0. -1.
       22    1    1    2    0    0 -0.11270288859E-02  0.11237115105E-02 -0.10637202891E-01  0.10755603517E-01  0.00000000000E+00 0. -1.
       22    1    1    2    0    0  0.16785848787E-01 -0.21934012941E-01 -0.61009675977E-02  0.28285817096E-01  0.00000000000E+00 0.  1.
       22    1    1    2    0    0 -0.15658819901E-01  0.20810301430E-01  0.16738170489E-01  0.30958579386E-01  0.00000000000E+00 0. -1.
</event>
<event>
 5   0  0.1496444E+06  0.9118800E+02  0.7546771E-02  0.1180000E+00
      -11   -1    0    0    0    0  0.00000000000E+00  0.00000000000E+00  0.34996269501E-01  0.35000000000E-01  0.51099999109E-03 0.  1.
       11   -1    0    0    0    0 -0.00000000000E+00 -0.00000000000E+00 -0.34996269501E-01  0.35000000000E-01  0.51099999109E-03 0. -1.
       22    1    1    2    0    0  0.33036175280E-01 -0.11510262464E-01  0.47617536015E-03  0.34987165677E-01  0.00000000000E+00 0.  1.
       22    1    1    2    0    0 -0.33038563437E-01  0.11510657040E-01 -0.49901304083E-03  0.34989868726E-01  0.00000000000E+00 0. -1.
       22    1    1    2    0    0  0.23881571115E-05 -0.39457600755E-06  0.22837680686E-04  0.22965596960E-04  0.00000000000E+00 0. -1.
</event>
<event>
 5   0  0.1496444E+06  0.9118800E+02  0.7546771E-02  0.1180000E+00
      -11   -1    0    0    0    0  0.00000000000E+00  0.00000000000E+00  0.34996269501E-01  0.35000000000E-01  0.51099999109E-03 0.  1.
       11   -1    0    0    0    0 -0.00000000000E+00 -0.00000000000E+00 -0.34996269501E-01  0.35000000000E-01  0.51099999109E-03 0. -1.
       22    1    1    2    0    0 -0.25662898433E-05  0.39492590135E-05  0.96076375228E-05  0.10699962107E-04  0.00000000000E+00 0. -1.
       22    1    1    2    0    0 -0.31702145108E-01  0.14506630259E-01  0.29982826354E-02  0.34992256639E-01  0.00000000000E+00 0. -1.
       22    1    1    2    0    0  0.31704711398E-01 -0.14510579518E-01 -0.30078902730E-02  0.34997043399E-01  0.00000000000E+00 0.  1.
</event>
<event>
 5   0  0.1496444E+06  0.9118800E+02  0.7546771E-02  0.1180000E+00
      -11   -1    0    0    0    0  0.00000000000E+00  0.00000000000E+00  0.34996269501E-01  0.35000000000E-01  0.51099999109E-03 0.  1.
       11   -1    0    0    0    0 -0.00000000000E+00 -0.00000000000E+00 -0.34996269501E-01  0.35000000000E-01  0.51099999109E-03 0.  1.
       22    1    1    2    0    0  0.10862023230E-03  0.43300291722E-03 -0.34986232041E-01  0.34989080044E-01  0.00000000000E+00 0.  1.
       22    1    1    2    0    0 -0.12663236274E-04 -0.32286423435E-04  0.15885568127E-04  0.38146060949E-04  0.00000000000E+00 0. -1.
       22    1    1    2    0    0 -0.95956996027E-04 -0.40071649379E-03  0.34970346473E-01  0.34972773895E-01  0.00000000000E+00 0.  1.
</event>
<event>
 5   0  0.1496444E+06  0.9118800E+02  0.7546771E-02  0.1180000E+00
      -11   -1    0    0    0    0  0.00000000000E+00  0.00000000000E+00  0.34996269501E-01  0.35000000000E-01  0.51099999109E-03 0.  1.
       11   -1    0    0    0    0 -0.00000000000E+00 -0.00000000000E+00 -0.34996269501E-01  0.35000000000E-01  0.51099999109E-03 0. -1.
       22    1    1    2    0    0 -0.11558506339E-02  0.38727086775E-02  0.34765872938E-01  0.34999996919E-01  0.00000000000E+00 0.  1.
       22    1    1    2    0    0  0.50089976276E-08  0.23271788171E-08  0.52576054122E-09  0.55481747113E-08  0.00000000000E+00 0. -1.
       22    1    1    2    0    0  0.11558456249E-02 -0.38727110047E-02 -0.34765873464E-01  0.34999997533E-01  0.00000000000E+00 0. -1.
</event>
<event>
 5   0  0.1496444E+06  0.9118800E+02  0.7546771E-02  0.1180000E+00
      -11   -1    0    0    0    0  0.00000000000E+00  0.00000000000E+00  0.34996269501E-01  0.35000000000E-01  0.51099999109E-03 0.  1.
       11   -1    0    0    0    0 -0.00000000000E+00 -0.00000000000E+00 -0.34996269501E-01  0.35000000000E-01  0.51099999109E-03 0. -1.
       22    1    1    2    0    0  0.97164952346E-03 -0.22718530519E-02 -0.34912629245E-01  0.34999958570E-01  0.00000000000E+00 0. -1.
       22    1    1    2    0    0 -0.97215236576E-03  0.22721450392E-02  0.34896943876E-01  0.34984345287E-01  0.00000000000E+00 0.  1.
       22    1    1    2    0    0  0.50284229998E-06 -0.29198724164E-06  0.15685368793E-04  0.15696142873E-04  0.00000000000E+00 0. -1.
</event>
<event>
 5   0  0.1496444E+06  0.9118800E+02  0.7546771E-02  0.1180000E+00
      -11   -1    0    0    0    0  0.00000000000E+00  0.00000000000E+00  0.34996269501E-01  0.35000000000E-01  0.51099999109E-03 0. -1.
       11   -1    0    0    0    0 -0.00000000000E+00 -0.00000000000E+00 -0.34996269501E-01  0.35000000000E-01  0.51099999109E-03 0.  1.
       22    1    1    2    0    0 -0.17942998550E-03  0.10093761395E-03 -0.38985978562E-05  0.20590949631E-03  0.00000000000E+00 0. -1.
       22    1    1    2    0    0  0.29535239516E-01  0.16321728036E-01 -0.90924488348E-02  0.34948559415E-01  0.00000000000E+00 0.  1.
       22    1    1    2    0    0 -0.29355809530E-01 -0.16422665650E-01  0.90963474327E-02  0.34845531089E-01  0.00000000000E+00 0. -1.
</event>
<event>
 5   0  0.1496444E+06  0.9118800E+02  0.7546771E-02  0.1180000E+00
      -11   -1    0    0    0    0  0.00000000000E+00  0.00000000000E+00  0.34996269501E-01  0.35000000000E-01  0.51099999109E-03 0. -1.
       11   -1    0    0    0    0 -0.00000000000E+00 -0.00000000000E+00 -0.34996269501E-01  0.35000000000E-01  0.51099999109E-03 0.  1.
       22    1    1    2    0    0 -0.12639071510E-03  0.11386149677E-02 -0.34754315619E-01  0.34773191870E-01  0.00000000000E+00 0.  1.
       22    1    1    2    0    0 -0.18073770120E-03 -0.54631893931E-04 -0.18793275208E-03  0.26640097555E-03  0.00000000000E+00 0.  1.
       22    1    1    2    0    0  0.30712841630E-03 -0.10839830737E-02  0.34942248371E-01  0.34960407155E-01  0.00000000000E+00 0. -1.
</event>
<event>
 5   0  0.1496444E+06  0.9118800E+02  0.7546771E-02  0.1180000E+00
      -11   -1    0    0    0    0  0.00000000000E+00  0.00000000000E+00  0.34996269501E-01  0.35000000000E-01  0.51099999109E-03 0. -1.
       11   -1    0    0    0    0 -0.00000000000E+00 -0.00000000000E+00 -0.34996269501E-01  0.35000000000E-01  0.51099999109E-03 0. -1.
       22    1    1    2    0    0 -0.13246076184E-02 -0.22871032915E-02 -0.18069876482E-01  0.18262142889E-01  0.00000000000E+00 0. -1.
       22    1    1    2    0    0  0.00000000000E+00  0.00000000000E+00  0.34801155094E-01  0.34799111266E-01  0.00000000000E+00 0. -1.
       22    1    1    2    0    0  0.13246076184E-02  0.22871032915E-02 -0.16731278612E-01  0.16938745845E-01  0.00000000000E+00 0.  1.
</event>
<event>
 5   0  0.1496444E+06  0.9118800E+02  0.7546771E-02  0.1180000E+00
      -11   -1    0    0    0    0  0.00000000000E+00  0.00000000000E+00  0.34996269501E-01  0.35000000000E-01  0.51099999109E-03 0. -1.
       11   -1    0    0    0    0 -0.00000000000E+00 -0.00000000000E+00 -0.34996269501E-01  0.35000000000E-01  0.51099999109E-03 0.  1.
       22    1    1    2    0    0 -0.21929595660E-03 -0.15737471874E-02 -0.34963843076E-01  0.34999929908E-01  0.00000000000E+00 0.  1.
       22    1    1    2    0    0  0.22012140113E-03  0.15733333727E-02  0.34961090968E-01  0.34997167214E-01  0.00000000000E+00 0. -1.
       22    1    1    2    0    0 -0.82544453512E-06  0.41381470177E-06  0.27521085062E-05  0.29028783161E-05  0.00000000000E+00 0.  1.
</event>
<event>
 5   0  0.1496444E+06  0.9118800E+02  0.7546771E-02  0.1180000E+00
      -11   -1    0    0    0    0  0.00000000000E+00  0.00000000000E+00  0.34996269501E-01  0.35000000000E-01  0.51099999109E-03 0.  1.
       11   -1    0    0    0    0 -0.00000000000E+00 -0.00000000000E+00 -0.34996269501E-01  0.35000000000E-01  0.51099999109E-03 0. -1.
       22    1    1    2    0    0 -0.31809481662E-02 -0.19984657216E-02  0.34732326016E-01  0.34934893258E-01  0.00000000000E+00 0.  1.
       22    1    1    2    0    0  0.16090563895E-03 -0.61666737092E-03 -0.22659841535E-02  0.23539017513E-02  0.00000000000E+00 0. -1.
       22    1    1    2    0    0  0.30200425273E-02  0.26151330925E-02 -0.32466341863E-01  0.32711204990E-01  0.00000000000E+00 0. -1.
</event>
<event>
 5   0  0.1496444E+06  0.9118800E+02  0.7546771E-02  0.1180000E+00
      -11   -1    0    0    0    0  0.00000000000E+00  0.00000000000E+00  0.34996269501E-01  0.35000000000E-01  0.51099999109E-03 0. -1.
       11   -1    0    0    0    0 -0.00000000000E+00 -0.00000000000E+00 -0.34996269501E-01  0.35000000000E-01  0.51099999109E-03 0. -1.
       22    1    1    2    0    0  0.15367778905E-02 -0.51605255659E-03  0.12906422742E-01  0.13007833967E-01  0.00000000000E+00 0.  1.
       22    1    1    2    0    0 -0.15732150975E-02  0.25364727906E-03 -0.34930332843E-01  0.34966662626E-01  0.00000000000E+00 0. -1.
       22    1    1    2    0    0  0.36437207088E-04  0.26240527753E-03  0.22023910101E-01  0.22025503407E-01  0.00000000000E+00 0. -1.
</event>
<event>
 5   0  0.1496444E+06  0.9118800E+02  0.7546771E-02  0.1180000E+00
      -11   -1    0    0    0    0  0.00000000000E+00  0.00000000000E+00  0.34996269501E-01  0.35000000000E-01  0.51099999109E-03 0.  1.
       11   -1    0    0    0    0 -0.00000000000E+00 -0.00000000000E+00 -0.34996269501E-01  0.35000000000E-01  0.51099999109E-03 0. -1.
       22    1    1    2    0    0 -0.98808011142E-03  0.76605472117E-02 -0.31130676985E-01  0.32074590184E-01  0.00000000000E+00 0. -1.
       22    1    1    2    0    0  0.68387793942E-03 -0.84555607739E-02  0.33943035205E-01  0.34987052404E-01  0.00000000000E+00 0.  1.
       22    1    1    2    0    0  0.30420217200E-03  0.79501356224E-03 -0.28123582196E-02  0.29383574120E-02  0.00000000000E+00 0. -1.
</event>
<event>
 5   0  0.1496444E+06  0.9118800E+02  0.7546771E-02  0.1180000E+00
      -11   -1    0    0    0    0  0.00000000000E+00  0.00000000000E+00  0.34996269501E-01  0.35000000000E-01  0.51099999109E-03 0. -1.
       11   -1    0    0    0    0 -0.00000000000E+00 -0.00000000000E+00 -0.34996269501E-01  0.35000000000E-01  0.51099999109E-03 0.  1.
       22    1    1    2    0    0 -0.49198360584E-03 -0.35523118986E-03  0.34978409186E-01  0.34983672567E-01  0.00000000000E+00 0. -1.
       22    1    1    2    0    0  0.49071329405E-03  0.35608610405E-03 -0.34994706531E-01  0.34999958315E-01  0.00000000000E+00 0.  1.
       22    1    1    2    0    0  0.12703117859E-05 -0.85491419400E-06  0.16297345234E-04  0.16369118241E-04  0.00000000000E+00 0.  1.
</event>
<event>
 5   0  0.1496444E+06  0.9118800E+02  0.7546771E-02  0.1180000E+00
      -11   -1    0    0    0    0  0.00000000000E+00  0.00000000000E+00  0.34996269501E-01  0.35000000000E-01  0.51099999109E-03 0. -1.
       11   -1    0    0    0    0 -0.00000000000E+00 -0.00000000000E+00 -0.34996269501E-01  0.35000000000E-01  0.51099999109E-03 0.  1.
       22    1    1    2    0    0  0.16725724448E-03 -0.29875899156E-03  0.85078842363E-03  0.91710024678E-03  0.00000000000E+00 0.  1.
       22    1    1    2    0    0  0.13638399990E-02 -0.37998325259E-02  0.33858802301E-01  0.34098640443E-01  0.00000000000E+00 0. -1.
       22    1    1    2    0    0 -0.15310972435E-02  0.40985915175E-02 -0.34709590725E-01  0.34984259310E-01  0.00000000000E+00 0.  1.
</event>
<event>
 5   0  0.1496444E+06  0.9118800E+02  0.7546771E-02  0.1180000E+00
      -11   -1    0    0    0    0  0.00000000000E+00  0.00000000000E+00  0.34996269501E-01  0.35000000000E-01  0.51099999109E-03 0. -1.
       11   -1    0    0    0    0 -0.00000000000E+00 -0.00000000000E+00 -0.34996269501E-01  0.35000000000E-01  0.51099999109E-03 0. -1.
       22    1    1    2    0    0  0.12890011303E-03  0.25936315694E-03  0.34848632960E-01  0.34849836494E-01  0.00000000000E+00 0. -1.
       22    1    1    2    0    0 -0.12693428826E-03 -0.25494272473E-03 -0.34998779919E-01  0.34999938628E-01  0.00000000000E+00 0. -1.
       22    1    1    2    0    0 -0.19658247611E-05 -0.44204322051E-05  0.15014695926E-03  0.15022487831E-03  0.00000000000E+00 0. -1.
</event>
<event>
 5   0  0.1496444E+06  0.9118800E+02  0.7546771E-02  0.1180000E+00
      -11   -1    0    0    0    0  0.00000000000E+00  0.00000000000E+00  0.34996269501E-01  0.35000000000E-01  0.51099999109E-03 0. -1.
       11   -1    0    0    0    0 -0.00000000000E+00 -0.00000000000E+00 -0.34996269501E-01  0.35000000000E-01  0.51099999109E-03 0.  1.
       22    1    1    2    0    0 -0.29590838599E-02  0.46452406521E-02  0.34436650182E-01  0.34874307359E-01  0.00000000000E+00 0. -1.
       22    1    1    2    0    0  0.29662930640E-02 -0.46453013236E-02 -0.34562718900E-01  0.34999417948E-01  0.00000000000E+00 0.  1.
       22    1    1    2    0    0 -0.72092040991E-05  0.60671477139E-07  0.12606871798E-03  0.12627469247E-03  0.00000000000E+00 0. -1.
</event>
<event>
 5   0  0.1496444E+06  0.9118800E+02  0.7546771E-02  0.1180000E+00
      -11   -1    0    0    0    0  0.00000000000E+00  0.00000000000E+00  0.34996269501E-01  0.35000000000E-01  0.51099999109E-03 0. -1.
       11   -1    0    0    0    0 -0.00000000000E+00 -0.00000000000E+00 -0.34996269501E-01  0.35000000000E-01  0.51099999109E-03 0.  1.
       22    1    1    2    0    0  0.14651029615E-06 -0.27008576581E-07  0.12015962729E-04  0.12016886246E-04  0.00000000000E+00 0. -1.
       22    1    1    2    0    0  0.10915995938E-02 -0.20113670883E-01  0.28609152056E-01  0.34989068685E-01  0.00000000000E+00 0. -1.
       22    1    1    2    0    0 -0.10917461041E-02  0.20113697892E-01 -0.28621168019E-01  0.34998914429E-01  0.00000000000E+00 0.  1.
</event>
<event>
 5   0  0.1496444E+06  0.9118800E+02  0.7546771E-02  0.1180000E+00
      -11   -1    0    0    0    0  0.00000000000E+00  0.00000000000E+00  0.34996269501E-01  0.35000000000E-01  0.51099999109E-03 0. -1.
       11   -1    0    0    0    0 -0.00000000000E+00 -0.00000000000E+00 -0.34996269501E-01  0.35000000000E-01  0.51099999109E-03 0.  1.
       22    1    1    2    0    0 -0.10417353048E-01  0.32209778005E-01 -0.88886111019E-02  0.34999977871E-01  0.00000000000E+00 0.  1.
       22    1    1    2    0    0  0.10417337044E-01 -0.32209780366E-01  0.88885511810E-02  0.34999960063E-01  0.00000000000E+00 0. -1.
       22    1    1    2    0    0  0.16004578512E-07  0.23609570031E-08  0.59920883690E-07  0.62066359274E-07  0.00000000000E+00 0.  1.
</event>
<event>
 5   0  0.1496444E+06  0.9118800E+02  0.7546771E-02  0.1180000E+00
      -11   -1    0    0    0    0  0.00000000000E+00  0.00000000000E+00  0.34996269501E-01  0.35000000000E-01  0.51099999109E-03 0.  1.
       11   -1    0    0    0    0 -0.00000000000E+00 -0.00000000000E+00 -0.34996269501E-01  0.35000000000E-01  0.51099999109E-03 0. -1.
       22    1    1    2    0    0 -0.19407699140E-03 -0.14380633967E-03 -0.46724393918E-02  0.46786788747E-02  0.00000000000E+00 0. -1.
       22    1    1    2    0    0 -0.24728624151E-01 -0.18615119635E-01 -0.74819111888E-02  0.31843469134E-01  0.00000000000E+00 0.  1.
       22    1    1    2    0    0  0.24922701142E-01  0.18758925974E-01  0.12154350581E-01  0.33477851992E-01  0.00000000000E+00 0. -1.
</event>
<event>
 5   0  0.1496444E+06  0.9118800E+02  0.7546771E-02  0.1180000E+00
      -11   -1    0    0    0    0  0.00000000000E+00  0.00000000000E+00  0.34996269501E-01  0.35000000000E-01  0.51099999109E-03 0.  1.
       11   -1    0    0    0    0 -0.00000000000E+00 -0.00000000000E+00 -0.34996269501E-01  0.35000000000E-01  0.51099999109E-03 0. -1.
       22    1    1    2    0    0  0.18868369238E-02  0.24216104390E-02 -0.34865082899E-01  0.34999976517E-01  0.00000000000E+00 0. -1.
       22    1    1    2    0    0 -0.18854965109E-02 -0.24210243862E-02  0.34856768279E-01  0.34991581145E-01  0.00000000000E+00 0.  1.
       22    1    1    2    0    0 -0.13404128192E-05 -0.58605284330E-06  0.83146192289E-05  0.84423371991E-05  0.00000000000E+00 0.  1.
</event>
<event>
 5   0  0.1496444E+06  0.9118800E+02  0.7546771E-02  0.1180000E+00
      -11   -1    0    0    0    0  0.00000000000E+00  0.00000000000E+00  0.34996269501E-01  0.35000000000E-01  0.51099999109E-03 0.  1.
       11   -1    0    0    0    0 -0.00000000000E+00 -0.00000000000E+00 -0.34996269501E-01  0.35000000000E-01  0.51099999109E-03 0. -1.
       22    1    1    2    0    0 -0.96140059531E-02 -0.18970795170E-01  0.27796843679E-01  0.34999781405E-01  0.00000000000E+00 0.  1.
       22    1    1    2    0    0  0.75013222093E-08  0.10191823833E-08  0.24505979400E-06  0.24517669384E-06  0.00000000000E+00 0. -1.
       22    1    1    2    0    0  0.96139984518E-02  0.18970794151E-01 -0.27797088739E-01  0.34999973419E-01  0.00000000000E+00 0. -1.
</event>
<event>
 5   0  0.1496444E+06  0.9118800E+02  0.7546771E-02  0.1180000E+00
      -11   -1    0    0    0    0  0.00000000000E+00  0.00000000000E+00  0.34996269501E-01  0.35000000000E-01  0.51099999109E-03 0.  1.
       11   -1    0    0    0    0 -0.00000000000E+00 -0.00000000000E+00 -0.34996269501E-01  0.35000000000E-01  0.51099999109E-03 0. -1.
       22    1    1    2    0    0 -0.74785557895E-02  0.18970691890E-01  0.29426168509E-02  0.20602789651E-01  0.00000000000E+00 0.  1.
       22    1    1    2    0    0  0.95270391976E-02  0.80914198959E-02  0.12907919291E-01  0.17968025273E-01  0.00000000000E+00 0. -1.
       22    1    1    2    0    0 -0.20484834082E-02 -0.27062111785E-01 -0.15850536142E-01  0.31429185076E-01  0.00000000000E+00 0. -1.
</event>
<event>
 5   0  0.1496444E+06  0.9118800E+02  0.7546771E-02  0.1180000E+00
      -11   -1    0    0    0    0  0.00000000000E+00  0.00000000000E+00  0.34996269501E-01  0.35000000000E-01  0.51099999109E-03 0.  1.
       11   -1    0    0    0    0 -0.00000000000E+00 -0.00000000000E+00 -0.34996269501E-01  0.35000000000E-01  0.51099999109E-03 0. -1.
       22    1    1    2    0    0  0.18861513906E-03 -0.17165180183E-03 -0.34836486825E-01  0.34837420317E-01  0.00000000000E+00 0. -1.
       22    1    1    2    0    0 -0.21329372922E-03  0.97892013400E-04  0.34989841503E-01  0.34990628538E-01  0.00000000000E+00 0.  1.
       22    1    1    2    0    0  0.24678590161E-04  0.73759788432E-04 -0.15335467796E-03  0.17195114555E-03  0.00000000000E+00 0.  1.
</event>
<event>
 5   0  0.1496444E+06  0.9118800E+02  0.7546771E-02  0.1180000E+00
      -11   -1    0    0    0    0  0.00000000000E+00  0.00000000000E+00  0.34996269501E-01  0.35000000000E-01  0.51099999109E-03 0. -1.
       11   -1    0    0    0    0 -0.00000000000E+00 -0.00000000000E+00 -0.34996269501E-01  0.35000000000E-01  0.51099999109E-03 0.  1.
       22    1    1    2    0    0  0.42925809816E-02 -0.42702415507E-02  0.34454517353E-01  0.34982495343E-01  0.00000000000E+00 0. -1.
       22    1    1    2    0    0 -0.42932388240E-02  0.42700192346E-02 -0.34472121161E-01  0.34999887159E-01  0.00000000000E+00 0.  1.
       22    1    1    2    0    0  0.65784233582E-06  0.22231609330E-06  0.17603807717E-04  0.17617497754E-04  0.00000000000E+00 0.  1.
</event>
<event>
 5   0  0.1496444E+06  0.9118800E+02  0.7546771E-02  0.1180000E+00
      -11   -1    0    0    0    0  0.00000000000E+00  0.00000000000E+00  0.34996269501E-01  0.35000000000E-01  0.51099999109E-03 0.  1.
       11   -1    0    0    0    0 -0.00000000000E+00 -0.00000000000E+00 -0.34996269501E-01  0.35000000000E-01  0.51099999109E-03 0. -1.
       22    1    1    2    0    0 -0.15644854917E-01  0.28608740817E-01 -0.12719139305E-01  0.34999972017E-01  0.00000000000E+00 0. -1.
       22    1    1    2    0    0  0.15644853074E-01 -0.28608742686E-01  0.12719052558E-01  0.34999941197E-01  0.00000000000E+00 0.  1.
       22    1    1    2    0    0  0.18432746647E-08  0.18693990957E-08  0.86746777070E-07  0.86786494609E-07  0.00000000000E+00 0.  1.
</event>
<event>
 5   0  0.1496444E+06  0.9118800E+02  0.7546771E-02  0.1180000E+00
      -11   -1    0    0    0    0  0.00000000000E+00  0.00000000000E+00  0.34996269501E-01  0.35000000000E-01  0.51099999109E-03 0. -1.
       11   -1    0    0    0    0 -0.00000000000E+00 -0.00000000000E+00 -0.34996269501E-01  0.35000000000E-01  0.51099999109E-03 0.  1.
       22    1    1    2    0    0  0.69064630831E-02 -0.63296338712E-02 -0.33541697470E-01  0.34825406910E-01  0.00000000000E+00 0.  1.
       22    1    1    2    0    0 -0.67404975889E-02  0.44807538439E-02  0.30922794660E-01  0.31964522401E-01  0.00000000000E+00 0. -1.
       22    1    1    2    0    0 -0.16596549421E-03  0.18488800272E-02  0.26189028104E-02  0.32100706893E-02  0.00000000000E+00 0. -1.
</event>
<event>
 5   0  0.1496444E+06  0.9118800E+02  0.7546771E-02  0.1180000E+00
      -11   -1    0    0    0    0  0.00000000000E+00  0.00000000000E+00  0.34996269501E-01  0.35000000000E-01  0.51099999109E-03 0.  1.
       11   -1    0    0    0    0 -0.00000000000E+00 -0.00000000000E+00 -0.34996269501E-01  0.35000000000E-01  0.51099999109E-03 0. -1.
       22    1    1    2    0    0 -0.50728177289E-03  0.60680138274E-02 -0.34465905724E-01  0.34999668341E-01  0.00000000000E+00 0. -1.
       22    1    1    2    0    0  0.51040806100E-03 -0.60679246213E-02  0.34456006567E-01  0.34989950188E-01  0.00000000000E+00 0.  1.
       22    1    1    2    0    0 -0.31262881157E-05 -0.89206108976E-07  0.98991571526E-05  0.10381471353E-04  0.00000000000E+00 0.  1.
</event>
<event>
 5   0  0.1496444E+06  0.9118800E+02  0.7546771E-02  0.1180000E+00
      -11   -1    0    0    0    0  0.00000000000E+00  0.00000000000E+00  0.34996269501E-01  0.35000000000E-01  0.51099999109E-03 0. -1.
       11   -1    0    0    0    0 -0.00000000000E+00 -0.00000000000E+00 -0.34996269501E-01  0.35000000000E-01  0.51099999109E-03 0.  1.
       22    1    1    2    0    0 -0.36132232234E-02 -0.27328238518E-02  0.32941848461E-01  0.33251903529E-01  0.00000000000E+00 0. -1.
       22    1    1    2    0    0  0.22975498954E-02  0.23459906168E-02 -0.34509441597E-01  0.34665313598E-01  0.00000000000E+00 0.  1.
       22    1    1    2    0    0  0.13156733280E-02  0.38683323503E-03  0.15675931360E-02  0.20827828734E-02  0.00000000000E+00 0. -1.
</event>
<event>
 5   0  0.1496444E+06  0.9118800E+02  0.7546771E-02  0.1180000E+00
      -11   -1    0    0    0    0  0.00000000000E+00  0.00000000000E+00  0.34996269501E-01  0.35000000000E-01  0.51099999109E-03 0.  1.
       11   -1    0    0    0    0 -0.00000000000E+00 -0.00000000000E+00 -0.34996269501E-01  0.35000000000E-01  0.51099999109E-03 0. -1.
       22    1    1    2    0    0  0.53901178572E-02 -0.51890669042E-02 -0.33935628863E-01  0.34750635853E-01  0.00000000000E+00 0. -1.
       22    1    1    2    0    0  0.75786282241E-03  0.35358634880E-03  0.65590086223E-03  0.10628195071E-02  0.00000000000E+00 0.  1.
       22    1    1    2    0    0 -0.61479806796E-02  0.48354805554E-02  0.33279728001E-01  0.34186544640E-01  0.00000000000E+00 0.  1.
</event>
<event>
 5   0  0.1496444E+06  0.9118800E+02  0.7546771E-02  0.1180000E+00
      -11   -1    0    0    0    0  0.00000000000E+00  0.00000000000E+00  0.34996269501E-01  0.35000000000E-01  0.51099999109E-03 0.  1.
       11   -1    0    0    0    0 -0.00000000000E+00 -0.00000000000E+00 -0.34996269501E-01  0.35000000000E-01  0.51099999109E-03 0. -1.
       22    1    1    2    0    0  0.32514731982E-02  0.77714893923E-03 -0.34798178670E-01  0.34958393515E-01  0.00000000000E+00 0. -1.
       22    1    1    2    0    0  0.38841518744E-03 -0.18654409344E-03  0.41935431113E-02  0.42156220043E-02  0.00000000000E+00 0. -1.
       22    1    1    2    0    0 -0.36398883856E-02 -0.59060484579E-03  0.30604635558E-01  0.30825984481E-01  0.00000000000E+00 0.  1.
</event>
<event>
 5   0  0.1496444E+06  0.9118800E+02  0.7546771E-02  0.1180000E+00
      -11   -1    0    0    0    0  0.00000000000E+00  0.00000000000E+00  0.34996269501E-01  0.35000000000E-01  0.51099999109E-03 0. -1.
       11   -1    0    0    0    0 -0.00000000000E+00 -0.00000000000E+00 -0.34996269501E-01  0.35000000000E-01  0.51099999109E-03 0.  1.
       22    1    1    2    0    0 -0.45269111123E-02  0.41143224403E-02  0.27651547923E-01  0.28320110803E-01  0.00000000000E+00 0. -1.
       22    1    1    2    0    0 -0.50139217363E-03  0.11482099346E-03  0.66928867937E-02  0.67126233029E-02  0.00000000000E+00 0. -1.
       22    1    1    2    0    0  0.50283032859E-02 -0.42291434337E-02 -0.34344434717E-01  0.34967265894E-01  0.00000000000E+00 0.  1.
</event>
<event>
 5   0  0.1496444E+06  0.9118800E+02  0.7546771E-02  0.1180000E+00
      -11   -1    0    0    0    0  0.00000000000E+00  0.00000000000E+00  0.34996269501E-01  0.35000000000E-01  0.51099999109E-03 0.  1.
       11   -1    0    0    0    0 -0.00000000000E+00 -0.00000000000E+00 -0.34996269501E-01  0.35000000000E-01  0.51099999109E-03 0. -1.
       22    1    1    2    0    0  0.84381064398E-04  0.18961895801E-04 -0.10023136880E-02  0.10060379946E-02  0.00000000000E+00 0. -1.
       22    1    1    2    0    0  0.16980613408E-01 -0.15356958375E-01 -0.25279082326E-01  0.34105855883E-01  0.00000000000E+00 0. -1.
       22    1    1    2    0    0 -0.17064994472E-01  0.15337996480E-01  0.26281396014E-01  0.34888106122E-01  0.00000000000E+00 0.  1.
</event>
<event>
 5   0  0.1496444E+06  0.9118800E+02  0.7546771E-02  0.1180000E+00
      -11   -1    0    0    0    0  0.00000000000E+00  0.00000000000E+00  0.34996269501E-01  0.35000000000E-01  0.51099999109E-03 0.  1.
       11   -1    0    0    0    0 -0.00000000000E+00 -0.00000000000E+00 -0.34996269501E-01  0.35000000000E-01  0.51099999109E-03 0. -1.
       22    1    1    2    0    0  0.55701780371E-06 -0.33785366788E-05 -0.96053339769E-04  0.96114353037E-04  0.00000000000E+00 0.  1.
       22    1    1    2    0    0  0.19412637336E-01 -0.10337250547E-01  0.27212016883E-01  0.34988613863E-01  0.00000000000E+00 0.  1.
       22    1    1    2    0    0 -0.19413194354E-01  0.10340629084E-01 -0.27115963543E-01  0.34915271784E-01  0.00000000000E+00 0. -1.
</event>
<event>
 5   0  0.1496444E+06  0.9118800E+02  0.7546771E-02  0.1180000E+00
      -11   -1    0    0    0    0  0.00000000000E+00  0.00000000000E+00  0.34996269501E-01  0.35000000000E-01  0.51099999109E-03 0. -1.
       11   -1    0    0    0    0 -0.00000000000E+00 -0.00000000000E+00 -0.34996269501E-01  0.35000000000E-01  0.51099999109E-03 0.  1.
       22    1    1    2    0    0  0.98203801986E-03  0.55451269803E-03  0.29449867854E-02  0.31535424796E-02  0.00000000000E+00 0. -1.
       22    1    1    2    0    0  0.45891010351E-02  0.14487512953E-02 -0.34452788552E-01  0.34787258697E-01  0.00000000000E+00 0.  1.
       22    1    1    2    0    0 -0.55711390550E-02 -0.20032639934E-02  0.31507801767E-01  0.32059198823E-01  0.00000000000E+00 0. -1.
</event>
<event>
 5   0  0.1496444E+06  0.9118800E+02  0.7546771E-02  0.1180000E+00
      -11   -1    0    0    0    0  0.00000000000E+00  0.00000000000E+00  0.34996269501E-01  0.35000000000E-01  0.51099999109E-03 0.  1.
       11   -1    0    0    0    0 -0.00000000000E+00 -0.00000000000E+00 -0.34996269501E-01  0.35000000000E-01  0.51099999109E-03 0.  1.
       22    1    1    2    0    0 -0.76420515151E-08 -0.10700119099E-06  0.34998754512E-01  0.34998723119E-01  0.00000000000E+00 0.  1.
       22    1    1    2    0    0  0.76416407847E-08  0.10699544010E-06  0.12746272531E-05  0.12791329303E-05  0.00000000000E+00 0.  1.
       22    1    1    2    0    0  0.41073040624E-12  0.57508958895E-11 -0.35000029140E-01  0.34999997748E-01  0.00000000000E+00 0.  1.
</event>
<event>
 5   0  0.1496444E+06  0.9118800E+02  0.7546771E-02  0.1180000E+00
      -11   -1    0    0    0    0  0.00000000000E+00  0.00000000000E+00  0.34996269501E-01  0.35000000000E-01  0.51099999109E-03 0.  1.
       11   -1    0    0    0    0 -0.00000000000E+00 -0.00000000000E+00 -0.34996269501E-01  0.35000000000E-01  0.51099999109E-03 0.  1.
       22    1    1    2    0    0 -0.39361557264E-06  0.93111600065E-07  0.31514931144E-07  0.40570454764E-06  0.00000000000E+00 0.  1.
       22    1    1    2    0    0  0.43350128436E-03 -0.39624292181E-03  0.34994856381E-01  0.34999784356E-01  0.00000000000E+00 0.  1.
       22    1    1    2    0    0 -0.43310766879E-03  0.39614981021E-03 -0.34994887896E-01  0.34999809939E-01  0.00000000000E+00 0.  1.
</event>
<event>
 5   0  0.1496444E+06  0.9118800E+02  0.7546771E-02  0.1180000E+00
      -11   -1    0    0    0    0  0.00000000000E+00  0.00000000000E+00  0.34996269501E-01  0.35000000000E-01  0.51099999109E-03 0.  1.
       11   -1    0    0    0    0 -0.00000000000E+00 -0.00000000000E+00 -0.34996269501E-01  0.35000000000E-01  0.51099999109E-03 0. -1.
       22    1    1    2    0    0 -0.78769219692E-04 -0.41880380684E-03 -0.34444403695E-01  0.34447039744E-01  0.00000000000E+00 0. -1.
       22    1    1    2    0    0  0.22623867807E-03  0.42865408253E-03  0.34987120878E-01  0.34990478070E-01  0.00000000000E+00 0.  1.
       22    1    1    2    0    0 -0.14746945838E-03 -0.98502756875E-05 -0.54271718232E-03  0.56248218555E-03  0.00000000000E+00 0. -1.
</event>
<event>
 5   0  0.1496444E+06  0.9118800E+02  0.7546771E-02  0.1180000E+00
      -11   -1    0    0    0    0  0.00000000000E+00  0.00000000000E+00  0.34996269501E-01  0.35000000000E-01  0.51099999109E-03 0.  1.
       11   -1    0    0    0    0 -0.00000000000E+00 -0.00000000000E+00 -0.34996269501E-01  0.35000000000E-01  0.51099999109E-03 0. -1.
       22    1    1    2    0    0 -0.61190746601E-02 -0.20654376329E-02  0.34387442984E-01  0.34988645906E-01  0.00000000000E+00 0.  1.
       22    1    1    2    0    0  0.61585260911E-02  0.19528868362E-02 -0.33796382708E-01  0.34408381171E-01  0.00000000000E+00 0. -1.
       22    1    1    2    0    0 -0.39451430943E-04  0.11255079667E-03 -0.59106027582E-03  0.60297292384E-03  0.00000000000E+00 0.  1.
</event>
<event>
 5   0  0.1496444E+06  0.9118800E+02  0.7546771E-02  0.1180000E+00
      -11   -1    0    0    0    0  0.00000000000E+00  0.00000000000E+00  0.34996269501E-01  0.35000000000E-01  0.51099999109E-03 0. -1.
       11   -1    0    0    0    0 -0.00000000000E+00 -0.00000000000E+00 -0.34996269501E-01  0.35000000000E-01  0.51099999109E-03 0.  1.
       22    1    1    2    0    0 -0.92175274492E-03  0.78412555992E-03  0.35963228614E-03  0.12624644144E-02  0.00000000000E+00 0.  1.
       22    1    1    2    0    0  0.72632363713E-03  0.82105499472E-03  0.34161233777E-01  0.34178817570E-01  0.00000000000E+00 0. -1.
       22    1    1    2    0    0  0.19542910778E-03 -0.16051805546E-02 -0.34520866063E-01  0.34558718016E-01  0.00000000000E+00 0.  1.
</event>
<event>
 5   0  0.1496444E+06  0.9118800E+02  0.7546771E-02  0.1180000E+00
      -11   -1    0    0    0    0  0.00000000000E+00  0.00000000000E+00  0.34996269501E-01  0.35000000000E-01  0.51099999109E-03 0.  1.
       11   -1    0    0    0    0 -0.00000000000E+00 -0.00000000000E+00 -0.34996269501E-01  0.35000000000E-01  0.51099999109E-03 0.  1.
       22    1    1    2    0    0 -0.12079386326E-12  0.19349764863E-12 -0.35002144504E-01  0.34999999501E-01  0.00000000000E+00 0.  1.
       22    1    1    2    0    0 -0.14389662096E-08  0.23050556585E-08  0.32029482144E-08  0.42003312495E-08  0.00000000000E+00 0.  1.
       22    1    1    2    0    0  0.14390870035E-08 -0.23052491561E-08  0.35002141301E-01  0.34999996298E-01  0.00000000000E+00 0.  1.
</event>
<event>
 5   0  0.1496444E+06  0.9118800E+02  0.7546771E-02  0.1180000E+00
      -11   -1    0    0    0    0  0.00000000000E+00  0.00000000000E+00  0.34996269501E-01  0.35000000000E-01  0.51099999109E-03 0.  1.
       11   -1    0    0    0    0 -0.00000000000E+00 -0.00000000000E+00 -0.34996269501E-01  0.35000000000E-01  0.51099999109E-03 0. -1.
       22    1    1    2    0    0 -0.88291924635E-03 -0.10804807823E-02 -0.34966083016E-01  0.34993912994E-01  0.00000000000E+00 0. -1.
       22    1    1    2    0    0 -0.58225787169E-05 -0.12986933586E-03  0.12878083390E-02  0.12943532226E-02  0.00000000000E+00 0.  1.
       22    1    1    2    0    0  0.88874182506E-03  0.12103501182E-02  0.33678274677E-01  0.33711733783E-01  0.00000000000E+00 0.  1.
</event>
<event>
 5   0  0.1496444E+06  0.9118800E+02  0.7546771E-02  0.1180000E+00
      -11   -1    0    0    0    0  0.00000000000E+00  0.00000000000E+00  0.34996269501E-01  0.35000000000E-01  0.51099999109E-03 0. -1.
       11   -1    0    0    0    0 -0.00000000000E+00 -0.00000000000E+00 -0.34996269501E-01  0.35000000000E-01  0.51099999109E-03 0. -1.
       22    1    1    2    0    0  0.23696825646E-07 -0.45883957016E-07  0.45491192981E-06  0.45783374815E-06  0.00000000000E+00 0.  1.
       22    1    1    2    0    0  0.86382966486E-03  0.49531152618E-03  0.34985375911E-01  0.34999543751E-01  0.00000000000E+00 0. -1.
       22    1    1    2    0    0 -0.86385336169E-03 -0.49526564222E-03 -0.34985830823E-01  0.34999998415E-01  0.00000000000E+00 0. -1.
</event>
<event>
 5   0  0.1496444E+06  0.9118800E+02  0.7546771E-02  0.1180000E+00
      -11   -1    0    0    0    0  0.00000000000E+00  0.00000000000E+00  0.34996269501E-01  0.35000000000E-01  0.51099999109E-03 0.  1.
       11   -1    0    0    0    0 -0.00000000000E+00 -0.00000000000E+00 -0.34996269501E-01  0.35000000000E-01  0.51099999109E-03 0. -1.
       22    1    1    2    0    0  0.90831927299E-02 -0.68772594124E-02 -0.32871427709E-01  0.34789823898E-01  0.00000000000E+00 0. -1.
       22    1    1    2    0    0 -0.92752035859E-02  0.64453981305E-02  0.26312584816E-01  0.28634326923E-01  0.00000000000E+00 0.  1.
       22    1    1    2    0    0  0.19201085597E-03  0.43186128184E-03  0.65588428932E-02  0.65758491796E-02  0.00000000000E+00 0. -1.
</event>
<event>
 5   0  0.1496444E+06  0.9118800E+02  0.7546771E-02  0.1180000E+00
      -11   -1    0    0    0    0  0.00000000000E+00  0.00000000000E+00  0.34996269501E-01  0.35000000000E-01  0.51099999109E-03 0.  1.
       11   -1    0    0    0    0 -0.00000000000E+00 -0.00000000000E+00 -0.34996269501E-01  0.35000000000E-01  0.51099999109E-03 0. -1.
       22    1    1    2    0    0  0.31551368226E-03 -0.33384414091E-02  0.30021327812E-01  0.30208026475E-01  0.00000000000E+00 0.  1.
       22    1    1    2    0    0 -0.13363036847E-03  0.33760404148E-02 -0.34823093784E-01  0.34986616965E-01  0.00000000000E+00 0. -1.
       22    1    1    2    0    0 -0.18188331379E-03 -0.37599005666E-04  0.48017659713E-02  0.48053565600E-02  0.00000000000E+00 0.  1.
</event>
<event>
 5   0  0.1496444E+06  0.9118800E+02  0.7546771E-02  0.1180000E+00
      -11   -1    0    0    0    0  0.00000000000E+00  0.00000000000E+00  0.34996269501E-01  0.35000000000E-01  0.51099999109E-03 0. -1.
       11   -1    0    0    0    0 -0.00000000000E+00 -0.00000000000E+00 -0.34996269501E-01  0.35000000000E-01  0.51099999109E-03 0.  1.
       22    1    1    2    0    0  0.10625841598E-03 -0.38950135464E-03 -0.34997449783E-01  0.34999778477E-01  0.00000000000E+00 0.  1.
       22    1    1    2    0    0 -0.87584336158E-04  0.36171286727E-03  0.34250362188E-01  0.34252384110E-01  0.00000000000E+00 0. -1.
       22    1    1    2    0    0 -0.18674079825E-04  0.27788487376E-04  0.74708759462E-03  0.74783741236E-03  0.00000000000E+00 0. -1.
</event>
<event>
 5   0  0.1496444E+06  0.9118800E+02  0.7546771E-02  0.1180000E+00
      -11   -1    0    0    0    0  0.00000000000E+00  0.00000000000E+00  0.34996269501E-01  0.35000000000E-01  0.51099999109E-03 0.  1.
       11   -1    0    0    0    0 -0.00000000000E+00 -0.00000000000E+00 -0.34996269501E-01  0.35000000000E-01  0.51099999109E-03 0. -1.
       22    1    1    2    0    0 -0.26487011001E-04  0.12610279794E-03 -0.92920126504E-03  0.93809299557E-03  0.00000000000E+00 0. -1.
       22    1    1    2    0    0  0.22042202572E-01  0.25800761541E-01  0.66255124164E-02  0.34575069126E-01  0.00000000000E+00 0.  1.
       22    1    1    2    0    0 -0.22015715561E-01 -0.25926864339E-01 -0.56963111514E-02  0.34486837878E-01  0.00000000000E+00 0. -1.
</event>
<event>
 5   0  0.1496444E+06  0.9118800E+02  0.7546771E-02  0.1180000E+00
      -11   -1    0    0    0    0  0.00000000000E+00  0.00000000000E+00  0.34996269501E-01  0.35000000000E-01  0.51099999109E-03 0.  1.
       11   -1    0    0    0    0 -0.00000000000E+00 -0.00000000000E+00 -0.34996269501E-01  0.35000000000E-01  0.51099999109E-03 0. -1.
       22    1    1    2    0    0 -0.85171051736E-09 -0.87192124179E-09  0.23996400544E-08  0.26914549686E-08  0.00000000000E+00 0.  1.
       22    1    1    2    0    0  0.15883467938E-01  0.12377502608E-01  0.28627132879E-01  0.34999998020E-01  0.00000000000E+00 0.  1.
       22    1    1    2    0    0 -0.15883467086E-01 -0.12377501736E-01 -0.28627135279E-01  0.34999999288E-01  0.00000000000E+00 0. -1.
</event>
<event>
 5   0  0.1496444E+06  0.9118800E+02  0.7546771E-02  0.1180000E+00
      -11   -1    0    0    0    0  0.00000000000E+00  0.00000000000E+00  0.34996269501E-01  0.35000000000E-01  0.51099999109E-03 0. -1.
       11   -1    0    0    0    0 -0.00000000000E+00 -0.00000000000E+00 -0.34996269501E-01  0.35000000000E-01  0.51099999109E-03 0.  1.
       22    1    1    2    0    0 -0.28273628504E-02 -0.11648006054E-02  0.34863592440E-01  0.34997440177E-01  0.00000000000E+00 0. -1.
       22    1    1    2    0    0  0.14203746546E-08  0.41046453786E-07  0.25653040557E-05  0.25656328122E-05  0.00000000000E+00 0. -1.
       22    1    1    2    0    0  0.28273614301E-02  0.11647595590E-02 -0.34866157744E-01  0.34999994190E-01  0.00000000000E+00 0.  1.
</event>
<event>
 5   0  0.1496444E+06  0.9118800E+02  0.7546771E-02  0.1180000E+00
      -11   -1    0    0    0    0  0.00000000000E+00  0.00000000000E+00  0.34996269501E-01  0.35000000000E-01  0.51099999109E-03 0. -1.
       11   -1    0    0    0    0 -0.00000000000E+00 -0.00000000000E+00 -0.34996269501E-01  0.35000000000E-01  0.51099999109E-03 0.  1.
       22    1    1    2    0    0  0.86097503989E-02  0.15442508175E-01  0.30152386802E-01  0.34953759319E-01  0.00000000000E+00 0. -1.
       22    1    1    2    0    0 -0.24297369933E-04  0.41481002815E-04  0.28239831567E-04  0.55754137669E-04  0.00000000000E+00 0. -1.
       22    1    1    2    0    0 -0.85854530290E-02 -0.15483989178E-01 -0.30180626634E-01  0.34990486544E-01  0.00000000000E+00 0.  1.
</event>
<event>
 5   0  0.1496444E+06  0.9118800E+02  0.7546771E-02  0.1180000E+00
      -11   -1    0    0    0    0  0.00000000000E+00  0.00000000000E+00  0.34996269501E-01  0.35000000000E-01  0.51099999109E-03 0. -1.
       11   -1    0    0    0    0 -0.00000000000E+00 -0.00000000000E+00 -0.34996269501E-01  0.35000000000E-01  0.51099999109E-03 0.  1.
       22    1    1    2    0    0  0.20592783231E-05  0.55917972316E-05  0.79807551462E-04  0.80029707571E-04  0.00000000000E+00 0. -1.
       22    1    1    2    0    0 -0.15185816128E-02  0.52846956175E-02  0.34484580472E-01  0.34920200288E-01  0.00000000000E+00 0. -1.
       22    1    1    2    0    0  0.15165223345E-02 -0.52902874147E-02 -0.34564388023E-01  0.34999770004E-01  0.00000000000E+00 0.  1.
</event>
<event>
 5   0  0.1496444E+06  0.9118800E+02  0.7546771E-02  0.1180000E+00
      -11   -1    0    0    0    0  0.00000000000E+00  0.00000000000E+00  0.34996269501E-01  0.35000000000E-01  0.51099999109E-03 0. -1.
       11   -1    0    0    0    0 -0.00000000000E+00 -0.00000000000E+00 -0.34996269501E-01  0.35000000000E-01  0.51099999109E-03 0.  1.
       22    1    1    2    0    0  0.21803272700E-02  0.11563993155E-03 -0.34931826287E-01  0.34999995533E-01  0.00000000000E+00 0.  1.
       22    1    1    2    0    0 -0.21803748614E-02 -0.11566989080E-03  0.34929111996E-01  0.34997289594E-01  0.00000000000E+00 0. -1.
       22    1    1    2    0    0  0.47591395672E-07  0.29959249760E-07  0.27142907097E-05  0.27148732114E-05  0.00000000000E+00 0. -1.
</event>
<event>
 5   0  0.1496444E+06  0.9118800E+02  0.7546771E-02  0.1180000E+00
      -11   -1    0    0    0    0  0.00000000000E+00  0.00000000000E+00  0.34996269501E-01  0.35000000000E-01  0.51099999109E-03 0.  1.
       11   -1    0    0    0    0 -0.00000000000E+00 -0.00000000000E+00 -0.34996269501E-01  0.35000000000E-01  0.51099999109E-03 0. -1.
       22    1    1    2    0    0  0.46629086870E-05 -0.18656687191E-05  0.36020003921E-05  0.61804404389E-05  0.00000000000E+00 0. -1.
       22    1    1    2    0    0 -0.19666844985E-02  0.22596343070E-02 -0.34870458464E-01  0.34998895248E-01  0.00000000000E+00 0. -1.
       22    1    1    2    0    0  0.19620215898E-02 -0.22577686383E-02  0.34866856463E-01  0.34994924312E-01  0.00000000000E+00 0.  1.
</event>
<event>
 5   0  0.1496444E+06  0.9118800E+02  0.7546771E-02  0.1180000E+00
      -11   -1    0    0    0    0  0.00000000000E+00  0.00000000000E+00  0.34996269501E-01  0.35000000000E-01  0.51099999109E-03 0.  1.
       11   -1    0    0    0    0 -0.00000000000E+00 -0.00000000000E+00 -0.34996269501E-01  0.35000000000E-01  0.51099999109E-03 0. -1.
       22    1    1    2    0    0  0.11276812711E-06  0.21750083260E-06  0.14612472627E-05  0.14816432855E-05  0.00000000000E+00 0.  1.
       22    1    1    2    0    0 -0.28323625708E-01  0.99660256881E-02  0.17982587416E-01  0.34998898432E-01  0.00000000000E+00 0.  1.
       22    1    1    2    0    0  0.28323512940E-01 -0.99662431890E-02 -0.17984048663E-01  0.34999619925E-01  0.00000000000E+00 0. -1.
</event>
<event>
 5   0  0.1496444E+06  0.9118800E+02  0.7546771E-02  0.1180000E+00
      -11   -1    0    0    0    0  0.00000000000E+00  0.00000000000E+00  0.34996269501E-01  0.35000000000E-01  0.51099999109E-03 0.  1.
       11   -1    0    0    0    0 -0.00000000000E+00 -0.00000000000E+00 -0.34996269501E-01  0.35000000000E-01  0.51099999109E-03 0. -1.
       22    1    1    2    0    0 -0.19040081136E-01 -0.53905849922E-02  0.24281751068E-01  0.31323897126E-01  0.00000000000E+00 0.  1.
       22    1    1    2    0    0  0.18911434291E-01  0.53670163523E-02 -0.28408695479E-01  0.34547086567E-01  0.00000000000E+00 0. -1.
       22    1    1    2    0    0  0.12864684475E-03  0.23568639903E-04  0.41269444109E-02  0.41290163069E-02  0.00000000000E+00 0. -1.
</event>
<event>
 5   0  0.1496444E+06  0.9118800E+02  0.7546771E-02  0.1180000E+00
      -11   -1    0    0    0    0  0.00000000000E+00  0.00000000000E+00  0.34996269501E-01  0.35000000000E-01  0.51099999109E-03 0. -1.
       11   -1    0    0    0    0 -0.00000000000E+00 -0.00000000000E+00 -0.34996269501E-01  0.35000000000E-01  0.51099999109E-03 0.  1.
       22    1    1    2    0    0  0.87743022647E-05  0.43771593958E-05  0.51308705422E-03  0.51318074118E-03  0.00000000000E+00 0. -1.
       22    1    1    2    0    0 -0.19354477254E-02  0.41127862983E-03  0.34430690643E-01  0.34487498694E-01  0.00000000000E+00 0. -1.
       22    1    1    2    0    0  0.19266734232E-02 -0.41565578923E-03 -0.34943777697E-01  0.34999320565E-01  0.00000000000E+00 0.  1.
</event>
<event>
 5   0  0.1496444E+06  0.9118800E+02  0.7546771E-02  0.1180000E+00
      -11   -1    0    0    0    0  0.00000000000E+00  0.00000000000E+00  0.34996269501E-01  0.35000000000E-01  0.51099999109E-03 0. -1.
       11   -1    0    0    0    0 -0.00000000000E+00 -0.00000000000E+00 -0.34996269501E-01  0.35000000000E-01  0.51099999109E-03 0.  1.
       22    1    1    2    0    0 -0.11900501837E-02 -0.12207569331E-02  0.34749551025E-01  0.34791346098E-01  0.00000000000E+00 0. -1.
       22    1    1    2    0    0  0.11940134407E-02  0.12213970059E-02 -0.34958231561E-01  0.34999934752E-01  0.00000000000E+00 0.  1.
       22    1    1    2    0    0 -0.39632570256E-05 -0.64007280251E-06  0.20868053667E-03  0.20871914977E-03  0.00000000000E+00 0.  1.
</event>
<event>
 5   0  0.1496444E+06  0.9118800E+02  0.7546771E-02  0.1180000E+00
      -11   -1    0    0    0    0  0.00000000000E+00  0.00000000000E+00  0.34996269501E-01  0.35000000000E-01  0.51099999109E-03 0.  1.
       11   -1    0    0    0    0 -0.00000000000E+00 -0.00000000000E+00 -0.34996269501E-01  0.35000000000E-01  0.51099999109E-03 0.  1.
       22    1    1    2    0    0  0.44480118030E-06 -0.14963963339E-06  0.34994544559E-01  0.34993891068E-01  0.00000000000E+00 0.  1.
       22    1    1    2    0    0 -0.44477331773E-06  0.14963025988E-06  0.60998650524E-05  0.61178890295E-05  0.00000000000E+00 0. -1.
       22    1    1    2    0    0 -0.27862575833E-10  0.93735039775E-11 -0.35000644424E-01  0.34999991043E-01  0.00000000000E+00 0.  1.
</event>
<event>
 5   0  0.1496444E+06  0.9118800E+02  0.7546771E-02  0.1180000E+00
      -11   -1    0    0    0    0  0.00000000000E+00  0.00000000000E+00  0.34996269501E-01  0.35000000000E-01  0.51099999109E-03 0. -1.
       11   -1    0    0    0    0 -0.00000000000E+00 -0.00000000000E+00 -0.34996269501E-01  0.35000000000E-01  0.51099999109E-03 0.  1.
       22    1    1    2    0    0  0.32919993802E-01  0.72897660214E-02  0.93879290538E-02  0.34999998464E-01  0.00000000000E+00 0. -1.
       22    1    1    2    0    0 -0.32919994540E-01 -0.72897675005E-02 -0.93879298790E-02  0.34999999688E-01  0.00000000000E+00 0.  1.
       22    1    1    2    0    0  0.73811736636E-09  0.14790877048E-08  0.82521235134E-09  0.18475641017E-08  0.00000000000E+00 0.  1.
</event>
<event>
 5   0  0.1496444E+06  0.9118800E+02  0.7546771E-02  0.1180000E+00
      -11   -1    0    0    0    0  0.00000000000E+00  0.00000000000E+00  0.34996269501E-01  0.35000000000E-01  0.51099999109E-03 0.  1.
       11   -1    0    0    0    0 -0.00000000000E+00 -0.00000000000E+00 -0.34996269501E-01  0.35000000000E-01  0.51099999109E-03 0. -1.
       22    1    1    2    0    0  0.29370909471E-02 -0.36058091735E-02  0.34685072870E-01  0.34995466035E-01  0.00000000000E+00 0.  1.
       22    1    1    2    0    0 -0.29374097409E-02  0.36059720841E-02 -0.34689598062E-01  0.34999994633E-01  0.00000000000E+00 0. -1.
       22    1    1    2    0    0  0.31879375482E-06 -0.16291057746E-06  0.45251916939E-05  0.45393313583E-05  0.00000000000E+00 0.  1.
</event>
<event>
 5   0  0.1496444E+06  0.9118800E+02  0.7546771E-02  0.1180000E+00
      -11   -1    0    0    0    0  0.00000000000E+00  0.00000000000E+00  0.34996269501E-01  0.35000000000E-01  0.51099999109E-03 0.  1.
       11   -1    0    0    0    0 -0.00000000000E+00 -0.00000000000E+00 -0.34996269501E-01  0.35000000000E-01  0.51099999109E-03 0. -1.
       22    1    1    2    0    0  0.48149661293E-02 -0.17187806204E-01  0.30103885365E-01  0.34997835576E-01  0.00000000000E+00 0.  1.
       22    1    1    2    0    0 -0.30406244623E-06  0.59455482931E-07  0.23543920198E-05  0.23746896026E-05  0.00000000000E+00 0.  1.
       22    1    1    2    0    0 -0.48146620669E-02  0.17187746749E-01 -0.30106239757E-01  0.34999789734E-01  0.00000000000E+00 0. -1.
</event>
<event>
 5   0  0.1496444E+06  0.9118800E+02  0.7546771E-02  0.1180000E+00
      -11   -1    0    0    0    0  0.00000000000E+00  0.00000000000E+00  0.34996269501E-01  0.35000000000E-01  0.51099999109E-03 0.  1.
       11   -1    0    0    0    0 -0.00000000000E+00 -0.00000000000E+00 -0.34996269501E-01  0.35000000000E-01  0.51099999109E-03 0. -1.
       22    1    1    2    0    0  0.61286343531E-02  0.33841628297E-01 -0.64947277708E-02  0.34999963623E-01  0.00000000000E+00 0. -1.
       22    1    1    2    0    0 -0.61286458975E-02 -0.33841661576E-01  0.64947027750E-02  0.34999993184E-01  0.00000000000E+00 0.  1.
       22    1    1    2    0    0  0.11544379120E-07  0.33279314773E-07  0.24995847960E-07  0.43192336083E-07  0.00000000000E+00 0. -1.
</event>
<event>
 5   0  0.1496444E+06  0.9118800E+02  0.7546771E-02  0.1180000E+00
      -11   -1    0    0    0    0  0.00000000000E+00  0.00000000000E+00  0.34996269501E-01  0.35000000000E-01  0.51099999109E-03 0. -1.
       11   -1    0    0    0    0 -0.00000000000E+00 -0.00000000000E+00 -0.34996269501E-01  0.35000000000E-01  0.51099999109E-03 0.  1.
       22    1    1    2    0    0  0.22433785366E-02  0.59813225250E-03 -0.34882548617E-01  0.34959729796E-01  0.00000000000E+00 0.  1.
       22    1    1    2    0    0 -0.22648454756E-02 -0.54618323975E-03  0.34902840062E-01  0.34980510082E-01  0.00000000000E+00 0. -1.
       22    1    1    2    0    0  0.21466938931E-04 -0.51949012750E-04 -0.20291445863E-04  0.59760121888E-04  0.00000000000E+00 0. -1.
</event>
<event>
 5   0  0.1496444E+06  0.9118800E+02  0.7546771E-02  0.1180000E+00
      -11   -1    0    0    0    0  0.00000000000E+00  0.00000000000E+00  0.34996269501E-01  0.35000000000E-01  0.51099999109E-03 0. -1.
       11   -1    0    0    0    0 -0.00000000000E+00 -0.00000000000E+00 -0.34996269501E-01  0.35000000000E-01  0.51099999109E-03 0.  1.
       22    1    1    2    0    0 -0.19404288554E-01 -0.85416577092E-02  0.27848041400E-01  0.34999996294E-01  0.00000000000E+00 0. -1.
       22    1    1    2    0    0  0.68537696245E-09  0.18003835829E-08  0.43579599127E-08  0.47647599338E-08  0.00000000000E+00 0. -1.
       22    1    1    2    0    0  0.19404287869E-01  0.85416559088E-02 -0.27848045758E-01  0.34999998942E-01  0.00000000000E+00 0.  1.
</event>
<event>
 5   0  0.1496444E+06  0.9118800E+02  0.7546771E-02  0.1180000E+00
      -11   -1    0    0    0    0  0.00000000000E+00  0.00000000000E+00  0.34996269501E-01  0.35000000000E-01  0.51099999109E-03 0.  1.
       11   -1    0    0    0    0 -0.00000000000E+00 -0.00000000000E+00 -0.34996269501E-01  0.35000000000E-01  0.51099999109E-03 0. -1.
       22    1    1    2    0    0  0.40298487923E-07  0.37626636811E-07  0.60622939574E-06  0.60873131363E-06  0.00000000000E+00 0. -1.
       22    1    1    2    0    0  0.28380982114E-01 -0.20408980188E-01 -0.17241652130E-02  0.34999705195E-01  0.00000000000E+00 0.  1.
       22    1    1    2    0    0 -0.28381022413E-01  0.20408942561E-01  0.17235589836E-02  0.34999686073E-01  0.00000000000E+00 0. -1.
</event>
<event>
 5   0  0.1496444E+06  0.9118800E+02  0.7546771E-02  0.1180000E+00
      -11   -1    0    0    0    0  0.00000000000E+00  0.00000000000E+00  0.34996269501E-01  0.35000000000E-01  0.51099999109E-03 0. -1.
       11   -1    0    0    0    0 -0.00000000000E+00 -0.00000000000E+00 -0.34996269501E-01  0.35000000000E-01  0.51099999109E-03 0.  1.
       22    1    1    2    0    0  0.97921256672E-03 -0.15219784171E-01  0.31502274991E-01  0.34999914530E-01  0.00000000000E+00 0. -1.
       22    1    1    2    0    0  0.20213925968E-07 -0.24950487978E-07  0.80719566258E-07  0.86872193654E-07  0.00000000000E+00 0.  1.
       22    1    1    2    0    0 -0.97923278065E-03  0.15219809122E-01 -0.31502355711E-01  0.34999998598E-01  0.00000000000E+00 0.  1.
</event>
<event>
 5   0  0.1496444E+06  0.9118800E+02  0.7546771E-02  0.1180000E+00
      -11   -1    0    0    0    0  0.00000000000E+00  0.00000000000E+00  0.34996269501E-01  0.35000000000E-01  0.51099999109E-03 0.  1.
       11   -1    0    0    0    0 -0.00000000000E+00 -0.00000000000E+00 -0.34996269501E-01  0.35000000000E-01  0.51099999109E-03 0.  1.
       22    1    1    2    0    0 -0.59994341624E-03 -0.17093184027E-03  0.34955634452E-01  0.34961200347E-01  0.00000000000E+00 0.  1.
       22    1    1    2    0    0  0.61026957633E-03  0.17035518726E-03 -0.34993658563E-01  0.34999394131E-01  0.00000000000E+00 0.  1.
       22    1    1    2    0    0 -0.10326160095E-04  0.57665301867E-06  0.38024111619E-04  0.39405522144E-04  0.00000000000E+00 0. -1.
</event>
<event>
 5   0  0.1496444E+06  0.9118800E+02  0.7546771E-02  0.1180000E+00
      -11   -1    0    0    0    0  0.00000000000E+00  0.00000000000E+00  0.34996269501E-01  0.35000000000E-01  0.51099999109E-03 0.  1.
       11   -1    0    0    0    0 -0.00000000000E+00 -0.00000000000E+00 -0.34996269501E-01  0.35000000000E-01  0.51099999109E-03 0. -1.
       22    1    1    2    0    0 -0.42910467048E-06  0.29118945927E-06  0.39967853166E-04  0.39971217254E-04  0.00000000000E+00 0.  1.
       22    1    1    2    0    0 -0.41401680967E-02 -0.11003907659E-01 -0.32965026260E-01  0.34998856152E-01  0.00000000000E+00 0. -1.
       22    1    1    2    0    0  0.41405972013E-02  0.11003616470E-01  0.32925058407E-01  0.34961172630E-01  0.00000000000E+00 0.  1.
</event>
<event>
 5   0  0.1496444E+06  0.9118800E+02  0.7546771E-02  0.1180000E+00
      -11   -1    0    0    0    0  0.00000000000E+00  0.00000000000E+00  0.34996269501E-01  0.35000000000E-01  0.51099999109E-03 0. -1.
       11   -1    0    0    0    0 -0.00000000000E+00 -0.00000000000E+00 -0.34996269501E-01  0.35000000000E-01  0.51099999109E-03 0.  1.
       22    1    1    2    0    0 -0.19217519907E-02  0.11890002870E-02 -0.34926932203E-01  0.34999963507E-01  0.00000000000E+00 0.  1.
       22    1    1    2    0    0  0.19217315165E-02 -0.11894861616E-02  0.34924727608E-01  0.34997778898E-01  0.00000000000E+00 0. -1.
       22    1    1    2    0    0  0.20474204087E-07  0.48587462272E-06  0.22045951537E-05  0.22575945459E-05  0.00000000000E+00 0. -1.
</event>
<event>
 5   0  0.1496444E+06  0.9118800E+02  0.7546771E-02  0.1180000E+00
      -11   -1    0    0    0    0  0.00000000000E+00  0.00000000000E+00  0.34996269501E-01  0.35000000000E-01  0.51099999109E-03 0. -1.
       11   -1    0    0    0    0 -0.00000000000E+00 -0.00000000000E+00 -0.34996269501E-01  0.35000000000E-01  0.51099999109E-03 0.  1.
       22    1    1    2    0    0 -0.10905264506E-08 -0.56968126541E-09 -0.57648635673E-10  0.12317094011E-08  0.00000000000E+00 0. -1.
       22    1    1    2    0    0 -0.91622776919E-02 -0.98045198838E-02 -0.32325284172E-01  0.34999999135E-01  0.00000000000E+00 0.  1.
       22    1    1    2    0    0  0.91622787824E-02  0.98045204535E-02  0.32325284230E-01  0.34999999633E-01  0.00000000000E+00 0. -1.
</event>
<event>
 5   0  0.1496444E+06  0.9118800E+02  0.7546771E-02  0.1180000E+00
      -11   -1    0    0    0    0  0.00000000000E+00  0.00000000000E+00  0.34996269501E-01  0.35000000000E-01  0.51099999109E-03 0. -1.
       11   -1    0    0    0    0 -0.00000000000E+00 -0.00000000000E+00 -0.34996269501E-01  0.35000000000E-01  0.51099999109E-03 0.  1.
       22    1    1    2    0    0 -0.10416074175E-01  0.85229990041E-02 -0.32308879609E-01  0.34999997355E-01  0.00000000000E+00 0.  1.
       22    1    1    2    0    0  0.17682800023E-08 -0.77022555064E-09  0.77779474229E-07  0.77803384714E-07  0.00000000000E+00 0. -1.
       22    1    1    2    0    0  0.10416072407E-01 -0.85229982339E-02  0.32308801829E-01  0.34999924842E-01  0.00000000000E+00 0. -1.
</event>
<event>
 5   0  0.1496444E+06  0.9118800E+02  0.7546771E-02  0.1180000E+00
      -11   -1    0    0    0    0  0.00000000000E+00  0.00000000000E+00  0.34996269501E-01  0.35000000000E-01  0.51099999109E-03 0.  1.
       11   -1    0    0    0    0 -0.00000000000E+00 -0.00000000000E+00 -0.34996269501E-01  0.35000000000E-01  0.51099999109E-03 0. -1.
       22    1    1    2    0    0 -0.27895913323E-01  0.69546053820E-02 -0.19919268097E-01  0.34976074075E-01  0.00000000000E+00 0. -1.
       22    1    1    2    0    0 -0.43103016611E-05 -0.12787308890E-04  0.10683968917E-03  0.10768850055E-03  0.00000000000E+00 0.  1.
       22    1    1    2    0    0  0.27900223625E-01 -0.69418180731E-02  0.19812428408E-01  0.34916237425E-01  0.00000000000E+00 0.  1.
</event>
<event>
 5   0  0.1496444E+06  0.9118800E+02  0.7546771E-02  0.1180000E+00
      -11   -1    0    0    0    0  0.00000000000E+00  0.00000000000E+00  0.34996269501E-01  0.35000000000E-01  0.51099999109E-03 0.  1.
       11   -1    0    0    0    0 -0.00000000000E+00 -0.00000000000E+00 -0.34996269501E-01  0.35000000000E-01  0.51099999109E-03 0. -1.
       22    1    1    2    0    0 -0.43524743618E-03 -0.38182259114E-03  0.11493390973E-02  0.12869379093E-02  0.00000000000E+00 0.  1.
       22    1    1    2    0    0  0.38616349017E-03  0.35818951973E-02 -0.34762096558E-01  0.34948282541E-01  0.00000000000E+00 0. -1.
       22    1    1    2    0    0  0.49083946008E-04 -0.32000726062E-02  0.33612757461E-01  0.33764779550E-01  0.00000000000E+00 0.  1.
</event>
<event>
 5   0  0.1496444E+06  0.9118800E+02  0.7546771E-02  0.1180000E+00
      -11   -1    0    0    0    0  0.00000000000E+00  0.00000000000E+00  0.34996269501E-01  0.35000000000E-01  0.51099999109E-03 0.  1.
       11   -1    0    0    0    0 -0.00000000000E+00 -0.00000000000E+00 -0.34996269501E-01  0.35000000000E-01  0.51099999109E-03 0. -1.
       22    1    1    2    0    0 -0.19683365808E-01 -0.19915789805E-01 -0.20995304505E-01  0.34998234017E-01  0.00000000000E+00 0. -1.
       22    1    1    2    0    0  0.19686219559E-01  0.19914090514E-01  0.20994382324E-01  0.34998318970E-01  0.00000000000E+00 0.  1.
       22    1    1    2    0    0 -0.28537510387E-05  0.16992910488E-05  0.92218005766E-06  0.34470133621E-05  0.00000000000E+00 0. -1.
</event>
<event>
 5   0  0.1496444E+06  0.9118800E+02  0.7546771E-02  0.1180000E+00
      -11   -1    0    0    0    0  0.00000000000E+00  0.00000000000E+00  0.34996269501E-01  0.35000000000E-01  0.51099999109E-03 0.  1.
       11   -1    0    0    0    0 -0.00000000000E+00 -0.00000000000E+00 -0.34996269501E-01  0.35000000000E-01  0.51099999109E-03 0. -1.
       22    1    1    2    0    0  0.23084370655E-01 -0.13905467929E-01 -0.22129649316E-01  0.34870784128E-01  0.00000000000E+00 0. -1.
       22    1    1    2    0    0 -0.23088187753E-01  0.13904164803E-01  0.22286363795E-01  0.34972449497E-01  0.00000000000E+00 0.  1.
       22    1    1    2    0    0  0.38170978969E-05  0.13031260880E-05 -0.15671447898E-03  0.15676637489E-03  0.00000000000E+00 0.  1.
</event>
<event>
 5   0  0.1496444E+06  0.9118800E+02  0.7546771E-02  0.1180000E+00
      -11   -1    0    0    0    0  0.00000000000E+00  0.00000000000E+00  0.34996269501E-01  0.35000000000E-01  0.51099999109E-03 0.  1.
       11   -1    0    0    0    0 -0.00000000000E+00 -0.00000000000E+00 -0.34996269501E-01  0.35000000000E-01  0.51099999109E-03 0. -1.
       22    1    1    2    0    0 -0.35208880547E-03 -0.11026996096E-02  0.34891656572E-01  0.34910852343E-01  0.00000000000E+00 0.  1.
       22    1    1    2    0    0  0.21267450496E-03 -0.50355778744E-04 -0.44998363543E-04  0.22313897515E-03  0.00000000000E+00 0.  1.
       22    1    1    2    0    0  0.13941430052E-03  0.11530553883E-02 -0.34846658209E-01  0.34866008682E-01  0.00000000000E+00 0. -1.
</event>
<event>
 5   0  0.1496444E+06  0.9118800E+02  0.7546771E-02  0.1180000E+00
      -11   -1    0    0    0    0  0.00000000000E+00  0.00000000000E+00  0.34996269501E-01  0.35000000000E-01  0.51099999109E-03 0.  1.
       11   -1    0    0    0    0 -0.00000000000E+00 -0.00000000000E+00 -0.34996269501E-01  0.35000000000E-01  0.51099999109E-03 0. -1.
       22    1    1    2    0    0  0.17517789781E-03  0.39262245129E-03  0.74533221313E-02  0.74657116525E-02  0.00000000000E+00 0.  1.
       22    1    1    2    0    0  0.15564931311E-02 -0.26119764157E-02 -0.34855515083E-01  0.34987883951E-01  0.00000000000E+00 0. -1.
       22    1    1    2    0    0 -0.17316710289E-02  0.22193539644E-02  0.27402192952E-01  0.27546404396E-01  0.00000000000E+00 0.  1.
</event>
<event>
 5   0  0.1496444E+06  0.9118800E+02  0.7546771E-02  0.1180000E+00
      -11   -1    0    0    0    0  0.00000000000E+00  0.00000000000E+00  0.34996269501E-01  0.35000000000E-01  0.51099999109E-03 0. -1.
       11   -1    0    0    0    0 -0.00000000000E+00 -0.00000000000E+00 -0.34996269501E-01  0.35000000000E-01  0.51099999109E-03 0.  1.
       22    1    1    2    0    0 -0.30652911166E-01 -0.15954086234E-01 -0.55556105693E-02  0.34999980562E-01  0.00000000000E+00 0.  1.
       22    1    1    2    0    0  0.30652927679E-01  0.15954076885E-01  0.55555836293E-02  0.34999986486E-01  0.00000000000E+00 0. -1.
       22    1    1    2    0    0 -0.16512874352E-07  0.93491044664E-08  0.26939966583E-07  0.32952125473E-07  0.00000000000E+00 0. -1.
</event>
<event>
 5   0  0.1496444E+06  0.9118800E+02  0.7546771E-02  0.1180000E+00
      -11   -1    0    0    0    0  0.00000000000E+00  0.00000000000E+00  0.34996269501E-01  0.35000000000E-01  0.51099999109E-03 0. -1.
       11   -1    0    0    0    0 -0.00000000000E+00 -0.00000000000E+00 -0.34996269501E-01  0.35000000000E-01  0.51099999109E-03 0.  1.
       22    1    1    2    0    0 -0.25966571516E-02 -0.18156180010E-02  0.34846965633E-01  0.34990714638E-01  0.00000000000E+00 0. -1.
       22    1    1    2    0    0  0.25955794344E-02  0.18333498160E-02 -0.34846927018E-01  0.34991520784E-01  0.00000000000E+00 0.  1.
       22    1    1    2    0    0  0.10777171328E-05 -0.17731814951E-04 -0.38614551112E-07  0.17764577866E-04  0.00000000000E+00 0.  1.
</event>
<event>
 5   0  0.1496444E+06  0.9118800E+02  0.7546771E-02  0.1180000E+00
      -11   -1    0    0    0    0  0.00000000000E+00  0.00000000000E+00  0.34996269501E-01  0.35000000000E-01  0.51099999109E-03 0. -1.
       11   -1    0    0    0    0 -0.00000000000E+00 -0.00000000000E+00 -0.34996269501E-01  0.35000000000E-01  0.51099999109E-03 0.  1.
       22    1    1    2    0    0  0.37240826436E-08 -0.91538849998E-09  0.33335530794E-08  0.50812698979E-08  0.00000000000E+00 0. -1.
       22    1    1    2    0    0  0.10056927551E-02 -0.30676242715E-02 -0.34850799061E-01  0.34999999025E-01  0.00000000000E+00 0.  1.
       22    1    1    2    0    0 -0.10056964791E-02  0.30676251869E-02  0.34850795727E-01  0.34999995893E-01  0.00000000000E+00 0. -1.
</event>
<event>
 5   0  0.1496444E+06  0.9118800E+02  0.7546771E-02  0.1180000E+00
      -11   -1    0    0    0    0  0.00000000000E+00  0.00000000000E+00  0.34996269501E-01  0.35000000000E-01  0.51099999109E-03 0.  1.
       11   -1    0    0    0    0 -0.00000000000E+00 -0.00000000000E+00 -0.34996269501E-01  0.35000000000E-01  0.51099999109E-03 0. -1.
       22    1    1    2    0    0  0.43802971346E-02 -0.17709232285E-01 -0.14195111276E-01  0.23115040455E-01  0.00000000000E+00 0. -1.
       22    1    1    2    0    0 -0.92548738792E-03  0.13853303812E-02 -0.14012868933E-01  0.14111561320E-01  0.00000000000E+00 0. -1.
       22    1    1    2    0    0 -0.34548097467E-02  0.16323901903E-01  0.28207980209E-01  0.32773398225E-01  0.00000000000E+00 0.  1.
</event>
<event>
 5   0  0.1496444E+06  0.9118800E+02  0.7546771E-02  0.1180000E+00
      -11   -1    0    0    0    0  0.00000000000E+00  0.00000000000E+00  0.34996269501E-01  0.35000000000E-01  0.51099999109E-03 0. -1.
       11   -1    0    0    0    0 -0.00000000000E+00 -0.00000000000E+00 -0.34996269501E-01  0.35000000000E-01  0.51099999109E-03 0.  1.
       22    1    1    2    0    0  0.97136561892E-02  0.28339576807E-01  0.18097280139E-01  0.34999975408E-01  0.00000000000E+00 0.  1.
       22    1    1    2    0    0 -0.97136554682E-02 -0.28339592151E-01 -0.18097301201E-01  0.34999998523E-01  0.00000000000E+00 0. -1.
       22    1    1    2    0    0 -0.72098896437E-09  0.15343989851E-07  0.21062689008E-07  0.26069037533E-07  0.00000000000E+00 0.  1.
</event>
<event>
 5   0  0.1496444E+06  0.9118800E+02  0.7546771E-02  0.1180000E+00
      -11   -1    0    0    0    0  0.00000000000E+00  0.00000000000E+00  0.34996269501E-01  0.35000000000E-01  0.51099999109E-03 0. -1.
       11   -1    0    0    0    0 -0.00000000000E+00 -0.00000000000E+00 -0.34996269501E-01  0.35000000000E-01  0.51099999109E-03 0.  1.
       22    1    1    2    0    0 -0.33843035575E-02  0.14397891410E-01  0.31721379399E-01  0.34999981409E-01  0.00000000000E+00 0. -1.
       22    1    1    2    0    0  0.33843024986E-02 -0.14397893764E-01 -0.31721398358E-01  0.34999999458E-01  0.00000000000E+00 0.  1.
       22    1    1    2    0    0  0.10588680469E-08  0.23540024978E-08  0.18958704593E-07  0.19133609412E-07  0.00000000000E+00 0. -1.
</event>
<event>
 5   0  0.1496444E+06  0.9118800E+02  0.7546771E-02  0.1180000E+00
      -11   -1    0    0    0    0  0.00000000000E+00  0.00000000000E+00  0.34996269501E-01  0.35000000000E-01  0.51099999109E-03 0. -1.
       11   -1    0    0    0    0 -0.00000000000E+00 -0.00000000000E+00 -0.34996269501E-01  0.35000000000E-01  0.51099999109E-03 0.  1.
       22    1    1    2    0    0  0.24066890785E-02  0.16575874866E-02 -0.34876291040E-01  0.34998506044E-01  0.00000000000E+00 0.  1.
       22    1    1    2    0    0 -0.24169287296E-02 -0.16724313846E-02  0.34714549605E-01  0.34838750343E-01  0.00000000000E+00 0. -1.
       22    1    1    2    0    0  0.10239651158E-04  0.14843898027E-04  0.16174143500E-03  0.16274361297E-03  0.00000000000E+00 0. -1.
</event>
<event>
 5   0  0.1496444E+06  0.9118800E+02  0.7546771E-02  0.1180000E+00
      -11   -1    0    0    0    0  0.00000000000E+00  0.00000000000E+00  0.34996269501E-01  0.35000000000E-01  0.51099999109E-03 0. -1.
       11   -1    0    0    0    0 -0.00000000000E+00 -0.00000000000E+00 -0.34996269501E-01  0.35000000000E-01  0.51099999109E-03 0.  1.
       22    1    1    2    0    0 -0.97472856001E-03  0.56283456256E-03  0.34980763460E-01  0.34998866992E-01  0.00000000000E+00 0. -1.
       22    1    1    2    0    0  0.97471053350E-03 -0.56275315519E-03 -0.34981896134E-01  0.34999997269E-01  0.00000000000E+00 0.  1.
       22    1    1    2    0    0  0.18026511273E-07 -0.81407376411E-07  0.11326739594E-05  0.11357387086E-05  0.00000000000E+00 0. -1.
</event>
<event>
 5   0  0.1496444E+06  0.9118800E+02  0.7546771E-02  0.1180000E+00
      -11   -1    0    0    0    0  0.00000000000E+00  0.00000000000E+00  0.34996269501E-01  0.35000000000E-01  0.51099999109E-03 0. -1.
       11   -1    0    0    0    0 -0.00000000000E+00 -0.00000000000E+00 -0.34996269501E-01  0.35000000000E-01  0.51099999109E-03 0.  1.
       22    1    1    2    0    0  0.83733506731E-02 -0.10967668044E-02 -0.32818964767E-02  0.90601734752E-02  0.00000000000E+00 0.  1.
       22    1    1    2    0    0 -0.10067242077E-01  0.10260129683E-02  0.31287335702E-01  0.32883117872E-01  0.00000000000E+00 0. -1.
       22    1    1    2    0    0  0.16938914041E-02  0.70753836175E-04 -0.28005439226E-01  0.28056708653E-01  0.00000000000E+00 0.  1.
</event>
<event>
 5   0  0.1496444E+06  0.9118800E+02  0.7546771E-02  0.1180000E+00
      -11   -1    0    0    0    0  0.00000000000E+00  0.00000000000E+00  0.34996269501E-01  0.35000000000E-01  0.51099999109E-03 0.  1.
       11   -1    0    0    0    0 -0.00000000000E+00 -0.00000000000E+00 -0.34996269501E-01  0.35000000000E-01  0.51099999109E-03 0. -1.
       22    1    1    2    0    0 -0.21521509856E-03  0.82140048056E-02  0.33545140786E-01  0.34536830527E-01  0.00000000000E+00 0.  1.
       22    1    1    2    0    0  0.86910108397E-04 -0.45669551318E-03  0.41798579454E-03  0.62516900366E-03  0.00000000000E+00 0. -1.
       22    1    1    2    0    0  0.12830499016E-03 -0.77573092924E-02 -0.33963126580E-01  0.34838000470E-01  0.00000000000E+00 0. -1.
</event>
<event>
 5   0  0.1496444E+06  0.9118800E+02  0.7546771E-02  0.1180000E+00
      -11   -1    0    0    0    0  0.00000000000E+00  0.00000000000E+00  0.34996269501E-01  0.35000000000E-01  0.51099999109E-03 0. -1.
       11   -1    0    0    0    0 -0.00000000000E+00 -0.00000000000E+00 -0.34996269501E-01  0.35000000000E-01  0.51099999109E-03 0.  1.
       22    1    1    2    0    0 -0.19219834539E-02  0.41563153143E-02  0.34699132912E-01  0.34999982889E-01  0.00000000000E+00 0. -1.
       22    1    1    2    0    0  0.19219857365E-02 -0.41563143138E-02 -0.34699150003E-01  0.34999999839E-01  0.00000000000E+00 0.  1.
       22    1    1    2    0    0 -0.22825635804E-08 -0.10004612409E-08  0.17090491743E-07  0.17271245677E-07  0.00000000000E+00 0. -1.
</event>
<event>
 5   0  0.1496444E+06  0.9118800E+02  0.7546771E-02  0.1180000E+00
      -11   -1    0    0    0    0  0.00000000000E+00  0.00000000000E+00  0.34996269501E-01  0.35000000000E-01  0.51099999109E-03 0.  1.
       11   -1    0    0    0    0 -0.00000000000E+00 -0.00000000000E+00 -0.34996269501E-01  0.35000000000E-01  0.51099999109E-03 0. -1.
       22    1    1    2    0    0  0.11344280475E-02 -0.71200509580E-03 -0.34970129078E-01  0.34995768401E-01  0.00000000000E+00 0. -1.
       22    1    1    2    0    0  0.11303101847E-04 -0.18171195778E-04  0.25882669651E-04  0.33583702232E-04  0.00000000000E+00 0. -1.
       22    1    1    2    0    0 -0.11457311493E-02  0.73017629158E-03  0.34944246408E-01  0.34970647897E-01  0.00000000000E+00 0.  1.
</event>
<event>
 5   0  0.1496444E+06  0.9118800E+02  0.7546771E-02  0.1180000E+00
      -11   -1    0    0    0    0  0.00000000000E+00  0.00000000000E+00  0.34996269501E-01  0.35000000000E-01  0.51099999109E-03 0. -1.
       11   -1    0    0    0    0 -0.00000000000E+00 -0.00000000000E+00 -0.34996269501E-01  0.35000000000E-01  0.51099999109E-03 0.  1.
       22    1    1    2    0    0 -0.67335921601E-02  0.92129232799E-02 -0.16629958981E-01  0.20168657726E-01  0.00000000000E+00 0.  1.
       22    1    1    2    0    0  0.17827479795E-01 -0.22842506727E-01  0.13558456378E-01  0.31991106401E-01  0.00000000000E+00 0. -1.
       22    1    1    2    0    0 -0.11093887635E-01  0.13629583447E-01  0.30715026034E-02  0.17840235874E-01  0.00000000000E+00 0.  1.
</event>
<event>
 5   0  0.1496444E+06  0.9118800E+02  0.7546771E-02  0.1180000E+00
      -11   -1    0    0    0    0  0.00000000000E+00  0.00000000000E+00  0.34996269501E-01  0.35000000000E-01  0.51099999109E-03 0.  1.
       11   -1    0    0    0    0 -0.00000000000E+00 -0.00000000000E+00 -0.34996269501E-01  0.35000000000E-01  0.51099999109E-03 0.  1.
       22    1    1    2    0    0  0.55196847633E-07  0.47045746476E-07  0.48229324157E-06  0.48771586515E-06  0.00000000000E+00 0. -1.
       22    1    1    2    0    0 -0.48699004512E-03 -0.39949914029E-03  0.34993847166E-01  0.34999515687E-01  0.00000000000E+00 0.  1.
       22    1    1    2    0    0  0.48693484827E-03  0.39945209454E-03 -0.34994329459E-01  0.34999996597E-01  0.00000000000E+00 0.  1.
</event>
<event>
 5   0  0.1496444E+06  0.9118800E+02  0.7546771E-02  0.1180000E+00
      -11   -1    0    0    0    0  0.00000000000E+00  0.00000000000E+00  0.34996269501E-01  0.35000000000E-01  0.51099999109E-03 0.  1.
       11   -1    0    0    0    0 -0.00000000000E+00 -0.00000000000E+00 -0.34996269501E-01  0.35000000000E-01  0.51099999109E-03 0. -1.
       22    1    1    2    0    0  0.40745277092E-03  0.14191804758E-02 -0.34968828829E-01  0.34999986866E-01  0.00000000000E+00 0. -1.
       22    1    1    2    0    0 -0.27334854053E-06  0.19151801066E-06  0.29076780450E-05  0.29267712905E-05  0.00000000000E+00 0. -1.
       22    1    1    2    0    0 -0.40717942238E-03 -0.14193719939E-02  0.34965921151E-01  0.34997086362E-01  0.00000000000E+00 0.  1.
</event>
<event>
 5   0  0.1496444E+06  0.9118800E+02  0.7546771E-02  0.1180000E+00
      -11   -1    0    0    0    0  0.00000000000E+00  0.00000000000E+00  0.34996269501E-01  0.35000000000E-01  0.51099999109E-03 0. -1.
       11   -1    0    0    0    0 -0.00000000000E+00 -0.00000000000E+00 -0.34996269501E-01  0.35000000000E-01  0.51099999109E-03 0.  1.
       22    1    1    2    0    0  0.11899753336E-01  0.65005820215E-02 -0.32262969262E-01  0.34996583857E-01  0.00000000000E+00 0.  1.
       22    1    1    2    0    0 -0.11876818457E-01 -0.65121129639E-02  0.32236555883E-01  0.34966583577E-01  0.00000000000E+00 0. -1.
       22    1    1    2    0    0 -0.22934879258E-04  0.11530942426E-04  0.26413378874E-04  0.36832565799E-04  0.00000000000E+00 0. -1.
</event>
<event>
 5   0  0.1496444E+06  0.9118800E+02  0.7546771E-02  0.1180000E+00
      -11   -1    0    0    0    0  0.00000000000E+00  0.00000000000E+00  0.34996269501E-01  0.35000000000E-01  0.51099999109E-03 0. -1.
       11   -1    0    0    0    0 -0.00000000000E+00 -0.00000000000E+00 -0.34996269501E-01  0.35000000000E-01  0.51099999109E-03 0.  1.
       22    1    1    2    0    0 -0.13871740558E-03 -0.12445017441E-02  0.34934946871E-01  0.34957381766E-01  0.00000000000E+00 0. -1.
       22    1    1    2    0    0  0.10509011659E-03  0.41217992875E-04 -0.29840954627E-04  0.11676188640E-03  0.00000000000E+00 0.  1.
       22    1    1    2    0    0  0.33627288986E-04  0.12032837512E-02 -0.34905105916E-01  0.34925856347E-01  0.00000000000E+00 0.  1.
</event>
<event>
 5   0  0.1496444E+06  0.9118800E+02  0.7546771E-02  0.1180000E+00
      -11   -1    0    0    0    0  0.00000000000E+00  0.00000000000E+00  0.34996269501E-01  0.35000000000E-01  0.51099999109E-03 0. -1.
       11   -1    0    0    0    0 -0.00000000000E+00 -0.00000000000E+00 -0.34996269501E-01  0.35000000000E-01  0.51099999109E-03 0.  1.
       22    1    1    2    0    0 -0.47792063166E-02 -0.26878949144E-02  0.34542512542E-01  0.34975001999E-01  0.00000000000E+00 0. -1.
       22    1    1    2    0    0  0.46361580676E-02  0.28128067514E-02 -0.34247421246E-01  0.34674078293E-01  0.00000000000E+00 0.  1.
       22    1    1    2    0    0  0.14304824893E-03 -0.12491183699E-03 -0.29509129612E-03  0.35091970818E-03  0.00000000000E+00 0.  1.
</event>
<event>
 5   0  0.1496444E+06  0.9118800E+02  0.7546771E-02  0.1180000E+00
      -11   -1    0    0    0    0  0.00000000000E+00  0.00000000000E+00  0.34996269501E-01  0.35000000000E-01  0.51099999109E-03 0.  1.
       11   -1    0    0    0    0 -0.00000000000E+00 -0.00000000000E+00 -0.34996269501E-01  0.35000000000E-01  0.51099999109E-03 0. -1.
       22    1    1    2    0    0 -0.40963520849E-02 -0.70050904743E-03 -0.32761527847E-01  0.33024059717E-01  0.00000000000E+00 0. -1.
       22    1    1    2    0    0  0.23643457417E-02 -0.37860342866E-02  0.65527628817E-03  0.45114934799E-02  0.00000000000E+00 0. -1.
       22    1    1    2    0    0  0.17320063433E-02  0.44865433341E-02  0.32106251559E-01  0.32464446803E-01  0.00000000000E+00 0.  1.
</event>
<event>
 5   0  0.1496444E+06  0.9118800E+02  0.7546771E-02  0.1180000E+00
      -11   -1    0    0    0    0  0.00000000000E+00  0.00000000000E+00  0.34996269501E-01  0.35000000000E-01  0.51099999109E-03 0. -1.
       11   -1    0    0    0    0 -0.00000000000E+00 -0.00000000000E+00 -0.34996269501E-01  0.35000000000E-01  0.51099999109E-03 0.  1.
       22    1    1    2    0    0  0.21713985805E-04 -0.87708658854E-05  0.32310714993E-03  0.32395471227E-03  0.00000000000E+00 0. -1.
       22    1    1    2    0    0  0.19702113770E-01 -0.21881221976E-01 -0.18764954967E-01  0.34915393411E-01  0.00000000000E+00 0.  1.
       22    1    1    2    0    0 -0.19723827756E-01  0.21889992842E-01  0.18441847817E-01  0.34760651876E-01  0.00000000000E+00 0. -1.
</event>
<event>
 5   0  0.1496444E+06  0.9118800E+02  0.7546771E-02  0.1180000E+00
      -11   -1    0    0    0    0  0.00000000000E+00  0.00000000000E+00  0.34996269501E-01  0.35000000000E-01  0.51099999109E-03 0. -1.
       11   -1    0    0    0    0 -0.00000000000E+00 -0.00000000000E+00 -0.34996269501E-01  0.35000000000E-01  0.51099999109E-03 0.  1.
       22    1    1    2    0    0 -0.19557841804E-02 -0.21817721561E-02  0.34869868108E-01  0.34992755299E-01  0.00000000000E+00 0. -1.
       22    1    1    2    0    0  0.19555271536E-02  0.21820339446E-02 -0.34877119924E-01  0.34999983611E-01  0.00000000000E+00 0.  1.
       22    1    1    2    0    0  0.25702674575E-06 -0.26178850223E-06  0.72518158795E-05  0.72610901054E-05  0.00000000000E+00 0. -1.
</event>
<event>
 5   0  0.1496444E+06  0.9118800E+02  0.7546771E-02  0.1180000E+00
      -11   -1    0    0    0    0  0.00000000000E+00  0.00000000000E+00  0.34996269501E-01  0.35000000000E-01  0.51099999109E-03 0.  1.
       11   -1    0    0    0    0 -0.00000000000E+00 -0.00000000000E+00 -0.34996269501E-01  0.35000000000E-01  0.51099999109E-03 0. -1.
       22    1    1    2    0    0  0.12213834256E-02 -0.88282167438E-02  0.33842527494E-01  0.34996369176E-01  0.00000000000E+00 0.  1.
       22    1    1    2    0    0 -0.56559141554E-07  0.59631026492E-07  0.36998613488E-05  0.37007740806E-05  0.00000000000E+00 0. -1.
       22    1    1    2    0    0 -0.12213268665E-02  0.88281571127E-02 -0.33846227355E-01  0.34999930050E-01  0.00000000000E+00 0. -1.
</event>
<event>
 5   0  0.1496444E+06  0.9118800E+02  0.7546771E-02  0.1180000E+00
      -11   -1    0    0    0    0  0.00000000000E+00  0.00000000000E+00  0.34996269501E-01  0.35000000000E-01  0.51099999109E-03 0. -1.
       11   -1    0    0    0    0 -0.00000000000E+00 -0.00000000000E+00 -0.34996269501E-01  0.35000000000E-01  0.51099999109E-03 0. -1.
       22    1    1    2    0    0  0.11162688583E-10  0.17480993743E-11 -0.35000699041E-01  0.34999999332E-01  0.00000000000E+00 0. -1.
       22    1    1    2    0    0 -0.17631766639E-06 -0.27611699458E-07  0.34990370866E-01  0.34989670951E-01  0.00000000000E+00 0. -1.
       22    1    1    2    0    0  0.17630650370E-06  0.27609951359E-07  0.10328175213E-04  0.10329716817E-04  0.00000000000E+00 0.  1.
</event>
<event>
 5   0  0.1496444E+06  0.9118800E+02  0.7546771E-02  0.1180000E+00
      -11   -1    0    0    0    0  0.00000000000E+00  0.00000000000E+00  0.34996269501E-01  0.35000000000E-01  0.51099999109E-03 0. -1.
       11   -1    0    0    0    0 -0.00000000000E+00 -0.00000000000E+00 -0.34996269501E-01  0.35000000000E-01  0.51099999109E-03 0.  1.
       22    1    1    2    0    0  0.22010798197E-02  0.33670988791E-02 -0.34768055319E-01  0.34999996827E-01  0.00000000000E+00 0.  1.
       22    1    1    2    0    0 -0.22011298296E-02 -0.33670324455E-02  0.34767272629E-01  0.34999216078E-01  0.00000000000E+00 0. -1.
       22    1    1    2    0    0  0.50009907198E-07 -0.66433550841E-07  0.78268971102E-06  0.78709439792E-06  0.00000000000E+00 0.  1.
</event>
<event>
 5   0  0.1496444E+06  0.9118800E+02  0.7546771E-02  0.1180000E+00
      -11   -1    0    0    0    0  0.00000000000E+00  0.00000000000E+00  0.34996269501E-01  0.35000000000E-01  0.51099999109E-03 0.  1.
       11   -1    0    0    0    0 -0.00000000000E+00 -0.00000000000E+00 -0.34996269501E-01  0.35000000000E-01  0.51099999109E-03 0. -1.
       22    1    1    2    0    0  0.26604347969E-01  0.84124251380E-02  0.20631151200E-01  0.34701651653E-01  0.00000000000E+00 0.  1.
       22    1    1    2    0    0 -0.26661382664E-01 -0.84777818638E-02 -0.20960507856E-01  0.34957760232E-01  0.00000000000E+00 0. -1.
       22    1    1    2    0    0  0.57034694285E-04  0.65356725771E-04  0.32935665539E-03  0.34058811548E-03  0.00000000000E+00 0. -1.
</event>
<event>
 5   0  0.1496444E+06  0.9118800E+02  0.7546771E-02  0.1180000E+00
      -11   -1    0    0    0    0  0.00000000000E+00  0.00000000000E+00  0.34996269501E-01  0.35000000000E-01  0.51099999109E-03 0.  1.
       11   -1    0    0    0    0 -0.00000000000E+00 -0.00000000000E+00 -0.34996269501E-01  0.35000000000E-01  0.51099999109E-03 0. -1.
       22    1    1    2    0    0  0.31484321665E-01  0.74998159641E-02  0.13322510617E-01  0.34999986276E-01  0.00000000000E+00 0.  1.
       22    1    1    2    0    0 -0.73677173644E-08  0.38949368019E-08  0.23017173407E-07  0.24479462075E-07  0.00000000000E+00 0. -1.
       22    1    1    2    0    0 -0.31484314297E-01 -0.74998198590E-02 -0.13322533634E-01  0.34999989244E-01  0.00000000000E+00 0. -1.
</event>
<event>
 5   0  0.1496444E+06  0.9118800E+02  0.7546771E-02  0.1180000E+00
      -11   -1    0    0    0    0  0.00000000000E+00  0.00000000000E+00  0.34996269501E-01  0.35000000000E-01  0.51099999109E-03 0. -1.
       11   -1    0    0    0    0 -0.00000000000E+00 -0.00000000000E+00 -0.34996269501E-01  0.35000000000E-01  0.51099999109E-03 0.  1.
       22    1    1    2    0    0  0.31952089585E-01 -0.59453867945E-02 -0.12987836040E-01  0.34999536254E-01  0.00000000000E+00 0. -1.
       22    1    1    2    0    0 -0.41968606093E-07  0.74348130648E-07  0.15519770057E-05  0.15543235296E-05  0.00000000000E+00 0. -1.
       22    1    1    2    0    0 -0.31952047617E-01  0.59453124463E-02  0.12986284063E-01  0.34998909422E-01  0.00000000000E+00 0.  1.
</event>
<event>
 5   0  0.1496444E+06  0.9118800E+02  0.7546771E-02  0.1180000E+00
      -11   -1    0    0    0    0  0.00000000000E+00  0.00000000000E+00  0.34996269501E-01  0.35000000000E-01  0.51099999109E-03 0. -1.
       11   -1    0    0    0    0 -0.00000000000E+00 -0.00000000000E+00 -0.34996269501E-01  0.35000000000E-01  0.51099999109E-03 0.  1.
       22    1    1    2    0    0  0.93378449326E-03  0.11847723267E-02 -0.34967141672E-01  0.34999666222E-01  0.00000000000E+00 0.  1.
       22    1    1    2    0    0 -0.93320564316E-03 -0.11851664747E-02  0.34967110290E-01  0.34999632775E-01  0.00000000000E+00 0. -1.
       22    1    1    2    0    0 -0.57885010325E-06  0.39414799125E-06  0.31381730903E-07  0.70100277751E-06  0.00000000000E+00 0.  1.
</event>
<event>
 5   0  0.1496444E+06  0.9118800E+02  0.7546771E-02  0.1180000E+00
      -11   -1    0    0    0    0  0.00000000000E+00  0.00000000000E+00  0.34996269501E-01  0.35000000000E-01  0.51099999109E-03 0.  1.
       11   -1    0    0    0    0 -0.00000000000E+00 -0.00000000000E+00 -0.34996269501E-01  0.35000000000E-01  0.51099999109E-03 0. -1.
       22    1    1    2    0    0  0.13151348877E-06  0.32964425716E-06 -0.12741310564E-06  0.37708783260E-06  0.00000000000E+00 0. -1.
       22    1    1    2    0    0  0.34884660196E-02  0.47918148291E-03 -0.34822158725E-01  0.34999739261E-01  0.00000000000E+00 0. -1.
       22    1    1    2    0    0 -0.34885975331E-02 -0.47951112717E-03  0.34822286138E-01  0.34999883651E-01  0.00000000000E+00 0.  1.
</event>
<event>
 5   0  0.1496444E+06  0.9118800E+02  0.7546771E-02  0.1180000E+00
      -11   -1    0    0    0    0  0.00000000000E+00  0.00000000000E+00  0.34996269501E-01  0.35000000000E-01  0.51099999109E-03 0. -1.
       11   -1    0    0    0    0 -0.00000000000E+00 -0.00000000000E+00 -0.34996269501E-01  0.35000000000E-01  0.51099999109E-03 0.  1.
       22    1    1    2    0    0 -0.15822733106E-01  0.81477864085E-02 -0.29947842106E-01  0.34837028477E-01  0.00000000000E+00 0.  1.
       22    1    1    2    0    0  0.15380774316E-04  0.13806961500E-04 -0.17656795500E-03  0.17777357266E-03  0.00000000000E+00 0.  1.
       22    1    1    2    0    0  0.15807352332E-01 -0.81615933700E-02  0.30124410061E-01  0.34985197950E-01  0.00000000000E+00 0. -1.
</event>
<event>
 5   0  0.1496444E+06  0.9118800E+02  0.7546771E-02  0.1180000E+00
      -11   -1    0    0    0    0  0.00000000000E+00  0.00000000000E+00  0.34996269501E-01  0.35000000000E-01  0.51099999109E-03 0. -1.
       11   -1    0    0    0    0 -0.00000000000E+00 -0.00000000000E+00 -0.34996269501E-01  0.35000000000E-01  0.51099999109E-03 0. -1.
       22    1    1    2    0    0  0.18173983580E-03 -0.25625565585E-03 -0.26487984887E-01  0.26489847861E-01  0.00000000000E+00 0. -1.
       22    1    1    2    0    0  0.20519223549E-02 -0.16399956263E-02 -0.82452450107E-02  0.86535562800E-02  0.00000000000E+00 0.  1.
       22    1    1    2    0    0 -0.22336621907E-02  0.18962512821E-02  0.34733229898E-01  0.34856595859E-01  0.00000000000E+00 0. -1.
</event>
<event>
 5   0  0.1496444E+06  0.9118800E+02  0.7546771E-02  0.1180000E+00
      -11   -1    0    0    0    0  0.00000000000E+00  0.00000000000E+00  0.34996269501E-01  0.35000000000E-01  0.51099999109E-03 0. -1.
       11   -1    0    0    0    0 -0.00000000000E+00 -0.00000000000E+00 -0.34996269501E-01  0.35000000000E-01  0.51099999109E-03 0.  1.
       22    1    1    2    0    0  0.65883880498E-02  0.68665496352E-02  0.33637013229E-01  0.34957188387E-01  0.00000000000E+00 0. -1.
       22    1    1    2    0    0 -0.65864269449E-02 -0.68516494168E-02 -0.33681053247E-01  0.34996277908E-01  0.00000000000E+00 0.  1.
       22    1    1    2    0    0 -0.19611049579E-05 -0.14900218437E-04  0.44040018172E-04  0.46533704373E-04  0.00000000000E+00 0. -1.
</event>
<event>
 5   0  0.1496444E+06  0.9118800E+02  0.7546771E-02  0.1180000E+00
      -11   -1    0    0    0    0  0.00000000000E+00  0.00000000000E+00  0.34996269501E-01  0.35000000000E-01  0.51099999109E-03 0.  1.
       11   -1    0    0    0    0 -0.00000000000E+00 -0.00000000000E+00 -0.34996269501E-01  0.35000000000E-01  0.51099999109E-03 0. -1.
       22    1    1    2    0    0 -0.20738115072E-02 -0.11798289257E-01  0.32423042214E-01  0.34565213582E-01  0.00000000000E+00 0.  1.
       22    1    1    2    0    0  0.32194193043E-02  0.95250006470E-02 -0.16593947021E-01  0.19402303361E-01  0.00000000000E+00 0. -1.
       22    1    1    2    0    0 -0.11456077970E-02  0.22732886101E-02 -0.15829095193E-01  0.16032483056E-01  0.00000000000E+00 0. -1.
</event>
<event>
 5   0  0.1496444E+06  0.9118800E+02  0.7546771E-02  0.1180000E+00
      -11   -1    0    0    0    0  0.00000000000E+00  0.00000000000E+00  0.34996269501E-01  0.35000000000E-01  0.51099999109E-03 0. -1.
       11   -1    0    0    0    0 -0.00000000000E+00 -0.00000000000E+00 -0.34996269501E-01  0.35000000000E-01  0.51099999109E-03 0.  1.
       22    1    1    2    0    0 -0.74423068864E-07 -0.25704684630E-08  0.34897576398E-05  0.34905520746E-05  0.00000000000E+00 0.  1.
       22    1    1    2    0    0 -0.48260210570E-03  0.93607307965E-03 -0.34984149922E-01  0.34999998334E-01  0.00000000000E+00 0.  1.
       22    1    1    2    0    0  0.48267652876E-03 -0.93607050918E-03  0.34980660164E-01  0.34996511114E-01  0.00000000000E+00 0. -1.
</event>
<event>
 5   0  0.1496444E+06  0.9118800E+02  0.7546771E-02  0.1180000E+00
      -11   -1    0    0    0    0  0.00000000000E+00  0.00000000000E+00  0.34996269501E-01  0.35000000000E-01  0.51099999109E-03 0. -1.
       11   -1    0    0    0    0 -0.00000000000E+00 -0.00000000000E+00 -0.34996269501E-01  0.35000000000E-01  0.51099999109E-03 0.  1.
       22    1    1    2    0    0 -0.10297252933E-01  0.14534900241E-02  0.33419241328E-01  0.34999882031E-01  0.00000000000E+00 0. -1.
       22    1    1    2    0    0 -0.34879108474E-08 -0.24864422481E-07  0.11936171165E-06  0.12197386292E-06  0.00000000000E+00 0. -1.
       22    1    1    2    0    0  0.10297256421E-01 -0.14534651597E-02 -0.33419360690E-01  0.34999995995E-01  0.00000000000E+00 0.  1.
</event>
<event>
 5   0  0.1496444E+06  0.9118800E+02  0.7546771E-02  0.1180000E+00
      -11   -1    0    0    0    0  0.00000000000E+00  0.00000000000E+00  0.34996269501E-01  0.35000000000E-01  0.51099999109E-03 0.  1.
       11   -1    0    0    0    0 -0.00000000000E+00 -0.00000000000E+00 -0.34996269501E-01  0.35000000000E-01  0.51099999109E-03 0. -1.
       22    1    1    2    0    0 -0.65581170527E-03  0.13539716781E-02  0.33564109919E-01  0.33597809497E-01  0.00000000000E+00 0.  1.
       22    1    1    2    0    0  0.69500393936E-03 -0.13823698419E-02 -0.34965624211E-01  0.34999840762E-01  0.00000000000E+00 0. -1.
       22    1    1    2    0    0 -0.39192234088E-04  0.28398163886E-04  0.14015142921E-02  0.14023497417E-02  0.00000000000E+00 0. -1.
</event>
<event>
 5   0  0.1496444E+06  0.9118800E+02  0.7546771E-02  0.1180000E+00
      -11   -1    0    0    0    0  0.00000000000E+00  0.00000000000E+00  0.34996269501E-01  0.35000000000E-01  0.51099999109E-03 0.  1.
       11   -1    0    0    0    0 -0.00000000000E+00 -0.00000000000E+00 -0.34996269501E-01  0.35000000000E-01  0.51099999109E-03 0. -1.
       22    1    1    2    0    0 -0.14877785981E-02 -0.82783452311E-02  0.32815165042E-01  0.33875943406E-01  0.00000000000E+00 0.  1.
       22    1    1    2    0    0  0.43661967740E-04 -0.14743411057E-02  0.35718877417E-03  0.15176204676E-02  0.00000000000E+00 0. -1.
       22    1    1    2    0    0  0.14441166303E-02  0.97526863368E-02 -0.33172353816E-01  0.34606436126E-01  0.00000000000E+00 0. -1.
</event>
<event>
 5   0  0.1496444E+06  0.9118800E+02  0.7546771E-02  0.1180000E+00
      -11   -1    0    0    0    0  0.00000000000E+00  0.00000000000E+00  0.34996269501E-01  0.35000000000E-01  0.51099999109E-03 0. -1.
       11   -1    0    0    0    0 -0.00000000000E+00 -0.00000000000E+00 -0.34996269501E-01  0.35000000000E-01  0.51099999109E-03 0.  1.
       22    1    1    2    0    0 -0.20159285223E-05 -0.55427737992E-06 -0.15332092436E-04  0.15473986225E-04  0.00000000000E+00 0. -1.
       22    1    1    2    0    0 -0.22782581126E-01  0.26479665481E-01 -0.20437901385E-02  0.34991367005E-01  0.00000000000E+00 0. -1.
       22    1    1    2    0    0  0.22784597055E-01 -0.26479111203E-01  0.20591222309E-02  0.34993159009E-01  0.00000000000E+00 0.  1.
</event>
<event>
 5   0  0.1496444E+06  0.9118800E+02  0.7546771E-02  0.1180000E+00
      -11   -1    0    0    0    0  0.00000000000E+00  0.00000000000E+00  0.34996269501E-01  0.35000000000E-01  0.51099999109E-03 0. -1.
       11   -1    0    0    0    0 -0.00000000000E+00 -0.00000000000E+00 -0.34996269501E-01  0.35000000000E-01  0.51099999109E-03 0.  1.
       22    1    1    2    0    0 -0.97258525344E-03  0.12274092137E-02  0.34828351209E-02  0.38187165295E-02  0.00000000000E+00 0. -1.
       22    1    1    2    0    0 -0.54821014986E-02 -0.13705779352E-01 -0.31528804075E-01  0.34813320882E-01  0.00000000000E+00 0.  1.
       22    1    1    2    0    0  0.64546867520E-02  0.12478370138E-01  0.28045968954E-01  0.31367962588E-01  0.00000000000E+00 0. -1.
</event>
<event>
 5   0  0.1496444E+06  0.9118800E+02  0.7546771E-02  0.1180000E+00
      -11   -1    0    0    0    0  0.00000000000E+00  0.00000000000E+00  0.34996269501E-01  0.35000000000E-01  0.51099999109E-03 0.  1.
       11   -1    0    0    0    0 -0.00000000000E+00 -0.00000000000E+00 -0.34996269501E-01  0.35000000000E-01  0.51099999109E-03 0. -1.
       22    1    1    2    0    0 -0.47698718352E-02  0.34997053572E-02  0.34496380695E-01  0.34999998513E-01  0.00000000000E+00 0.  1.
       22    1    1    2    0    0  0.47698722290E-02 -0.34997027518E-02 -0.34496381199E-01  0.34999998804E-01  0.00000000000E+00 0. -1.
       22    1    1    2    0    0 -0.39381207218E-09 -0.26053673461E-08  0.50463437354E-09  0.26828497549E-08  0.00000000000E+00 0.  1.
</event>
<event>
 5   0  0.1496444E+06  0.9118800E+02  0.7546771E-02  0.1180000E+00
      -11   -1    0    0    0    0  0.00000000000E+00  0.00000000000E+00  0.34996269501E-01  0.35000000000E-01  0.51099999109E-03 0.  1.
       11   -1    0    0    0    0 -0.00000000000E+00 -0.00000000000E+00 -0.34996269501E-01  0.35000000000E-01  0.51099999109E-03 0. -1.
       22    1    1    2    0    0 -0.23779343698E-02 -0.14040188744E-02  0.34858323735E-01  0.34967536008E-01  0.00000000000E+00 0.  1.
       22    1    1    2    0    0 -0.40552632038E-03  0.24119176219E-03 -0.48585659043E-02  0.48814227137E-02  0.00000000000E+00 0. -1.
       22    1    1    2    0    0  0.27834606902E-02  0.11628271122E-02 -0.29999757830E-01  0.30151041279E-01  0.00000000000E+00 0. -1.
</event>
<event>
 5   0  0.1496444E+06  0.9118800E+02  0.7546771E-02  0.1180000E+00
      -11   -1    0    0    0    0  0.00000000000E+00  0.00000000000E+00  0.34996269501E-01  0.35000000000E-01  0.51099999109E-03 0.  1.
       11   -1    0    0    0    0 -0.00000000000E+00 -0.00000000000E+00 -0.34996269501E-01  0.35000000000E-01  0.51099999109E-03 0.  1.
       22    1    1    2    0    0 -0.29295420666E-03 -0.41764208099E-03  0.34995766122E-01  0.34999484190E-01  0.00000000000E+00 0.  1.
       22    1    1    2    0    0  0.19546765360E-07  0.78466579893E-07  0.51322155166E-06  0.51955311690E-06  0.00000000000E+00 0.  1.
       22    1    1    2    0    0  0.29293465989E-03  0.41756361441E-03 -0.34996279344E-01  0.34999996257E-01  0.00000000000E+00 0.  1.
</event>
<event>
 5   0  0.1496444E+06  0.9118800E+02  0.7546771E-02  0.1180000E+00
      -11   -1    0    0    0    0  0.00000000000E+00  0.00000000000E+00  0.34996269501E-01  0.35000000000E-01  0.51099999109E-03 0.  1.
       11   -1    0    0    0    0 -0.00000000000E+00 -0.00000000000E+00 -0.34996269501E-01  0.35000000000E-01  0.51099999109E-03 0. -1.
       22    1    1    2    0    0  0.98590582427E-02 -0.28406021084E-02 -0.33462363446E-01  0.34999997388E-01  0.00000000000E+00 0. -1.
       22    1    1    2    0    0  0.76926514192E-08  0.10041028272E-07  0.56017653212E-07  0.57428012380E-07  0.00000000000E+00 0. -1.
       22    1    1    2    0    0 -0.98590659354E-02  0.28405920673E-02  0.33462307429E-01  0.34999945184E-01  0.00000000000E+00 0.  1.
</event>
<event>
 5   0  0.1496444E+06  0.9118800E+02  0.7546771E-02  0.1180000E+00
      -11   -1    0    0    0    0  0.00000000000E+00  0.00000000000E+00  0.34996269501E-01  0.35000000000E-01  0.51099999109E-03 0.  1.
       11   -1    0    0    0    0 -0.00000000000E+00 -0.00000000000E+00 -0.34996269501E-01  0.35000000000E-01  0.51099999109E-03 0. -1.
       22    1    1    2    0    0 -0.81891641421E-02 -0.25978393926E-01  0.12218548916E-01  0.29853513996E-01  0.00000000000E+00 0. -1.
       22    1    1    2    0    0  0.73193814400E-02  0.24697220822E-01  0.20068454757E-02  0.25837056523E-01  0.00000000000E+00 0.  1.
       22    1    1    2    0    0  0.86978270214E-03  0.12811731037E-02 -0.14225394391E-01  0.14309429481E-01  0.00000000000E+00 0. -1.
</event>
<event>
 5   0  0.1496444E+06  0.9118800E+02  0.7546771E-02  0.1180000E+00
      -11   -1    0    0    0    0  0.00000000000E+00  0.00000000000E+00  0.34996269501E-01  0.35000000000E-01  0.51099999109E-03 0.  1.
       11   -1    0    0    0    0 -0.00000000000E+00 -0.00000000000E+00 -0.34996269501E-01  0.35000000000E-01  0.51099999109E-03 0.  1.
       22    1    1    2    0    0 -0.40708197436E-07 -0.24728643533E-07  0.41589842824E-06  0.41861696784E-06  0.00000000000E+00 0. -1.
       22    1    1    2    0    0  0.40710733569E-07  0.24730184135E-07  0.35000212752E-01  0.34999582739E-01  0.00000000000E+00 0.  1.
       22    1    1    2    0    0 -0.25361333120E-11 -0.15406021533E-11 -0.35000628650E-01  0.34999998644E-01  0.00000000000E+00 0.  1.
</event>
<event>
 5   0  0.1496444E+06  0.9118800E+02  0.7546771E-02  0.1180000E+00
      -11   -1    0    0    0    0  0.00000000000E+00  0.00000000000E+00  0.34996269501E-01  0.35000000000E-01  0.51099999109E-03 0.  1.
       11   -1    0    0    0    0 -0.00000000000E+00 -0.00000000000E+00 -0.34996269501E-01  0.35000000000E-01  0.51099999109E-03 0. -1.
       22    1    1    2    0    0 -0.66501194020E-06  0.30649246932E-07  0.14697965665E-05  0.16135309739E-05  0.00000000000E+00 0.  1.
       22    1    1    2    0    0 -0.17325606560E-02 -0.29947212413E-03 -0.34955719290E-01  0.34999910872E-01  0.00000000000E+00 0. -1.
       22    1    1    2    0    0  0.17332256679E-02  0.29944147488E-03  0.34954249494E-01  0.34998475597E-01  0.00000000000E+00 0.  1.
</event>
<event>
 5   0  0.1496444E+06  0.9118800E+02  0.7546771E-02  0.1180000E+00
      -11   -1    0    0    0    0  0.00000000000E+00  0.00000000000E+00  0.34996269501E-01  0.35000000000E-01  0.51099999109E-03 0.  1.
       11   -1    0    0    0    0 -0.00000000000E+00 -0.00000000000E+00 -0.34996269501E-01  0.35000000000E-01  0.51099999109E-03 0. -1.
       22    1    1    2    0    0 -0.54852550832E-02 -0.21780052178E-04  0.34117536956E-01  0.34555677184E-01  0.00000000000E+00 0.  1.
       22    1    1    2    0    0  0.54860165139E-02 -0.62193761235E-04 -0.34560605331E-01  0.34993366315E-01  0.00000000000E+00 0. -1.
       22    1    1    2    0    0 -0.76143069193E-06  0.83973813414E-04  0.44306837471E-03  0.45095650099E-03  0.00000000000E+00 0.  1.
</event>
<event>
 5   0  0.1496444E+06  0.9118800E+02  0.7546771E-02  0.1180000E+00
      -11   -1    0    0    0    0  0.00000000000E+00  0.00000000000E+00  0.34996269501E-01  0.35000000000E-01  0.51099999109E-03 0. -1.
       11   -1    0    0    0    0 -0.00000000000E+00 -0.00000000000E+00 -0.34996269501E-01  0.35000000000E-01  0.51099999109E-03 0. -1.
       22    1    1    2    0    0  0.92715893697E-03  0.15539530848E-04 -0.34864253981E-01  0.34876583416E-01  0.00000000000E+00 0. -1.
       22    1    1    2    0    0 -0.72550601056E-03 -0.20863635440E-03  0.97537437212E-03  0.12333869083E-02  0.00000000000E+00 0.  1.
       22    1    1    2    0    0 -0.20165292641E-03  0.19309682355E-03  0.33888879608E-01  0.33890029675E-01  0.00000000000E+00 0. -1.
</event>
<event>
 5   0  0.1496444E+06  0.9118800E+02  0.7546771E-02  0.1180000E+00
      -11   -1    0    0    0    0  0.00000000000E+00  0.00000000000E+00  0.34996269501E-01  0.35000000000E-01  0.51099999109E-03 0.  1.
       11   -1    0    0    0    0 -0.00000000000E+00 -0.00000000000E+00 -0.34996269501E-01  0.35000000000E-01  0.51099999109E-03 0. -1.
       22    1    1    2    0    0  0.92548511593E-06 -0.14899465097E-05  0.88641600799E-04  0.88658952484E-04  0.00000000000E+00 0.  1.
       22    1    1    2    0    0  0.13119360960E-01 -0.31846190753E-01 -0.60058552111E-02  0.34962376839E-01  0.00000000000E+00 0. -1.
       22    1    1    2    0    0 -0.13120286445E-01  0.31847680699E-01  0.59172136103E-02  0.34948964208E-01  0.00000000000E+00 0.  1.
</event>
<event>
 5   0  0.1496444E+06  0.9118800E+02  0.7546771E-02  0.1180000E+00
      -11   -1    0    0    0    0  0.00000000000E+00  0.00000000000E+00  0.34996269501E-01  0.35000000000E-01  0.51099999109E-03 0. -1.
       11   -1    0    0    0    0 -0.00000000000E+00 -0.00000000000E+00 -0.34996269501E-01  0.35000000000E-01  0.51099999109E-03 0.  1.
       22    1    1    2    0    0 -0.23124365888E-01 -0.18377683543E-01  0.18765132742E-01  0.34994367503E-01  0.00000000000E+00 0.  1.
       22    1    1    2    0    0  0.23119548618E-01  0.18364938932E-01 -0.18774116966E-01  0.34989312341E-01  0.00000000000E+00 0. -1.
       22    1    1    2    0    0  0.48172700591E-05  0.12744611090E-04  0.89842237622E-05  0.16320155615E-04  0.00000000000E+00 0.  1.
</event>
<event>
 5   0  0.1496444E+06  0.9118800E+02  0.7546771E-02  0.1180000E+00
      -11   -1    0    0    0    0  0.00000000000E+00  0.00000000000E+00  0.34996269501E-01  0.35000000000E-01  0.51099999109E-03 0.  1.
       11   -1    0    0    0    0 -0.00000000000E+00 -0.00000000000E+00 -0.34996269501E-01  0.35000000000E-01  0.51099999109E-03 0. -1.
       22    1    1    2    0    0  0.78667801526E-02  0.81933682792E-02 -0.33105624698E-01  0.34999998576E-01  0.00000000000E+00 0. -1.
       22    1    1    2    0    0 -0.78667802387E-02 -0.81933729696E-02  0.33105616961E-01  0.34999992376E-01  0.00000000000E+00 0.  1.
       22    1    1    2    0    0  0.86106566944E-10  0.46904415577E-08  0.77366115315E-08  0.90478071563E-08  0.00000000000E+00 0. -1.
</event>
<event>
 5   0  0.1496444E+06  0.9118800E+02  0.7546771E-02  0.1180000E+00
      -11   -1    0    0    0    0  0.00000000000E+00  0.00000000000E+00  0.34996269501E-01  0.35000000000E-01  0.51099999109E-03 0. -1.
       11   -1    0    0    0    0 -0.00000000000E+00 -0.00000000000E+00 -0.34996269501E-01  0.35000000000E-01  0.51099999109E-03 0.  1.
       22    1    1    2    0    0  0.29346606591E-02  0.29395611749E-01  0.82694775160E-03  0.29553308882E-01  0.00000000000E+00 0.  1.
       22    1    1    2    0    0 -0.28783486644E-02 -0.29280486011E-01  0.88849684057E-02  0.30733929388E-01  0.00000000000E+00 0. -1.
       22    1    1    2    0    0 -0.56311994740E-04 -0.11512573827E-03 -0.97119161573E-02  0.97127617300E-02  0.00000000000E+00 0. -1.
</event>
<event>
 5   0  0.1496444E+06  0.9118800E+02  0.7546771E-02  0.1180000E+00
      -11   -1    0    0    0    0  0.00000000000E+00  0.00000000000E+00  0.34996269501E-01  0.35000000000E-01  0.51099999109E-03 0.  1.
       11   -1    0    0    0    0 -0.00000000000E+00 -0.00000000000E+00 -0.34996269501E-01  0.35000000000E-01  0.51099999109E-03 0. -1.
       22    1    1    2    0    0 -0.13930525977E-01  0.12388714692E-02  0.32061349845E-01  0.34978915226E-01  0.00000000000E+00 0.  1.
       22    1    1    2    0    0 -0.17183001751E-05 -0.15582952305E-05  0.21608936174E-04  0.21733084505E-04  0.00000000000E+00 0. -1.
       22    1    1    2    0    0  0.13932244277E-01 -0.12373131739E-02 -0.32082958782E-01  0.34999351689E-01  0.00000000000E+00 0. -1.
</event>
<event>
 5   0  0.1496444E+06  0.9118800E+02  0.7546771E-02  0.1180000E+00
      -11   -1    0    0    0    0  0.00000000000E+00  0.00000000000E+00  0.34996269501E-01  0.35000000000E-01  0.51099999109E-03 0. -1.
       11   -1    0    0    0    0 -0.00000000000E+00 -0.00000000000E+00 -0.34996269501E-01  0.35000000000E-01  0.51099999109E-03 0.  1.
       22    1    1    2    0    0 -0.10815682793E-03  0.19235363264E-04 -0.13369226308E-03  0.17303618071E-03  0.00000000000E+00 0.  1.
       22    1    1    2    0    0  0.45713245475E-02 -0.48058043594E-03 -0.34549911574E-01  0.34854330512E-01  0.00000000000E+00 0.  1.
       22    1    1    2    0    0 -0.44631677195E-02  0.46134507267E-03  0.34683603837E-01  0.34972633308E-01  0.00000000000E+00 0. -1.
</event>
<event>
 5   0  0.1496444E+06  0.9118800E+02  0.7546771E-02  0.1180000E+00
      -11   -1    0    0    0    0  0.00000000000E+00  0.00000000000E+00  0.34996269501E-01  0.35000000000E-01  0.51099999109E-03 0.  1.
       11   -1    0    0    0    0 -0.00000000000E+00 -0.00000000000E+00 -0.34996269501E-01  0.35000000000E-01  0.51099999109E-03 0. -1.
       22    1    1    2    0    0  0.26893929669E-04  0.10171093877E-01  0.33410854162E-01  0.34924734069E-01  0.00000000000E+00 0.  1.
       22    1    1    2    0    0 -0.46539740559E-05  0.42556918966E-05  0.76165996310E-04  0.76426627441E-04  0.00000000000E+00 0. -1.
       22    1    1    2    0    0 -0.22239955613E-04 -0.10175349569E-01 -0.33487020159E-01  0.34998839303E-01  0.00000000000E+00 0. -1.
</event>
<event>
 5   0  0.1496444E+06  0.9118800E+02  0.7546771E-02  0.1180000E+00
      -11   -1    0    0    0    0  0.00000000000E+00  0.00000000000E+00  0.34996269501E-01  0.35000000000E-01  0.51099999109E-03 0.  1.
       11   -1    0    0    0    0 -0.00000000000E+00 -0.00000000000E+00 -0.34996269501E-01  0.35000000000E-01  0.51099999109E-03 0. -1.
       22    1    1    2    0    0  0.13741466462E-02 -0.18495079277E-02 -0.11062970292E-01  0.11300365935E-01  0.00000000000E+00 0.  1.
       22    1    1    2    0    0 -0.18534617851E-01  0.10727991451E-01  0.26426670596E-01  0.34014567148E-01  0.00000000000E+00 0.  1.
       22    1    1    2    0    0  0.17160471205E-01 -0.88784835231E-02 -0.15363700305E-01  0.24685066917E-01  0.00000000000E+00 0. -1.
</event>
<event>
 5   0  0.1496444E+06  0.9118800E+02  0.7546771E-02  0.1180000E+00
      -11   -1    0    0    0    0  0.00000000000E+00  0.00000000000E+00  0.34996269501E-01  0.35000000000E-01  0.51099999109E-03 0.  1.
       11   -1    0    0    0    0 -0.00000000000E+00 -0.00000000000E+00 -0.34996269501E-01  0.35000000000E-01  0.51099999109E-03 0. -1.
       22    1    1    2    0    0  0.10787205706E-06  0.79882272535E-07  0.14156442277E-05  0.14219937192E-05  0.00000000000E+00 0.  1.
       22    1    1    2    0    0  0.25232217870E-03  0.77696150165E-03 -0.34990460690E-01  0.34999995357E-01  0.00000000000E+00 0. -1.
       22    1    1    2    0    0 -0.25243005076E-03 -0.77704138392E-03  0.34989045046E-01  0.34998582650E-01  0.00000000000E+00 0.  1.
</event>
<event>
 5   0  0.1496444E+06  0.9118800E+02  0.7546771E-02  0.1180000E+00
      -11   -1    0    0    0    0  0.00000000000E+00  0.00000000000E+00  0.34996269501E-01  0.35000000000E-01  0.51099999109E-03 0.  1.
       11   -1    0    0    0    0 -0.00000000000E+00 -0.00000000000E+00 -0.34996269501E-01  0.35000000000E-01  0.51099999109E-03 0. -1.
       22    1    1    2    0    0  0.42464849492E-03  0.85273239033E-03  0.66299250135E-02  0.66980134786E-02  0.00000000000E+00 0. -1.
       22    1    1    2    0    0  0.35956935630E-02 -0.19853371554E-02  0.28061255119E-01  0.28360264715E-01  0.00000000000E+00 0.  1.
       22    1    1    2    0    0 -0.40203420579E-02  0.11326047651E-02 -0.34691180133E-01  0.34941721807E-01  0.00000000000E+00 0. -1.
</event>
<event>
 5   0  0.1496444E+06  0.9118800E+02  0.7546771E-02  0.1180000E+00
      -11   -1    0    0    0    0  0.00000000000E+00  0.00000000000E+00  0.34996269501E-01  0.35000000000E-01  0.51099999109E-03 0.  1.
       11   -1    0    0    0    0 -0.00000000000E+00 -0.00000000000E+00 -0.34996269501E-01  0.35000000000E-01  0.51099999109E-03 0. -1.
       22    1    1    2    0    0  0.16784096634E-02 -0.41455378999E-03  0.34662406034E-01  0.34705493886E-01  0.00000000000E+00 0.  1.
       22    1    1    2    0    0  0.39735143643E-04 -0.18328429626E-04  0.29198043491E-03  0.29524123584E-03  0.00000000000E+00 0. -1.
       22    1    1    2    0    0 -0.17181448070E-02  0.43288221962E-03 -0.34954386469E-01  0.34999264878E-01  0.00000000000E+00 0. -1.
</event>
<event>
 5   0  0.1496444E+06  0.9118800E+02  0.7546771E-02  0.1180000E+00
      -11   -1    0    0    0    0  0.00000000000E+00  0.00000000000E+00  0.34996269501E-01  0.35000000000E-01  0.51099999109E-03 0.  1.
       11   -1    0    0    0    0 -0.00000000000E+00 -0.00000000000E+00 -0.34996269501E-01  0.35000000000E-01  0.51099999109E-03 0. -1.
       22    1    1    2    0    0  0.67287771418E-02  0.67579320724E-02 -0.33675429808E-01  0.34999723720E-01  0.00000000000E+00 0. -1.
       22    1    1    2    0    0 -0.67287531025E-02 -0.67588817752E-02  0.33666957079E-01  0.34991750458E-01  0.00000000000E+00 0.  1.
       22    1    1    2    0    0 -0.24039330361E-07  0.94970280231E-06  0.84727291041E-05  0.85258226450E-05  0.00000000000E+00 0. -1.
</event>
<event>
 5   0  0.1496444E+06  0.9118800E+02  0.7546771E-02  0.1180000E+00
      -11   -1    0    0    0    0  0.00000000000E+00  0.00000000000E+00  0.34996269501E-01  0.35000000000E-01  0.51099999109E-03 0. -1.
       11   -1    0    0    0    0 -0.00000000000E+00 -0.00000000000E+00 -0.34996269501E-01  0.35000000000E-01  0.51099999109E-03 0.  1.
       22    1    1    2    0    0 -0.64842912769E-02  0.36935664231E-02  0.34195180805E-01  0.34999983665E-01  0.00000000000E+00 0. -1.
       22    1    1    2    0    0 -0.68787136899E-08 -0.36948822109E-07 -0.24231050311E-08  0.37661699315E-07  0.00000000000E+00 0.  1.
       22    1    1    2    0    0  0.64842981556E-02 -0.36935294743E-02 -0.34195178382E-01  0.34999978673E-01  0.00000000000E+00 0.  1.
</event>
<event>
 5   0  0.1496444E+06  0.9118800E+02  0.7546771E-02  0.1180000E+00
      -11   -1    0    0    0    0  0.00000000000E+00  0.00000000000E+00  0.34996269501E-01  0.35000000000E-01  0.51099999109E-03 0.  1.
       11   -1    0    0    0    0 -0.00000000000E+00 -0.00000000000E+00 -0.34996269501E-01  0.35000000000E-01  0.51099999109E-03 0. -1.
       22    1    1    2    0    0  0.12807938103E-07 -0.15102195504E-07  0.74863313179E-06  0.74889497635E-06  0.00000000000E+00 0.  1.
       22    1    1    2    0    0  0.28445828867E-01  0.37244655460E-02  0.20047983648E-01  0.34999406737E-01  0.00000000000E+00 0.  1.
       22    1    1    2    0    0 -0.28445841675E-01 -0.37244504438E-02 -0.20048732281E-01  0.34999844368E-01  0.00000000000E+00 0. -1.
</event>
<event>
 5   0  0.1496444E+06  0.9118800E+02  0.7546771E-02  0.1180000E+00
      -11   -1    0    0    0    0  0.00000000000E+00  0.00000000000E+00  0.34996269501E-01  0.35000000000E-01  0.51099999109E-03 0.  1.
       11   -1    0    0    0    0 -0.00000000000E+00 -0.00000000000E+00 -0.34996269501E-01  0.35000000000E-01  0.51099999109E-03 0. -1.
       22    1    1    2    0    0  0.99021270221E-02 -0.13215968129E-01  0.24737752254E-01  0.29743408005E-01  0.00000000000E+00 0.  1.
       22    1    1    2    0    0 -0.11404851808E-01  0.13573184424E-01 -0.29959066826E-01  0.34811602452E-01  0.00000000000E+00 0. -1.
       22    1    1    2    0    0  0.15027247860E-02 -0.35721629465E-03  0.52213145724E-02  0.54449895434E-02  0.00000000000E+00 0. -1.
</event>
<event>
 5   0  0.1496444E+06  0.9118800E+02  0.7546771E-02  0.1180000E+00
      -11   -1    0    0    0    0  0.00000000000E+00  0.00000000000E+00  0.34996269501E-01  0.35000000000E-01  0.51099999109E-03 0. -1.
       11   -1    0    0    0    0 -0.00000000000E+00 -0.00000000000E+00 -0.34996269501E-01  0.35000000000E-01  0.51099999109E-03 0.  1.
       22    1    1    2    0    0  0.35532206730E-02  0.28182217992E-02  0.91754716181E-02  0.10235088210E-01  0.00000000000E+00 0. -1.
       22    1    1    2    0    0 -0.90979787096E-02  0.58958082582E-03  0.24148042984E-01  0.25811795794E-01  0.00000000000E+00 0.  1.
       22    1    1    2    0    0  0.55447580366E-02 -0.34078026250E-02 -0.33323514602E-01  0.33953115996E-01  0.00000000000E+00 0.  1.
</event>
<event>
 5   0  0.1496444E+06  0.9118800E+02  0.7546771E-02  0.1180000E+00
      -11   -1    0    0    0    0  0.00000000000E+00  0.00000000000E+00  0.34996269501E-01  0.35000000000E-01  0.51099999109E-03 0.  1.
       11   -1    0    0    0    0 -0.00000000000E+00 -0.00000000000E+00 -0.34996269501E-01  0.35000000000E-01  0.51099999109E-03 0. -1.
       22    1    1    2    0    0  0.24350407954E-02 -0.15772221023E-02  0.24214034266E-01  0.24387220192E-01  0.00000000000E+00 0.  1.
       22    1    1    2    0    0 -0.75852703773E-03 -0.26557821950E-02 -0.34371137565E-01  0.34481932078E-01  0.00000000000E+00 0. -1.
       22    1    1    2    0    0 -0.16765137577E-02  0.42330042973E-02  0.10157103299E-01  0.11130847730E-01  0.00000000000E+00 0.  1.
</event>
<event>
 5   0  0.1496444E+06  0.9118800E+02  0.7546771E-02  0.1180000E+00
      -11   -1    0    0    0    0  0.00000000000E+00  0.00000000000E+00  0.34996269501E-01  0.35000000000E-01  0.51099999109E-03 0.  1.
       11   -1    0    0    0    0 -0.00000000000E+00 -0.00000000000E+00 -0.34996269501E-01  0.35000000000E-01  0.51099999109E-03 0. -1.
       22    1    1    2    0    0 -0.20152226089E-01 -0.14302642268E-01  0.24773072940E-01  0.34991183677E-01  0.00000000000E+00 0.  1.
       22    1    1    2    0    0 -0.76375536993E-05  0.15865323433E-05 -0.45186938061E-04  0.45855301577E-04  0.00000000000E+00 0. -1.
       22    1    1    2    0    0  0.20159863643E-01  0.14301055736E-01 -0.24727886002E-01  0.34962961022E-01  0.00000000000E+00 0. -1.
</event>
<event>
 5   0  0.1496444E+06  0.9118800E+02  0.7546771E-02  0.1180000E+00
      -11   -1    0    0    0    0  0.00000000000E+00  0.00000000000E+00  0.34996269501E-01  0.35000000000E-01  0.51099999109E-03 0. -1.
       11   -1    0    0    0    0 -0.00000000000E+00 -0.00000000000E+00 -0.34996269501E-01  0.35000000000E-01  0.51099999109E-03 0.  1.
       22    1    1    2    0    0  0.12215773496E-02 -0.93191446218E-03  0.34942216465E-01  0.34975980433E-01  0.00000000000E+00 0. -1.
       22    1    1    2    0    0  0.67511981600E-05 -0.33212606260E-05  0.23275420161E-04  0.24461288445E-04  0.00000000000E+00 0.  1.
       22    1    1    2    0    0 -0.12283285478E-02  0.93523572281E-03 -0.34965491885E-01  0.34999558278E-01  0.00000000000E+00 0.  1.
</event>
<event>
 5   0  0.1496444E+06  0.9118800E+02  0.7546771E-02  0.1180000E+00
      -11   -1    0    0    0    0  0.00000000000E+00  0.00000000000E+00  0.34996269501E-01  0.35000000000E-01  0.51099999109E-03 0. -1.
       11   -1    0    0    0    0 -0.00000000000E+00 -0.00000000000E+00 -0.34996269501E-01  0.35000000000E-01  0.51099999109E-03 0.  1.
       22    1    1    2    0    0  0.32627523740E-02  0.80622575744E-03 -0.31604705957E-02  0.46134723812E-02  0.00000000000E+00 0.  1.
       22    1    1    2    0    0  0.44619850516E-02 -0.30688668774E-02  0.33531983748E-01  0.33966471535E-01  0.00000000000E+00 0. -1.
       22    1    1    2    0    0 -0.77247374256E-02  0.22626411200E-02 -0.30371513152E-01  0.31420056083E-01  0.00000000000E+00 0.  1.
</event>
<event>
 5   0  0.1496444E+06  0.9118800E+02  0.7546771E-02  0.1180000E+00
      -11   -1    0    0    0    0  0.00000000000E+00  0.00000000000E+00  0.34996269501E-01  0.35000000000E-01  0.51099999109E-03 0. -1.
       11   -1    0    0    0    0 -0.00000000000E+00 -0.00000000000E+00 -0.34996269501E-01  0.35000000000E-01  0.51099999109E-03 0.  1.
       22    1    1    2    0    0  0.56141065207E-03  0.14341628482E-02  0.34067147411E-01  0.34101943313E-01  0.00000000000E+00 0. -1.
       22    1    1    2    0    0 -0.29054851118E-03 -0.18520704602E-03 -0.34535300121E-01  0.34537018901E-01  0.00000000000E+00 0.  1.
       22    1    1    2    0    0 -0.27086214090E-03 -0.12489558022E-02  0.46815271034E-03  0.13610377861E-02  0.00000000000E+00 0.  1.
</event>
<event>
 5   0  0.1496444E+06  0.9118800E+02  0.7546771E-02  0.1180000E+00
      -11   -1    0    0    0    0  0.00000000000E+00  0.00000000000E+00  0.34996269501E-01  0.35000000000E-01  0.51099999109E-03 0. -1.
       11   -1    0    0    0    0 -0.00000000000E+00 -0.00000000000E+00 -0.34996269501E-01  0.35000000000E-01  0.51099999109E-03 0.  1.
       22    1    1    2    0    0  0.99430120324E-02 -0.10704520609E-01 -0.31804854942E-01  0.34999986395E-01  0.00000000000E+00 0.  1.
       22    1    1    2    0    0 -0.21215604164E-05  0.19688639839E-05  0.78108578000E-05  0.83298825658E-05  0.00000000000E+00 0.  1.
       22    1    1    2    0    0 -0.99408904720E-02  0.10702551745E-01  0.31797044084E-01  0.34991683723E-01  0.00000000000E+00 0. -1.
</event>
<event>
 5   0  0.1496444E+06  0.9118800E+02  0.7546771E-02  0.1180000E+00
      -11   -1    0    0    0    0  0.00000000000E+00  0.00000000000E+00  0.34996269501E-01  0.35000000000E-01  0.51099999109E-03 0. -1.
       11   -1    0    0    0    0 -0.00000000000E+00 -0.00000000000E+00 -0.34996269501E-01  0.35000000000E-01  0.51099999109E-03 0.  1.
       22    1    1    2    0    0 -0.20311868591E-02  0.20812051074E-02  0.34316682048E-01  0.34439683529E-01  0.00000000000E+00 0. -1.
       22    1    1    2    0    0 -0.13627953550E-04  0.10265938445E-04  0.56046874353E-03  0.56072838619E-03  0.00000000000E+00 0.  1.
       22    1    1    2    0    0  0.20448148126E-02 -0.20914710459E-02 -0.34877150792E-01  0.34999588085E-01  0.00000000000E+00 0.  1.
</event>
<event>
 5   0  0.1496444E+06  0.9118800E+02  0.7546771E-02  0.1180000E+00
      -11   -1    0    0    0    0  0.00000000000E+00  0.00000000000E+00  0.34996269501E-01  0.35000000000E-01  0.51099999109E-03 0.  1.
       11   -1    0    0    0    0 -0.00000000000E+00 -0.00000000000E+00 -0.34996269501E-01  0.35000000000E-01  0.51099999109E-03 0. -1.
       22    1    1    2    0    0 -0.56984842291E-02  0.37281863149E-02  0.34331091018E-01  0.34999941517E-01  0.00000000000E+00 0.  1.
       22    1    1    2    0    0 -0.11129765935E-06  0.82854566273E-07 -0.64006507016E-07  0.15280340660E-06  0.00000000000E+00 0.  1.
       22    1    1    2    0    0  0.56985955268E-02 -0.37282691695E-02 -0.34331027011E-01  0.34999905680E-01  0.00000000000E+00 0. -1.
</event>
<event>
 5   0  0.1496444E+06  0.9118800E+02  0.7546771E-02  0.1180000E+00
      -11   -1    0    0    0    0  0.00000000000E+00  0.00000000000E+00  0.34996269501E-01  0.35000000000E-01  0.51099999109E-03 0. -1.
       11   -1    0    0    0    0 -0.00000000000E+00 -0.00000000000E+00 -0.34996269501E-01  0.35000000000E-01  0.51099999109E-03 0. -1.
       22    1    1    2    0    0  0.23146617170E-03 -0.13487458489E-03 -0.34998922068E-01  0.34999947338E-01  0.00000000000E+00 0. -1.
       22    1    1    2    0    0 -0.27418778086E-06 -0.16961625877E-05  0.14692193602E-04  0.14792318929E-04  0.00000000000E+00 0. -1.
       22    1    1    2    0    0 -0.23119198391E-03  0.13657074748E-03  0.34984229875E-01  0.34985260343E-01  0.00000000000E+00 0. -1.
</event>
<event>
 5   0  0.1496444E+06  0.9118800E+02  0.7546771E-02  0.1180000E+00
      -11   -1    0    0    0    0  0.00000000000E+00  0.00000000000E+00  0.34996269501E-01  0.35000000000E-01  0.51099999109E-03 0. -1.
       11   -1    0    0    0    0 -0.00000000000E+00 -0.00000000000E+00 -0.34996269501E-01  0.35000000000E-01  0.51099999109E-03 0.  1.
       22    1    1    2    0    0 -0.15778882198E-04  0.88270648595E-05  0.65725553911E-05  0.19237689098E-04  0.00000000000E+00 0.  1.
       22    1    1    2    0    0 -0.12385721653E-02 -0.10758617519E-02 -0.34955039065E-01  0.34993517908E-01  0.00000000000E+00 0.  1.
       22    1    1    2    0    0  0.12543510475E-02  0.10670346870E-02  0.34948466510E-01  0.34987244403E-01  0.00000000000E+00 0. -1.
</event>
<event>
 5   0  0.1496444E+06  0.9118800E+02  0.7546771E-02  0.1180000E+00
      -11   -1    0    0    0    0  0.00000000000E+00  0.00000000000E+00  0.34996269501E-01  0.35000000000E-01  0.51099999109E-03 0. -1.
       11   -1    0    0    0    0 -0.00000000000E+00 -0.00000000000E+00 -0.34996269501E-01  0.35000000000E-01  0.51099999109E-03 0.  1.
       22    1    1    2    0    0  0.21549856372E-06  0.37064236367E-06  0.84842121556E-06  0.95059662935E-06  0.00000000000E+00 0. -1.
       22    1    1    2    0    0 -0.38116016633E-02 -0.44287189480E-02 -0.34508790347E-01  0.34999978142E-01  0.00000000000E+00 0.  1.
       22    1    1    2    0    0  0.38113861648E-02  0.44283483056E-02  0.34507941925E-01  0.34999071261E-01  0.00000000000E+00 0. -1.
</event>
<event>
 5   0  0.1496444E+06  0.9118800E+02  0.7546771E-02  0.1180000E+00
      -11   -1    0    0    0    0  0.00000000000E+00  0.00000000000E+00  0.34996269501E-01  0.35000000000E-01  0.51099999109E-03 0.  1.
       11   -1    0    0    0    0 -0.00000000000E+00 -0.00000000000E+00 -0.34996269501E-01  0.35000000000E-01  0.51099999109E-03 0. -1.
       22    1    1    2    0    0  0.55204717753E-02  0.11928373961E-01 -0.32438221248E-01  0.34999998739E-01  0.00000000000E+00 0. -1.
       22    1    1    2    0    0 -0.55204763524E-02 -0.11928369958E-01  0.32438184918E-01  0.34999964425E-01  0.00000000000E+00 0.  1.
       22    1    1    2    0    0  0.45770579353E-08 -0.40029117137E-08  0.36330419909E-07  0.36835745849E-07  0.00000000000E+00 0.  1.
</event>
<event>
 5   0  0.1496444E+06  0.9118800E+02  0.7546771E-02  0.1180000E+00
      -11   -1    0    0    0    0  0.00000000000E+00  0.00000000000E+00  0.34996269501E-01  0.35000000000E-01  0.51099999109E-03 0.  1.
       11   -1    0    0    0    0 -0.00000000000E+00 -0.00000000000E+00 -0.34996269501E-01  0.35000000000E-01  0.51099999109E-03 0. -1.
       22    1    1    2    0    0 -0.30902393760E-02 -0.10687589035E-01  0.33183972895E-01  0.34999288505E-01  0.00000000000E+00 0.  1.
       22    1    1    2    0    0  0.65678999653E-06  0.63579012908E-07  0.62435026800E-06  0.90842096386E-06  0.00000000000E+00 0.  1.
       22    1    1    2    0    0  0.30895825860E-02  0.10687525456E-01 -0.33184597245E-01  0.34999803074E-01  0.00000000000E+00 0. -1.
</event>
<event>
 5   0  0.1496444E+06  0.9118800E+02  0.7546771E-02  0.1180000E+00
      -11   -1    0    0    0    0  0.00000000000E+00  0.00000000000E+00  0.34996269501E-01  0.35000000000E-01  0.51099999109E-03 0.  1.
       11   -1    0    0    0    0 -0.00000000000E+00 -0.00000000000E+00 -0.34996269501E-01  0.35000000000E-01  0.51099999109E-03 0. -1.
       22    1    1    2    0    0 -0.14856292775E-01 -0.30295071222E-02 -0.20454667286E-01  0.25461358216E-01  0.00000000000E+00 0. -1.
       22    1    1    2    0    0  0.26420390964E-01 -0.16454512333E-02  0.10119437465E-01  0.28339858557E-01  0.00000000000E+00 0.  1.
       22    1    1    2    0    0 -0.11564098189E-01  0.46749583555E-02  0.10335229822E-01  0.16198783226E-01  0.00000000000E+00 0. -1.
</event>
<event>
 5   0  0.1496444E+06  0.9118800E+02  0.7546771E-02  0.1180000E+00
      -11   -1    0    0    0    0  0.00000000000E+00  0.00000000000E+00  0.34996269501E-01  0.35000000000E-01  0.51099999109E-03 0. -1.
       11   -1    0    0    0    0 -0.00000000000E+00 -0.00000000000E+00 -0.34996269501E-01  0.35000000000E-01  0.51099999109E-03 0.  1.
       22    1    1    2    0    0  0.54373972946E-02  0.72703402238E-02 -0.33802023596E-01  0.34999999078E-01  0.00000000000E+00 0.  1.
       22    1    1    2    0    0 -0.54374018928E-02 -0.72703339139E-02  0.33801968363E-01  0.34999945140E-01  0.00000000000E+00 0. -1.
       22    1    1    2    0    0  0.45981959593E-08 -0.63098698271E-08  0.55232668446E-07  0.55781766976E-07  0.00000000000E+00 0. -1.
</event>
<event>
 5   0  0.1496444E+06  0.9118800E+02  0.7546771E-02  0.1180000E+00
      -11   -1    0    0    0    0  0.00000000000E+00  0.00000000000E+00  0.34996269501E-01  0.35000000000E-01  0.51099999109E-03 0. -1.
       11   -1    0    0    0    0 -0.00000000000E+00 -0.00000000000E+00 -0.34996269501E-01  0.35000000000E-01  0.51099999109E-03 0.  1.
       22    1    1    2    0    0 -0.98845835380E-03  0.14454159627E-03 -0.34985713229E-01  0.34999972462E-01  0.00000000000E+00 0.  1.
       22    1    1    2    0    0  0.98716216031E-03 -0.14493836494E-03  0.34975032184E-01  0.34989260817E-01  0.00000000000E+00 0. -1.
       22    1    1    2    0    0  0.12961934953E-05  0.39676866771E-06  0.10681045047E-04  0.10766720310E-04  0.00000000000E+00 0. -1.
</event>
<event>
 5   0  0.1496444E+06  0.9118800E+02  0.7546771E-02  0.1180000E+00
      -11   -1    0    0    0    0  0.00000000000E+00  0.00000000000E+00  0.34996269501E-01  0.35000000000E-01  0.51099999109E-03 0. -1.
       11   -1    0    0    0    0 -0.00000000000E+00 -0.00000000000E+00 -0.34996269501E-01  0.35000000000E-01  0.51099999109E-03 0.  1.
       22    1    1    2    0    0 -0.16592633791E-05 -0.14699211154E-05  0.18480177685E-04  0.18612651351E-04  0.00000000000E+00 0. -1.
       22    1    1    2    0    0 -0.99255228235E-02  0.88307117717E-02 -0.32379715307E-01  0.34999191949E-01  0.00000000000E+00 0.  1.
       22    1    1    2    0    0  0.99271820869E-02 -0.88292418506E-02  0.32361235130E-01  0.34982195399E-01  0.00000000000E+00 0. -1.
</event>
<event>
 5   0  0.1496444E+06  0.9118800E+02  0.7546771E-02  0.1180000E+00
      -11   -1    0    0    0    0  0.00000000000E+00  0.00000000000E+00  0.34996269501E-01  0.35000000000E-01  0.51099999109E-03 0.  1.
       11   -1    0    0    0    0 -0.00000000000E+00 -0.00000000000E+00 -0.34996269501E-01  0.35000000000E-01  0.51099999109E-03 0. -1.
       22    1    1    2    0    0  0.82402890119E-02 -0.26229315499E-02 -0.33914855361E-01  0.34999993529E-01  0.00000000000E+00 0. -1.
       22    1    1    2    0    0  0.17110525483E-07 -0.65512632320E-08  0.17347073396E-07  0.25231133301E-07  0.00000000000E+00 0. -1.
       22    1    1    2    0    0 -0.82403061225E-02  0.26229381012E-02  0.33914838014E-01  0.34999981240E-01  0.00000000000E+00 0.  1.
</event>
<event>
 5   0  0.1496444E+06  0.9118800E+02  0.7546771E-02  0.1180000E+00
      -11   -1    0    0    0    0  0.00000000000E+00  0.00000000000E+00  0.34996269501E-01  0.35000000000E-01  0.51099999109E-03 0. -1.
       11   -1    0    0    0    0 -0.00000000000E+00 -0.00000000000E+00 -0.34996269501E-01  0.35000000000E-01  0.51099999109E-03 0.  1.
       22    1    1    2    0    0 -0.12083789280E-01 -0.19021541271E-01 -0.24579604774E-01  0.33346573535E-01  0.00000000000E+00 0.  1.
       22    1    1    2    0    0  0.12055352722E-01  0.19036250163E-01  0.26470638958E-01  0.34762121287E-01  0.00000000000E+00 0. -1.
       22    1    1    2    0    0  0.28436557889E-04 -0.14708892117E-04 -0.18910341848E-02  0.18913051783E-02  0.00000000000E+00 0.  1.
</event>
<event>
 5   0  0.1496444E+06  0.9118800E+02  0.7546771E-02  0.1180000E+00
      -11   -1    0    0    0    0  0.00000000000E+00  0.00000000000E+00  0.34996269501E-01  0.35000000000E-01  0.51099999109E-03 0. -1.
       11   -1    0    0    0    0 -0.00000000000E+00 -0.00000000000E+00 -0.34996269501E-01  0.35000000000E-01  0.51099999109E-03 0. -1.
       22    1    1    2    0    0  0.61289602295E-04 -0.12489940706E-04 -0.34982939340E-01  0.34982995259E-01  0.00000000000E+00 0. -1.
       22    1    1    2    0    0 -0.37972699637E-04  0.68376263035E-04  0.72918892563E-04  0.10693177337E-03  0.00000000000E+00 0.  1.
       22    1    1    2    0    0 -0.23316902659E-04 -0.55886322329E-04  0.34910020448E-01  0.34910072968E-01  0.00000000000E+00 0. -1.
</event>
<event>
 5   0  0.1496444E+06  0.9118800E+02  0.7546771E-02  0.1180000E+00
      -11   -1    0    0    0    0  0.00000000000E+00  0.00000000000E+00  0.34996269501E-01  0.35000000000E-01  0.51099999109E-03 0.  1.
       11   -1    0    0    0    0 -0.00000000000E+00 -0.00000000000E+00 -0.34996269501E-01  0.35000000000E-01  0.51099999109E-03 0. -1.
       22    1    1    2    0    0  0.60375614863E-02  0.16675348463E-01 -0.30099059083E-01  0.34935265173E-01  0.00000000000E+00 0. -1.
       22    1    1    2    0    0  0.91661014038E-04 -0.47228639988E-04 -0.32411169512E-04  0.10808686247E-03  0.00000000000E+00 0.  1.
       22    1    1    2    0    0 -0.61292225003E-02 -0.16628119823E-01  0.30131470252E-01  0.34956647964E-01  0.00000000000E+00 0.  1.
</event>
<event>
 5   0  0.1496444E+06  0.9118800E+02  0.7546771E-02  0.1180000E+00
      -11   -1    0    0    0    0  0.00000000000E+00  0.00000000000E+00  0.34996269501E-01  0.35000000000E-01  0.51099999109E-03 0.  1.
       11   -1    0    0    0    0 -0.00000000000E+00 -0.00000000000E+00 -0.34996269501E-01  0.35000000000E-01  0.51099999109E-03 0. -1.
       22    1    1    2    0    0 -0.19649837296E-01 -0.11354716705E-01  0.25866993821E-01  0.34411438019E-01  0.00000000000E+00 0.  1.
       22    1    1    2    0    0  0.19594692247E-01  0.12534416338E-01 -0.24550239512E-01  0.33819784406E-01  0.00000000000E+00 0. -1.
       22    1    1    2    0    0  0.55145049077E-04 -0.11796996330E-02 -0.13167543086E-02  0.17687775750E-02  0.00000000000E+00 0. -1.
</event>
<event>
 5   0  0.1496444E+06  0.9118800E+02  0.7546771E-02  0.1180000E+00
      -11   -1    0    0    0    0  0.00000000000E+00  0.00000000000E+00  0.34996269501E-01  0.35000000000E-01  0.51099999109E-03 0.  1.
       11   -1    0    0    0    0 -0.00000000000E+00 -0.00000000000E+00 -0.34996269501E-01  0.35000000000E-01  0.51099999109E-03 0. -1.
       22    1    1    2    0    0  0.26624611828E-02  0.18226617092E-02 -0.34850850074E-01  0.34999893516E-01  0.00000000000E+00 0. -1.
       22    1    1    2    0    0 -0.28890930525E-06  0.48392016586E-06  0.66413173485E-06  0.87104435870E-06  0.00000000000E+00 0. -1.
       22    1    1    2    0    0 -0.26621722735E-02 -0.18231456294E-02  0.34850185942E-01  0.34999235440E-01  0.00000000000E+00 0.  1.
</event>
<event>
 5   0  0.1496444E+06  0.9118800E+02  0.7546771E-02  0.1180000E+00
      -11   -1    0    0    0    0  0.00000000000E+00  0.00000000000E+00  0.34996269501E-01  0.35000000000E-01  0.51099999109E-03 0. -1.
       11   -1    0    0    0    0 -0.00000000000E+00 -0.00000000000E+00 -0.34996269501E-01  0.35000000000E-01  0.51099999109E-03 0.  1.
       22    1    1    2    0    0 -0.11169673642E-01 -0.85885283676E-02  0.32037338969E-01  0.34998793079E-01  0.00000000000E+00 0. -1.
       22    1    1    2    0    0  0.55551408928E-07 -0.13874086011E-07  0.12670401844E-05  0.12683332678E-05  0.00000000000E+00 0. -1.
       22    1    1    2    0    0  0.11169618091E-01  0.85885422417E-02 -0.32038606009E-01  0.34999938588E-01  0.00000000000E+00 0.  1.
</event>
<event>
 5   0  0.1496444E+06  0.9118800E+02  0.7546771E-02  0.1180000E+00
      -11   -1    0    0    0    0  0.00000000000E+00  0.00000000000E+00  0.34996269501E-01  0.35000000000E-01  0.51099999109E-03 0. -1.
       11   -1    0    0    0    0 -0.00000000000E+00 -0.00000000000E+00 -0.34996269501E-01  0.35000000000E-01  0.51099999109E-03 0.  1.
       22    1    1    2    0    0  0.14076042577E-05  0.12275812913E-05  0.60890733965E-04  0.60919371208E-04  0.00000000000E+00 0.  1.
       22    1    1    2    0    0 -0.12067655560E-02  0.26932846172E-02 -0.34875202036E-01  0.34999854031E-01  0.00000000000E+00 0.  1.
       22    1    1    2    0    0  0.12053579517E-02 -0.26945121984E-02  0.34814311302E-01  0.34939226598E-01  0.00000000000E+00 0. -1.
</event>
<event>
 5   0  0.1496444E+06  0.9118800E+02  0.7546771E-02  0.1180000E+00
      -11   -1    0    0    0    0  0.00000000000E+00  0.00000000000E+00  0.34996269501E-01  0.35000000000E-01  0.51099999109E-03 0.  1.
       11   -1    0    0    0    0 -0.00000000000E+00 -0.00000000000E+00 -0.34996269501E-01  0.35000000000E-01  0.51099999109E-03 0. -1.
       22    1    1    2    0    0  0.76574864030E-02 -0.51270603206E-02 -0.33764819133E-01  0.34999812237E-01  0.00000000000E+00 0. -1.
       22    1    1    2    0    0 -0.76577429037E-02  0.51271329410E-02  0.33756187788E-01  0.34991552303E-01  0.00000000000E+00 0.  1.
       22    1    1    2    0    0  0.25650065269E-06 -0.72620490063E-07  0.86313447214E-05  0.86354604985E-05  0.00000000000E+00 0.  1.
</event>
<event>
 5   0  0.1496444E+06  0.9118800E+02  0.7546771E-02  0.1180000E+00
      -11   -1    0    0    0    0  0.00000000000E+00  0.00000000000E+00  0.34996269501E-01  0.35000000000E-01  0.51099999109E-03 0. -1.
       11   -1    0    0    0    0 -0.00000000000E+00 -0.00000000000E+00 -0.34996269501E-01  0.35000000000E-01  0.51099999109E-03 0.  1.
       22    1    1    2    0    0 -0.11290959086E-02 -0.90221296089E-03  0.34970105023E-01  0.34999958445E-01  0.00000000000E+00 0. -1.
       22    1    1    2    0    0  0.11290867842E-02  0.90220863236E-03 -0.34970146189E-01  0.34999999169E-01  0.00000000000E+00 0.  1.
       22    1    1    2    0    0  0.91244116191E-08  0.43285347883E-08  0.41165564796E-07  0.42386257511E-07  0.00000000000E+00 0. -1.
</event>
<event>
 5   0  0.1496444E+06  0.9118800E+02  0.7546771E-02  0.1180000E+00
      -11   -1    0    0    0    0  0.00000000000E+00  0.00000000000E+00  0.34996269501E-01  0.35000000000E-01  0.51099999109E-03 0. -1.
       11   -1    0    0    0    0 -0.00000000000E+00 -0.00000000000E+00 -0.34996269501E-01  0.35000000000E-01  0.51099999109E-03 0.  1.
       22    1    1    2    0    0 -0.17310859053E-02 -0.10773447028E-02  0.34880999998E-01  0.34940542224E-01  0.00000000000E+00 0. -1.
       22    1    1    2    0    0  0.22661651137E-02  0.89501718879E-03 -0.33129915621E-01  0.33219389958E-01  0.00000000000E+00 0.  1.
       22    1    1    2    0    0 -0.53507920836E-03  0.18232751400E-03 -0.17510843769E-02  0.18400678184E-02  0.00000000000E+00 0.  1.
</event>
<event>
 5   0  0.1496444E+06  0.9118800E+02  0.7546771E-02  0.1180000E+00
      -11   -1    0    0    0    0  0.00000000000E+00  0.00000000000E+00  0.34996269501E-01  0.35000000000E-01  0.51099999109E-03 0. -1.
       11   -1    0    0    0    0 -0.00000000000E+00 -0.00000000000E+00 -0.34996269501E-01  0.35000000000E-01  0.51099999109E-03 0.  1.
       22    1    1    2    0    0 -0.15822121214E-02  0.31789508106E-02  0.34763386179E-01  0.34944271950E-01  0.00000000000E+00 0. -1.
       22    1    1    2    0    0  0.15876678835E-02 -0.29729674123E-02 -0.34663095404E-01  0.34826561811E-01  0.00000000000E+00 0.  1.
       22    1    1    2    0    0 -0.54557620814E-05 -0.20598339828E-03 -0.10029077520E-03  0.22916623943E-03  0.00000000000E+00 0. -1.
</event>
<event>
 5   0  0.1496444E+06  0.9118800E+02  0.7546771E-02  0.1180000E+00
      -11   -1    0    0    0    0  0.00000000000E+00  0.00000000000E+00  0.34996269501E-01  0.35000000000E-01  0.51099999109E-03 0. -1.
       11   -1    0    0    0    0 -0.00000000000E+00 -0.00000000000E+00 -0.34996269501E-01  0.35000000000E-01  0.51099999109E-03 0.  1.
       22    1    1    2    0    0  0.35181484821E-02  0.63786579551E-03  0.21699727339E-01  0.21992326118E-01  0.00000000000E+00 0. -1.
       22    1    1    2    0    0  0.75641650113E-05  0.26712379994E-03  0.13057564772E-01  0.13060299006E-01  0.00000000000E+00 0. -1.
       22    1    1    2    0    0 -0.35257126471E-02 -0.90498959545E-03 -0.34757292111E-01  0.34947374876E-01  0.00000000000E+00 0.  1.
</event>
<event>
 5   0  0.1496444E+06  0.9118800E+02  0.7546771E-02  0.1180000E+00
      -11   -1    0    0    0    0  0.00000000000E+00  0.00000000000E+00  0.34996269501E-01  0.35000000000E-01  0.51099999109E-03 0. -1.
       11   -1    0    0    0    0 -0.00000000000E+00 -0.00000000000E+00 -0.34996269501E-01  0.35000000000E-01  0.51099999109E-03 0. -1.
       22    1    1    2    0    0  0.58907541234E-05  0.74896218437E-07  0.34815962656E-01  0.34814700755E-01  0.00000000000E+00 0. -1.
       22    1    1    2    0    0 -0.58903322674E-05 -0.74890854876E-07  0.18524933424E-03  0.18534297251E-03  0.00000000000E+00 0.  1.
       22    1    1    2    0    0 -0.42185600207E-09 -0.53635610345E-11 -0.35001211990E-01  0.34999956272E-01  0.00000000000E+00 0. -1.
</event>
<event>
 5   0  0.1496444E+06  0.9118800E+02  0.7546771E-02  0.1180000E+00
      -11   -1    0    0    0    0  0.00000000000E+00  0.00000000000E+00  0.34996269501E-01  0.35000000000E-01  0.51099999109E-03 0.  1.
       11   -1    0    0    0    0 -0.00000000000E+00 -0.00000000000E+00 -0.34996269501E-01  0.35000000000E-01  0.51099999109E-03 0. -1.
       22    1    1    2    0    0 -0.19029821143E-02  0.12219922343E-01 -0.32742205171E-01  0.34999997750E-01  0.00000000000E+00 0. -1.
       22    1    1    2    0    0  0.19029787467E-02 -0.12219926841E-01  0.32742201050E-01  0.34999995282E-01  0.00000000000E+00 0.  1.
       22    1    1    2    0    0  0.33675745495E-08  0.44982357720E-08  0.41213625565E-08  0.69685229948E-08  0.00000000000E+00 0. -1.
</event>
<event>
 5   0  0.1496444E+06  0.9118800E+02  0.7546771E-02  0.1180000E+00
      -11   -1    0    0    0    0  0.00000000000E+00  0.00000000000E+00  0.34996269501E-01  0.35000000000E-01  0.51099999109E-03 0.  1.
       11   -1    0    0    0    0 -0.00000000000E+00 -0.00000000000E+00 -0.34996269501E-01  0.35000000000E-01  0.51099999109E-03 0. -1.
       22    1    1    2    0    0 -0.49845944227E-05 -0.46398574069E-06  0.37798045363E-03  0.37801360397E-03  0.00000000000E+00 0.  1.
       22    1    1    2    0    0  0.76784878697E-02  0.12500062037E-02  0.33742122481E-01  0.34627337769E-01  0.00000000000E+00 0.  1.
       22    1    1    2    0    0 -0.76735032753E-02 -0.12495422180E-02 -0.34120102934E-01  0.34994648627E-01  0.00000000000E+00 0. -1.
</event>
<event>
 5   0  0.1496444E+06  0.9118800E+02  0.7546771E-02  0.1180000E+00
      -11   -1    0    0    0    0  0.00000000000E+00  0.00000000000E+00  0.34996269501E-01  0.35000000000E-01  0.51099999109E-03 0. -1.
       11   -1    0    0    0    0 -0.00000000000E+00 -0.00000000000E+00 -0.34996269501E-01  0.35000000000E-01  0.51099999109E-03 0.  1.
       22    1    1    2    0    0  0.31807949102E-02 -0.65288553254E-02  0.34113929288E-01  0.34878411368E-01  0.00000000000E+00 0. -1.
       22    1    1    2    0    0 -0.31408783409E-02  0.64965356116E-02 -0.34236504166E-01  0.34988688304E-01  0.00000000000E+00 0.  1.
       22    1    1    2    0    0 -0.39916569349E-04  0.32319713866E-04  0.12257487847E-03  0.13290032824E-03  0.00000000000E+00 0.  1.
</event>
<event>
 5   0  0.1496444E+06  0.9118800E+02  0.7546771E-02  0.1180000E+00
      -11   -1    0    0    0    0  0.00000000000E+00  0.00000000000E+00  0.34996269501E-01  0.35000000000E-01  0.51099999109E-03 0. -1.
       11   -1    0    0    0    0 -0.00000000000E+00 -0.00000000000E+00 -0.34996269501E-01  0.35000000000E-01  0.51099999109E-03 0.  1.
       22    1    1    2    0    0 -0.52362394412E-03 -0.23458306443E-03  0.15985114721E-01  0.15995408838E-01  0.00000000000E+00 0. -1.
       22    1    1    2    0    0  0.54484202771E-02 -0.23932289408E-02 -0.34323456809E-01  0.34835506536E-01  0.00000000000E+00 0.  1.
       22    1    1    2    0    0 -0.49247963330E-02  0.26278120052E-02  0.18338342088E-01  0.19169084626E-01  0.00000000000E+00 0. -1.
</event>
<event>
 5   0  0.1496444E+06  0.9118800E+02  0.7546771E-02  0.1180000E+00
      -11   -1    0    0    0    0  0.00000000000E+00  0.00000000000E+00  0.34996269501E-01  0.35000000000E-01  0.51099999109E-03 0. -1.
       11   -1    0    0    0    0 -0.00000000000E+00 -0.00000000000E+00 -0.34996269501E-01  0.35000000000E-01  0.51099999109E-03 0.  1.
       22    1    1    2    0    0  0.41043197461E-02  0.27657010152E-01  0.21052093290E-01  0.34999232606E-01  0.00000000000E+00 0.  1.
       22    1    1    2    0    0 -0.41042773523E-02 -0.27657021458E-01 -0.21053048525E-01  0.34999811153E-01  0.00000000000E+00 0. -1.
       22    1    1    2    0    0 -0.42393733682E-07  0.11306732732E-07  0.95523425534E-06  0.95624136777E-06  0.00000000000E+00 0.  1.
</event>
<event>
 5   0  0.1496444E+06  0.9118800E+02  0.7546771E-02  0.1180000E+00
      -11   -1    0    0    0    0  0.00000000000E+00  0.00000000000E+00  0.34996269501E-01  0.35000000000E-01  0.51099999109E-03 0.  1.
       11   -1    0    0    0    0 -0.00000000000E+00 -0.00000000000E+00 -0.34996269501E-01  0.35000000000E-01  0.51099999109E-03 0. -1.
       22    1    1    2    0    0 -0.52193427115E-02 -0.45353125997E-02  0.34237619341E-01  0.34928858797E-01  0.00000000000E+00 0.  1.
       22    1    1    2    0    0  0.50269268574E-02  0.44537752482E-02 -0.34206825554E-01  0.34859905652E-01  0.00000000000E+00 0. -1.
       22    1    1    2    0    0  0.19241585412E-03  0.81537351504E-04 -0.30793787868E-04  0.21123555094E-03  0.00000000000E+00 0. -1.
</event>
<event>
 5   0  0.1496444E+06  0.9118800E+02  0.7546771E-02  0.1180000E+00
      -11   -1    0    0    0    0  0.00000000000E+00  0.00000000000E+00  0.34996269501E-01  0.35000000000E-01  0.51099999109E-03 0.  1.
       11   -1    0    0    0    0 -0.00000000000E+00 -0.00000000000E+00 -0.34996269501E-01  0.35000000000E-01  0.51099999109E-03 0. -1.
       22    1    1    2    0    0  0.82713955383E-02  0.18496005241E-01  0.28537307929E-01  0.34998516224E-01  0.00000000000E+00 0.  1.
       22    1    1    2    0    0 -0.15138992715E-05 -0.39002068320E-06  0.15933418796E-05  0.22322064159E-05  0.00000000000E+00 0.  1.
       22    1    1    2    0    0 -0.82698816390E-02 -0.18495615221E-01 -0.28538901271E-01  0.34999251570E-01  0.00000000000E+00 0. -1.
</event>
<event>
 5   0  0.1496444E+06  0.9118800E+02  0.7546771E-02  0.1180000E+00
      -11   -1    0    0    0    0  0.00000000000E+00  0.00000000000E+00  0.34996269501E-01  0.35000000000E-01  0.51099999109E-03 0. -1.
       11   -1    0    0    0    0 -0.00000000000E+00 -0.00000000000E+00 -0.34996269501E-01  0.35000000000E-01  0.51099999109E-03 0.  1.
       22    1    1    2    0    0  0.65082810289E-02  0.41872599546E-02  0.30678905745E-01  0.31639945094E-01  0.00000000000E+00 0. -1.
       22    1    1    2    0    0 -0.66621267559E-02 -0.40593159260E-02 -0.34075718587E-01  0.34957353675E-01  0.00000000000E+00 0.  1.
       22    1    1    2    0    0  0.15384572694E-03 -0.12794402857E-03  0.33968128424E-02  0.34027012311E-02  0.00000000000E+00 0. -1.
</event>
<event>
 5   0  0.1496444E+06  0.9118800E+02  0.7546771E-02  0.1180000E+00
      -11   -1    0    0    0    0  0.00000000000E+00  0.00000000000E+00  0.34996269501E-01  0.35000000000E-01  0.51099999109E-03 0.  1.
       11   -1    0    0    0    0 -0.00000000000E+00 -0.00000000000E+00 -0.34996269501E-01  0.35000000000E-01  0.51099999109E-03 0. -1.
       22    1    1    2    0    0 -0.44451988909E-06  0.29835756523E-06  0.22467489124E-04  0.22473866661E-04  0.00000000000E+00 0. -1.
       22    1    1    2    0    0 -0.23234875584E-01  0.23267966169E-01 -0.11966921256E-01  0.34992354843E-01  0.00000000000E+00 0. -1.
       22    1    1    2    0    0  0.23235320104E-01 -0.23268264527E-01  0.11944453767E-01  0.34985171291E-01  0.00000000000E+00 0.  1.
</event>
<event>
 5   0  0.1496444E+06  0.9118800E+02  0.7546771E-02  0.1180000E+00
      -11   -1    0    0    0    0  0.00000000000E+00  0.00000000000E+00  0.34996269501E-01  0.35000000000E-01  0.51099999109E-03 0.  1.
       11   -1    0    0    0    0 -0.00000000000E+00 -0.00000000000E+00 -0.34996269501E-01  0.35000000000E-01  0.51099999109E-03 0. -1.
       22    1    1    2    0    0  0.54567870826E-07 -0.26106397285E-07  0.13120531954E-06  0.14447848415E-06  0.00000000000E+00 0.  1.
       22    1    1    2    0    0  0.10626433728E-02 -0.12778865761E-02 -0.34960509634E-01  0.34999991984E-01  0.00000000000E+00 0. -1.
       22    1    1    2    0    0 -0.10626979407E-02  0.12779126825E-02  0.34960378429E-01  0.34999863537E-01  0.00000000000E+00 0.  1.
</event>
<event>
 5   0  0.1496444E+06  0.9118800E+02  0.7546771E-02  0.1180000E+00
      -11   -1    0    0    0    0  0.00000000000E+00  0.00000000000E+00  0.34996269501E-01  0.35000000000E-01  0.51099999109E-03 0. -1.
       11   -1    0    0    0    0 -0.00000000000E+00 -0.00000000000E+00 -0.34996269501E-01  0.35000000000E-01  0.51099999109E-03 0.  1.
       22    1    1    2    0    0  0.81879402334E-04  0.10145933046E-03 -0.12797007567E-02  0.12863250985E-02  0.00000000000E+00 0. -1.
       22    1    1    2    0    0 -0.15722711403E-02  0.35658399175E-02  0.34771267974E-01  0.34988974369E-01  0.00000000000E+00 0. -1.
       22    1    1    2    0    0  0.14903917379E-02 -0.36672992480E-02 -0.33491567218E-01  0.33724700532E-01  0.00000000000E+00 0.  1.
</event>
<event>
 5   0  0.1496444E+06  0.9118800E+02  0.7546771E-02  0.1180000E+00
      -11   -1    0    0    0    0  0.00000000000E+00  0.00000000000E+00  0.34996269501E-01  0.35000000000E-01  0.51099999109E-03 0.  1.
       11   -1    0    0    0    0 -0.00000000000E+00 -0.00000000000E+00 -0.34996269501E-01  0.35000000000E-01  0.51099999109E-03 0. -1.
       22    1    1    2    0    0  0.14282300313E-01 -0.13771057881E-01 -0.28826965272E-01  0.34994571925E-01  0.00000000000E+00 0. -1.
       22    1    1    2    0    0 -0.14282624033E-01  0.13772240168E-01  0.28768923745E-01  0.34947373606E-01  0.00000000000E+00 0.  1.
       22    1    1    2    0    0  0.32371963982E-06 -0.11822869775E-05  0.58041526734E-04  0.58054469444E-04  0.00000000000E+00 0.  1.
</event>
<event>
 5   0  0.1496444E+06  0.9118800E+02  0.7546771E-02  0.1180000E+00
      -11   -1    0    0    0    0  0.00000000000E+00  0.00000000000E+00  0.34996269501E-01  0.35000000000E-01  0.51099999109E-03 0.  1.
       11   -1    0    0    0    0 -0.00000000000E+00 -0.00000000000E+00 -0.34996269501E-01  0.35000000000E-01  0.51099999109E-03 0. -1.
       22    1    1    2    0    0 -0.28515000528E-01  0.15436440514E-01  0.10575321120E-01  0.34106104551E-01  0.00000000000E+00 0.  1.
       22    1    1    2    0    0  0.70987817864E-04 -0.27094443559E-04 -0.25662888285E-02  0.25674134320E-02  0.00000000000E+00 0. -1.
       22    1    1    2    0    0  0.28444012710E-01 -0.15409346071E-01 -0.80090322918E-02  0.33326482017E-01  0.00000000000E+00 0. -1.
</event>
<event>
 5   0  0.1496444E+06  0.9118800E+02  0.7546771E-02  0.1180000E+00
      -11   -1    0    0    0    0  0.00000000000E+00  0.00000000000E+00  0.34996269501E-01  0.35000000000E-01  0.51099999109E-03 0.  1.
       11   -1    0    0    0    0 -0.00000000000E+00 -0.00000000000E+00 -0.34996269501E-01  0.35000000000E-01  0.51099999109E-03 0. -1.
       22    1    1    2    0    0  0.10930123801E-07  0.40134462918E-08  0.27014267656E-06  0.27039349300E-06  0.00000000000E+00 0.  1.
       22    1    1    2    0    0  0.34644734841E-03  0.88007070187E-03 -0.34987218098E-01  0.34999999721E-01  0.00000000000E+00 0. -1.
       22    1    1    2    0    0 -0.34645827853E-03 -0.88007471532E-03  0.34986947955E-01  0.34999729886E-01  0.00000000000E+00 0.  1.
</event>
<event>
 5   0  0.1496444E+06  0.9118800E+02  0.7546771E-02  0.1180000E+00
      -11   -1    0    0    0    0  0.00000000000E+00  0.00000000000E+00  0.34996269501E-01  0.35000000000E-01  0.51099999109E-03 0.  1.
       11   -1    0    0    0    0 -0.00000000000E+00 -0.00000000000E+00 -0.34996269501E-01  0.35000000000E-01  0.51099999109E-03 0. -1.
       22    1    1    2    0    0  0.11414438290E-01 -0.70725035794E-02  0.32235993249E-01  0.34920895881E-01  0.00000000000E+00 0.  1.
       22    1    1    2    0    0 -0.11349956363E-01  0.69702051365E-02 -0.29812216043E-01  0.32652312237E-01  0.00000000000E+00 0. -1.
       22    1    1    2    0    0 -0.64481926558E-04  0.10229844284E-03 -0.24237772067E-02  0.24267918818E-02  0.00000000000E+00 0. -1.
</event>
<event>
 5   0  0.1496444E+06  0.9118800E+02  0.7546771E-02  0.1180000E+00
      -11   -1    0    0    0    0  0.00000000000E+00  0.00000000000E+00  0.34996269501E-01  0.35000000000E-01  0.51099999109E-03 0.  1.
       11   -1    0    0    0    0 -0.00000000000E+00 -0.00000000000E+00 -0.34996269501E-01  0.35000000000E-01  0.51099999109E-03 0. -1.
       22    1    1    2    0    0 -0.81472206454E-03 -0.30580574296E-03  0.34974736693E-01  0.34985561250E-01  0.00000000000E+00 0.  1.
       22    1    1    2    0    0  0.81607138353E-03  0.30606535487E-03 -0.34989128093E-01  0.34999981903E-01  0.00000000000E+00 0. -1.
       22    1    1    2    0    0 -0.13493189834E-05 -0.25961191597E-06  0.14391399417E-04  0.14456847417E-04  0.00000000000E+00 0.  1.
</event>
<event>
 5   0  0.1496444E+06  0.9118800E+02  0.7546771E-02  0.1180000E+00
      -11   -1    0    0    0    0  0.00000000000E+00  0.00000000000E+00  0.34996269501E-01  0.35000000000E-01  0.51099999109E-03 0.  1.
       11   -1    0    0    0    0 -0.00000000000E+00 -0.00000000000E+00 -0.34996269501E-01  0.35000000000E-01  0.51099999109E-03 0. -1.
       22    1    1    2    0    0  0.53681776090E-02 -0.76030770995E-02  0.33712196436E-01  0.34973365591E-01  0.00000000000E+00 0.  1.
       22    1    1    2    0    0  0.30939338560E-04 -0.12953054653E-04 -0.12046864840E-02  0.12051533301E-02  0.00000000000E+00 0. -1.
       22    1    1    2    0    0 -0.53991169475E-02  0.76160301541E-02 -0.32507509952E-01  0.33821481079E-01  0.00000000000E+00 0. -1.
</event>
<event>
 5   0  0.1496444E+06  0.9118800E+02  0.7546771E-02  0.1180000E+00
      -11   -1    0    0    0    0  0.00000000000E+00  0.00000000000E+00  0.34996269501E-01  0.35000000000E-01  0.51099999109E-03 0. -1.
       11   -1    0    0    0    0 -0.00000000000E+00 -0.00000000000E+00 -0.34996269501E-01  0.35000000000E-01  0.51099999109E-03 0.  1.
       22    1    1    2    0    0  0.10356614157E-01  0.10414516160E-02  0.33383040447E-01  0.34968149333E-01  0.00000000000E+00 0. -1.
       22    1    1    2    0    0 -0.14971719397E-05  0.41899321762E-05  0.32596702083E-04  0.32898967189E-04  0.00000000000E+00 0. -1.
       22    1    1    2    0    0 -0.10355116985E-01 -0.10456415482E-02 -0.33415637149E-01  0.34998951700E-01  0.00000000000E+00 0.  1.
</event>
<event>
 5   0  0.1496444E+06  0.9118800E+02  0.7546771E-02  0.1180000E+00
      -11   -1    0    0    0    0  0.00000000000E+00  0.00000000000E+00  0.34996269501E-01  0.35000000000E-01  0.51099999109E-03 0. -1.
       11   -1    0    0    0    0 -0.00000000000E+00 -0.00000000000E+00 -0.34996269501E-01  0.35000000000E-01  0.51099999109E-03 0.  1.
       22    1    1    2    0    0  0.38467395423E-03 -0.23439530644E-03  0.57885661157E-03  0.73347814385E-03  0.00000000000E+00 0. -1.
       22    1    1    2    0    0  0.20234301998E-02  0.43526574897E-03 -0.34849441733E-01  0.34910848102E-01  0.00000000000E+00 0.  1.
       22    1    1    2    0    0 -0.24081041540E-02 -0.20087044253E-03  0.34270585122E-01  0.34355673755E-01  0.00000000000E+00 0. -1.
</event>
<event>
 5   0  0.1496444E+06  0.9118800E+02  0.7546771E-02  0.1180000E+00
      -11   -1    0    0    0    0  0.00000000000E+00  0.00000000000E+00  0.34996269501E-01  0.35000000000E-01  0.51099999109E-03 0.  1.
       11   -1    0    0    0    0 -0.00000000000E+00 -0.00000000000E+00 -0.34996269501E-01  0.35000000000E-01  0.51099999109E-03 0. -1.
       22    1    1    2    0    0  0.18385169072E-02 -0.31752252776E-03 -0.34950235719E-01  0.34999999168E-01  0.00000000000E+00 0. -1.
       22    1    1    2    0    0 -0.18385286142E-02  0.31751375409E-03  0.34949552232E-01  0.34999317188E-01  0.00000000000E+00 0.  1.
       22    1    1    2    0    0  0.11706972968E-07  0.87736711720E-08  0.68348689154E-06  0.68364344612E-06  0.00000000000E+00 0. -1.
</event>
<event>
 5   0  0.1496444E+06  0.9118800E+02  0.7546771E-02  0.1180000E+00
      -11   -1    0    0    0    0  0.00000000000E+00  0.00000000000E+00  0.34996269501E-01  0.35000000000E-01  0.51099999109E-03 0. -1.
       11   -1    0    0    0    0 -0.00000000000E+00 -0.00000000000E+00 -0.34996269501E-01  0.35000000000E-01  0.51099999109E-03 0.  1.
       22    1    1    2    0    0  0.49181572675E-05  0.19372339987E-05  0.71560233756E-05  0.88966182915E-05  0.00000000000E+00 0. -1.
       22    1    1    2    0    0  0.33199980768E-02 -0.21208471129E-03 -0.34840416817E-01  0.34998885855E-01  0.00000000000E+00 0.  1.
       22    1    1    2    0    0 -0.33249162340E-02  0.21014747729E-03  0.34833260793E-01  0.34992217526E-01  0.00000000000E+00 0. -1.
</event>
<event>
 5   0  0.1496444E+06  0.9118800E+02  0.7546771E-02  0.1180000E+00
      -11   -1    0    0    0    0  0.00000000000E+00  0.00000000000E+00  0.34996269501E-01  0.35000000000E-01  0.51099999109E-03 0. -1.
       11   -1    0    0    0    0 -0.00000000000E+00 -0.00000000000E+00 -0.34996269501E-01  0.35000000000E-01  0.51099999109E-03 0.  1.
       22    1    1    2    0    0  0.19317582334E-03 -0.25094903762E-04 -0.24153602408E-02  0.24232027868E-02  0.00000000000E+00 0. -1.
       22    1    1    2    0    0  0.62288053413E-02  0.99349589991E-02 -0.30463083316E-01  0.32642010836E-01  0.00000000000E+00 0.  1.
       22    1    1    2    0    0 -0.64219811647E-02 -0.99098640953E-02  0.32878443557E-01  0.34934786377E-01  0.00000000000E+00 0. -1.
</event>
<event>
 5   0  0.1496444E+06  0.9118800E+02  0.7546771E-02  0.1180000E+00
      -11   -1    0    0    0    0  0.00000000000E+00  0.00000000000E+00  0.34996269501E-01  0.35000000000E-01  0.51099999109E-03 0.  1.
       11   -1    0    0    0    0 -0.00000000000E+00 -0.00000000000E+00 -0.34996269501E-01  0.35000000000E-01  0.51099999109E-03 0. -1.
       22    1    1    2    0    0  0.46326467747E-02 -0.33277535782E-01 -0.98053145862E-02  0.34999999971E-01  0.00000000000E+00 0. -1.
       22    1    1    2    0    0 -0.10401397014E-08  0.42649662902E-08  0.69152073616E-09  0.44441004696E-08  0.00000000000E+00 0. -1.
       22    1    1    2    0    0 -0.46326457346E-02  0.33277531517E-01  0.98053138946E-02  0.34999995585E-01  0.00000000000E+00 0.  1.
</event>
<event>
 5   0  0.1496444E+06  0.9118800E+02  0.7546771E-02  0.1180000E+00
      -11   -1    0    0    0    0  0.00000000000E+00  0.00000000000E+00  0.34996269501E-01  0.35000000000E-01  0.51099999109E-03 0. -1.
       11   -1    0    0    0    0 -0.00000000000E+00 -0.00000000000E+00 -0.34996269501E-01  0.35000000000E-01  0.51099999109E-03 0.  1.
       22    1    1    2    0    0  0.87931273714E-07  0.14877595294E-07  0.29109741886E-05  0.29123399490E-05  0.00000000000E+00 0. -1.
       22    1    1    2    0    0  0.50658598703E-03 -0.34770927096E-01  0.39513334533E-02  0.34998386199E-01  0.00000000000E+00 0.  1.
       22    1    1    2    0    0 -0.50667391830E-03  0.34770912218E-01 -0.39542444275E-02  0.34998701461E-01  0.00000000000E+00 0. -1.
</event>
<event>
 5   0  0.1496444E+06  0.9118800E+02  0.7546771E-02  0.1180000E+00
      -11   -1    0    0    0    0  0.00000000000E+00  0.00000000000E+00  0.34996269501E-01  0.35000000000E-01  0.51099999109E-03 0.  1.
       11   -1    0    0    0    0 -0.00000000000E+00 -0.00000000000E+00 -0.34996269501E-01  0.35000000000E-01  0.51099999109E-03 0. -1.
       22    1    1    2    0    0 -0.28063545125E-03  0.33683095268E-02  0.34599313687E-01  0.34764015489E-01  0.00000000000E+00 0.  1.
       22    1    1    2    0    0 -0.13129638673E-02 -0.95005078739E-03 -0.23370338591E-02  0.28439757161E-02  0.00000000000E+00 0. -1.
       22    1    1    2    0    0  0.15935993186E-02 -0.24182587394E-02 -0.32262279827E-01  0.32392008795E-01  0.00000000000E+00 0. -1.
</event>
<event>
 5   0  0.1496444E+06  0.9118800E+02  0.7546771E-02  0.1180000E+00
      -11   -1    0    0    0    0  0.00000000000E+00  0.00000000000E+00  0.34996269501E-01  0.35000000000E-01  0.51099999109E-03 0.  1.
       11   -1    0    0    0    0 -0.00000000000E+00 -0.00000000000E+00 -0.34996269501E-01  0.35000000000E-01  0.51099999109E-03 0. -1.
       22    1    1    2    0    0 -0.46561396828E-03 -0.26743295051E-01 -0.20433442724E-01  0.33659266304E-01  0.00000000000E+00 0. -1.
       22    1    1    2    0    0 -0.12596200673E-02  0.10862793213E-03 -0.13790870949E-02  0.18709152725E-02  0.00000000000E+00 0.  1.
       22    1    1    2    0    0  0.17252340355E-02  0.26634667119E-01  0.21812529819E-01  0.34469818423E-01  0.00000000000E+00 0.  1.
</event>
<event>
 5   0  0.1496444E+06  0.9118800E+02  0.7546771E-02  0.1180000E+00
      -11   -1    0    0    0    0  0.00000000000E+00  0.00000000000E+00  0.34996269501E-01  0.35000000000E-01  0.51099999109E-03 0. -1.
       11   -1    0    0    0    0 -0.00000000000E+00 -0.00000000000E+00 -0.34996269501E-01  0.35000000000E-01  0.51099999109E-03 0.  1.
       22    1    1    2    0    0 -0.59576264323E-02 -0.52068339219E-02 -0.34093922387E-01  0.34999999657E-01  0.00000000000E+00 0.  1.
       22    1    1    2    0    0  0.18644362520E-08  0.47708060264E-08  0.57400518860E-07  0.57628606422E-07  0.00000000000E+00 0. -1.
       22    1    1    2    0    0  0.59576245679E-02  0.52068291510E-02  0.34093864987E-01  0.34999942715E-01  0.00000000000E+00 0. -1.
</event>
<event>
 5   0  0.1496444E+06  0.9118800E+02  0.7546771E-02  0.1180000E+00
      -11   -1    0    0    0    0  0.00000000000E+00  0.00000000000E+00  0.34996269501E-01  0.35000000000E-01  0.51099999109E-03 0. -1.
       11   -1    0    0    0    0 -0.00000000000E+00 -0.00000000000E+00 -0.34996269501E-01  0.35000000000E-01  0.51099999109E-03 0.  1.
       22    1    1    2    0    0  0.75407912314E-02 -0.68152429617E-02  0.19597503829E-01  0.22076531099E-01  0.00000000000E+00 0. -1.
       22    1    1    2    0    0  0.38081006949E-02  0.15722102996E-01  0.70305479510E-02  0.17638445454E-01  0.00000000000E+00 0. -1.
       22    1    1    2    0    0 -0.11348891926E-01 -0.89068600346E-02 -0.26628051780E-01  0.30285023448E-01  0.00000000000E+00 0.  1.
</event>
<event>
 5   0  0.1496444E+06  0.9118800E+02  0.7546771E-02  0.1180000E+00
      -11   -1    0    0    0    0  0.00000000000E+00  0.00000000000E+00  0.34996269501E-01  0.35000000000E-01  0.51099999109E-03 0.  1.
       11   -1    0    0    0    0 -0.00000000000E+00 -0.00000000000E+00 -0.34996269501E-01  0.35000000000E-01  0.51099999109E-03 0. -1.
       22    1    1    2    0    0 -0.33450916222E-02  0.30809391437E-02  0.34673549484E-01  0.34970514120E-01  0.00000000000E+00 0.  1.
       22    1    1    2    0    0  0.33456338100E-02 -0.30814868166E-02 -0.34703105711E-01  0.34999919608E-01  0.00000000000E+00 0. -1.
       22    1    1    2    0    0 -0.54218781630E-06  0.54767291081E-06  0.29556226803E-04  0.29566272272E-04  0.00000000000E+00 0. -1.
</event>
<event>
 5   0  0.1496444E+06  0.9118800E+02  0.7546771E-02  0.1180000E+00
      -11   -1    0    0    0    0  0.00000000000E+00  0.00000000000E+00  0.34996269501E-01  0.35000000000E-01  0.51099999109E-03 0.  1.
       11   -1    0    0    0    0 -0.00000000000E+00 -0.00000000000E+00 -0.34996269501E-01  0.35000000000E-01  0.51099999109E-03 0. -1.
       22    1    1    2    0    0  0.49513981725E-02  0.55413099938E-02 -0.34180466689E-01  0.34978947431E-01  0.00000000000E+00 0. -1.
       22    1    1    2    0    0 -0.49479770793E-02 -0.55224301339E-02  0.32286746950E-01  0.33127235628E-01  0.00000000000E+00 0.  1.
       22    1    1    2    0    0 -0.34210931440E-05 -0.18879859836E-04  0.18937197395E-02  0.18938169407E-02  0.00000000000E+00 0.  1.
</event>
<event>
 5   0  0.1496444E+06  0.9118800E+02  0.7546771E-02  0.1180000E+00
      -11   -1    0    0    0    0  0.00000000000E+00  0.00000000000E+00  0.34996269501E-01  0.35000000000E-01  0.51099999109E-03 0. -1.
       11   -1    0    0    0    0 -0.00000000000E+00 -0.00000000000E+00 -0.34996269501E-01  0.35000000000E-01  0.51099999109E-03 0.  1.
       22    1    1    2    0    0 -0.83325702604E-02 -0.43500801803E-02  0.33714167142E-01  0.34999999868E-01  0.00000000000E+00 0. -1.
       22    1    1    2    0    0  0.92964621242E-09 -0.53605025889E-10 -0.73498790065E-09  0.11863063656E-08  0.00000000000E+00 0. -1.
       22    1    1    2    0    0  0.83325693307E-02  0.43500802339E-02 -0.33714166407E-01  0.34999998946E-01  0.00000000000E+00 0.  1.
</event>
<event>
 5   0  0.1496444E+06  0.9118800E+02  0.7546771E-02  0.1180000E+00
      -11   -1    0    0    0    0  0.00000000000E+00  0.00000000000E+00  0.34996269501E-01  0.35000000000E-01  0.51099999109E-03 0. -1.
       11   -1    0    0    0    0 -0.00000000000E+00 -0.00000000000E+00 -0.34996269501E-01  0.35000000000E-01  0.51099999109E-03 0. -1.
       22    1    1    2    0    0 -0.84758281271E-03 -0.13673134513E-02 -0.34963008614E-01  0.34999998772E-01  0.00000000000E+00 0. -1.
       22    1    1    2    0    0  0.94727750610E-07  0.14932306455E-07  0.11006736419E-05  0.11048433312E-05  0.00000000000E+00 0.  1.
       22    1    1    2    0    0  0.84748808496E-03  0.13672985190E-02  0.34961907940E-01  0.34998896385E-01  0.00000000000E+00 0. -1.
</event>
<event>
 5   0  0.1496444E+06  0.9118800E+02  0.7546771E-02  0.1180000E+00
      -11   -1    0    0    0    0  0.00000000000E+00  0.00000000000E+00  0.34996269501E-01  0.35000000000E-01  0.51099999109E-03 0. -1.
       11   -1    0    0    0    0 -0.00000000000E+00 -0.00000000000E+00 -0.34996269501E-01  0.35000000000E-01  0.51099999109E-03 0. -1.
       22    1    1    2    0    0 -0.62253581364E-03  0.43971925748E-03  0.12598973500E-02  0.14724962470E-02  0.00000000000E+00 0.  1.
       22    1    1    2    0    0 -0.11725891622E-03  0.65348461858E-04 -0.34887607239E-01  0.34887865497E-01  0.00000000000E+00 0. -1.
       22    1    1    2    0    0  0.73979472987E-03 -0.50506771934E-03  0.33627709889E-01  0.33639638256E-01  0.00000000000E+00 0. -1.
</event>
<event>
 5   0  0.1496444E+06  0.9118800E+02  0.7546771E-02  0.1180000E+00
      -11   -1    0    0    0    0  0.00000000000E+00  0.00000000000E+00  0.34996269501E-01  0.35000000000E-01  0.51099999109E-03 0. -1.
       11   -1    0    0    0    0 -0.00000000000E+00 -0.00000000000E+00 -0.34996269501E-01  0.35000000000E-01  0.51099999109E-03 0.  1.
       22    1    1    2    0    0 -0.32053528007E-02  0.67560902176E-02 -0.34189170126E-01  0.34997405554E-01  0.00000000000E+00 0.  1.
       22    1    1    2    0    0  0.32110646781E-02 -0.67664780392E-02  0.34115433483E-01  0.34927910948E-01  0.00000000000E+00 0. -1.
       22    1    1    2    0    0 -0.57118773498E-05  0.10387821664E-04  0.73736642686E-04  0.74683497885E-04  0.00000000000E+00 0. -1.
</event>
<event>
 5   0  0.1496444E+06  0.9118800E+02  0.7546771E-02  0.1180000E+00
      -11   -1    0    0    0    0  0.00000000000E+00  0.00000000000E+00  0.34996269501E-01  0.35000000000E-01  0.51099999109E-03 0. -1.
       11   -1    0    0    0    0 -0.00000000000E+00 -0.00000000000E+00 -0.34996269501E-01  0.35000000000E-01  0.51099999109E-03 0.  1.
       22    1    1    2    0    0  0.20839211188E-01  0.32904519851E-02  0.27926268399E-01  0.34999660911E-01  0.00000000000E+00 0. -1.
       22    1    1    2    0    0 -0.20839197602E-01 -0.32904583464E-02 -0.27926649606E-01  0.34999957586E-01  0.00000000000E+00 0.  1.
       22    1    1    2    0    0 -0.13586388973E-07  0.63612957713E-08  0.38120748711E-06  0.38150256130E-06  0.00000000000E+00 0.  1.
</event>
<event>
 5   0  0.1496444E+06  0.9118800E+02  0.7546771E-02  0.1180000E+00
      -11   -1    0    0    0    0  0.00000000000E+00  0.00000000000E+00  0.34996269501E-01  0.35000000000E-01  0.51099999109E-03 0. -1.
       11   -1    0    0    0    0 -0.00000000000E+00 -0.00000000000E+00 -0.34996269501E-01  0.35000000000E-01  0.51099999109E-03 0.  1.
       22    1    1    2    0    0  0.96714820120E-03  0.24795816119E-02  0.34888735407E-01  0.34990106587E-01  0.00000000000E+00 0. -1.
       22    1    1    2    0    0 -0.96542329613E-03 -0.24817237155E-02 -0.34898398840E-01  0.34999846233E-01  0.00000000000E+00 0.  1.
       22    1    1    2    0    0 -0.17249050637E-05  0.21421035965E-05  0.96634325578E-05  0.10047180405E-04  0.00000000000E+00 0. -1.
</event>
<event>
 5   0  0.1496444E+06  0.9118800E+02  0.7546771E-02  0.1180000E+00
      -11   -1    0    0    0    0  0.00000000000E+00  0.00000000000E+00  0.34996269501E-01  0.35000000000E-01  0.51099999109E-03 0. -1.
       11   -1    0    0    0    0 -0.00000000000E+00 -0.00000000000E+00 -0.34996269501E-01  0.35000000000E-01  0.51099999109E-03 0.  1.
       22    1    1    2    0    0  0.24445756183E-06 -0.21483504863E-05  0.25917484303E-04  0.26007521257E-04  0.00000000000E+00 0.  1.
       22    1    1    2    0    0 -0.18281954494E-01  0.29144695995E-01  0.63520750367E-02  0.34985597351E-01  0.00000000000E+00 0. -1.
       22    1    1    2    0    0  0.18281710036E-01 -0.29142547644E-01 -0.63779925210E-02  0.34988395128E-01  0.00000000000E+00 0.  1.
</event>
<event>
 5   0  0.1496444E+06  0.9118800E+02  0.7546771E-02  0.1180000E+00
      -11   -1    0    0    0    0  0.00000000000E+00  0.00000000000E+00  0.34996269501E-01  0.35000000000E-01  0.51099999109E-03 0.  1.
       11   -1    0    0    0    0 -0.00000000000E+00 -0.00000000000E+00 -0.34996269501E-01  0.35000000000E-01  0.51099999109E-03 0. -1.
       22    1    1    2    0    0  0.00000000000E+00  0.00000000000E+00 -0.35003200539E-01  0.35003034267E-01  0.00000000000E+00 0. -1.
       22    1    1    2    0    0  0.00000000000E+00  0.00000000000E+00  0.16646267794E-02  0.16611267995E-02  0.00000000000E+00 0. -1.
       22    1    1    2    0    0  0.00000000000E+00  0.00000000000E+00  0.33338573760E-01  0.33335838933E-01  0.00000000000E+00 0.  1.
</event>
<event>
 5   0  0.1496444E+06  0.9118800E+02  0.7546771E-02  0.1180000E+00
      -11   -1    0    0    0    0  0.00000000000E+00  0.00000000000E+00  0.34996269501E-01  0.35000000000E-01  0.51099999109E-03 0.  1.
       11   -1    0    0    0    0 -0.00000000000E+00 -0.00000000000E+00 -0.34996269501E-01  0.35000000000E-01  0.51099999109E-03 0.  1.
       22    1    1    2    0    0 -0.30868094643E-03 -0.89282354478E-03  0.34986970387E-01  0.34999721637E-01  0.00000000000E+00 0.  1.
       22    1    1    2    0    0  0.19795316962E-06  0.12659314114E-06  0.23175350558E-06  0.33003176831E-06  0.00000000000E+00 0. -1.
       22    1    1    2    0    0  0.30848299326E-03  0.89269695164E-03 -0.34987202140E-01  0.34999948331E-01  0.00000000000E+00 0.  1.
</event>
<event>
 5   0  0.1496444E+06  0.9118800E+02  0.7546771E-02  0.1180000E+00
      -11   -1    0    0    0    0  0.00000000000E+00  0.00000000000E+00  0.34996269501E-01  0.35000000000E-01  0.51099999109E-03 0.  1.
       11   -1    0    0    0    0 -0.00000000000E+00 -0.00000000000E+00 -0.34996269501E-01  0.35000000000E-01  0.51099999109E-03 0. -1.
       22    1    1    2    0    0  0.10266104303E-02 -0.16116799768E-02 -0.14439933485E-01  0.14565820279E-01  0.00000000000E+00 0.  1.
       22    1    1    2    0    0 -0.10262792916E-02  0.19521219344E-02 -0.20436964193E-01  0.20555620512E-01  0.00000000000E+00 0. -1.
       22    1    1    2    0    0 -0.33113873423E-06 -0.34044195761E-03  0.34876897678E-01  0.34878559209E-01  0.00000000000E+00 0.  1.
</event>
<event>
 5   0  0.1496444E+06  0.9118800E+02  0.7546771E-02  0.1180000E+00
      -11   -1    0    0    0    0  0.00000000000E+00  0.00000000000E+00  0.34996269501E-01  0.35000000000E-01  0.51099999109E-03 0. -1.
       11   -1    0    0    0    0 -0.00000000000E+00 -0.00000000000E+00 -0.34996269501E-01  0.35000000000E-01  0.51099999109E-03 0.  1.
       22    1    1    2    0    0  0.30953167723E-02 -0.26223626981E-02 -0.34764059037E-01  0.34999965326E-01  0.00000000000E+00 0.  1.
       22    1    1    2    0    0 -0.30953850759E-02  0.26223246268E-02  0.34764045799E-01  0.34999955365E-01  0.00000000000E+00 0. -1.
       22    1    1    2    0    0  0.68303548552E-07  0.38071320437E-07  0.13238501612E-07  0.79309886582E-07  0.00000000000E+00 0.  1.
</event>
<event>
 5   0  0.1496444E+06  0.9118800E+02  0.7546771E-02  0.1180000E+00
      -11   -1    0    0    0    0  0.00000000000E+00  0.00000000000E+00  0.34996269501E-01  0.35000000000E-01  0.51099999109E-03 0.  1.
       11   -1    0    0    0    0 -0.00000000000E+00 -0.00000000000E+00 -0.34996269501E-01  0.35000000000E-01  0.51099999109E-03 0.  1.
       22    1    1    2    0    0 -0.22204730960E-05  0.23152520448E-05  0.34888572750E-01  0.34885499619E-01  0.00000000000E+00 0.  1.
       22    1    1    2    0    0  0.21621332549E-09 -0.22544220187E-09 -0.35003045713E-01  0.34999982486E-01  0.00000000000E+00 0.  1.
       22    1    1    2    0    0  0.22202568827E-05 -0.23150266026E-05  0.11447296343E-03  0.11451789487E-03  0.00000000000E+00 0. -1.
</event>
<event>
 5   0  0.1496444E+06  0.9118800E+02  0.7546771E-02  0.1180000E+00
      -11   -1    0    0    0    0  0.00000000000E+00  0.00000000000E+00  0.34996269501E-01  0.35000000000E-01  0.51099999109E-03 0.  1.
       11   -1    0    0    0    0 -0.00000000000E+00 -0.00000000000E+00 -0.34996269501E-01  0.35000000000E-01  0.51099999109E-03 0.  1.
       22    1    1    2    0    0  0.74587277277E-05 -0.34095748791E-04  0.53035533776E-03  0.53150252774E-03  0.00000000000E+00 0.  1.
       22    1    1    2    0    0  0.19906127994E-03  0.78937569685E-04 -0.34998774924E-01  0.34999430034E-01  0.00000000000E+00 0.  1.
       22    1    1    2    0    0 -0.20652000767E-03 -0.44841820894E-04  0.34468419586E-01  0.34469067438E-01  0.00000000000E+00 0.  1.
</event>
<event>
 5   0  0.1496444E+06  0.9118800E+02  0.7546771E-02  0.1180000E+00
      -11   -1    0    0    0    0  0.00000000000E+00  0.00000000000E+00  0.34996269501E-01  0.35000000000E-01  0.51099999109E-03 0. -1.
       11   -1    0    0    0    0 -0.00000000000E+00 -0.00000000000E+00 -0.34996269501E-01  0.35000000000E-01  0.51099999109E-03 0. -1.
       22    1    1    2    0    0  0.46811297898E-04 -0.22066223706E-03 -0.11992000886E-02  0.12202311146E-02  0.00000000000E+00 0. -1.
       22    1    1    2    0    0 -0.46811297898E-04  0.22066223706E-03 -0.33789963980E-01  0.33790716904E-01  0.00000000000E+00 0. -1.
       22    1    1    2    0    0 -0.00000000000E+00 -0.00000000000E+00  0.34989164068E-01  0.34989051982E-01  0.00000000000E+00 0. -1.
</event>
<event>
 5   0  0.1496444E+06  0.9118800E+02  0.7546771E-02  0.1180000E+00
      -11   -1    0    0    0    0  0.00000000000E+00  0.00000000000E+00  0.34996269501E-01  0.35000000000E-01  0.51099999109E-03 0.  1.
       11   -1    0    0    0    0 -0.00000000000E+00 -0.00000000000E+00 -0.34996269501E-01  0.35000000000E-01  0.51099999109E-03 0. -1.
       22    1    1    2    0    0  0.57172077544E-02 -0.26228589385E-01  0.98816398768E-02  0.28605457037E-01  0.00000000000E+00 0.  1.
       22    1    1    2    0    0 -0.11507869553E-01  0.26642584440E-01 -0.15850491959E-01  0.33068058042E-01  0.00000000000E+00 0. -1.
       22    1    1    2    0    0  0.57906617985E-02 -0.41399505515E-03  0.59688520824E-02  0.83264849218E-02  0.00000000000E+00 0.  1.
</event>
<event>
 5   0  0.1496444E+06  0.9118800E+02  0.7546771E-02  0.1180000E+00
      -11   -1    0    0    0    0  0.00000000000E+00  0.00000000000E+00  0.34996269501E-01  0.35000000000E-01  0.51099999109E-03 0. -1.
       11   -1    0    0    0    0 -0.00000000000E+00 -0.00000000000E+00 -0.34996269501E-01  0.35000000000E-01  0.51099999109E-03 0.  1.
       22    1    1    2    0    0  0.16286808238E-02 -0.22524540667E-03 -0.32580255532E-01  0.32621716497E-01  0.00000000000E+00 0.  1.
       22    1    1    2    0    0 -0.57767909251E-03  0.66247114635E-04 -0.23555778888E-02  0.24262829604E-02  0.00000000000E+00 0. -1.
       22    1    1    2    0    0 -0.10510017313E-02  0.15899829203E-03  0.34935833421E-01  0.34952000542E-01  0.00000000000E+00 0. -1.
</event>
<event>
 5   0  0.1496444E+06  0.9118800E+02  0.7546771E-02  0.1180000E+00
      -11   -1    0    0    0    0  0.00000000000E+00  0.00000000000E+00  0.34996269501E-01  0.35000000000E-01  0.51099999109E-03 0.  1.
       11   -1    0    0    0    0 -0.00000000000E+00 -0.00000000000E+00 -0.34996269501E-01  0.35000000000E-01  0.51099999109E-03 0. -1.
       22    1    1    2    0    0  0.16279243682E-07 -0.13411182988E-07  0.12941383860E-05  0.12943102548E-05  0.00000000000E+00 0. -1.
       22    1    1    2    0    0  0.41400188149E-02 -0.13557101291E-01  0.31999660727E-01  0.34998757662E-01  0.00000000000E+00 0.  1.
       22    1    1    2    0    0 -0.41400350941E-02  0.13557114703E-01 -0.32000954866E-01  0.34999948028E-01  0.00000000000E+00 0. -1.
</event>
<event>
 5   0  0.1496444E+06  0.9118800E+02  0.7546771E-02  0.1180000E+00
      -11   -1    0    0    0    0  0.00000000000E+00  0.00000000000E+00  0.34996269501E-01  0.35000000000E-01  0.51099999109E-03 0. -1.
       11   -1    0    0    0    0 -0.00000000000E+00 -0.00000000000E+00 -0.34996269501E-01  0.35000000000E-01  0.51099999109E-03 0.  1.
       22    1    1    2    0    0  0.96419745852E-03  0.47413019700E-03 -0.34849288722E-01  0.34865848628E-01  0.00000000000E+00 0.  1.
       22    1    1    2    0    0  0.11742770524E-03  0.62376721226E-04 -0.98522903168E-04  0.16548982977E-03  0.00000000000E+00 0. -1.
       22    1    1    2    0    0 -0.10816251638E-02 -0.53650691823E-03  0.34947811625E-01  0.34968661542E-01  0.00000000000E+00 0. -1.
</event>
<event>
 5   0  0.1496444E+06  0.9118800E+02  0.7546771E-02  0.1180000E+00
      -11   -1    0    0    0    0  0.00000000000E+00  0.00000000000E+00  0.34996269501E-01  0.35000000000E-01  0.51099999109E-03 0.  1.
       11   -1    0    0    0    0 -0.00000000000E+00 -0.00000000000E+00 -0.34996269501E-01  0.35000000000E-01  0.51099999109E-03 0. -1.
       22    1    1    2    0    0  0.39745541457E-02 -0.51631203929E-02  0.24394421091E-01  0.25249607387E-01  0.00000000000E+00 0.  1.
       22    1    1    2    0    0 -0.29105394807E-02  0.22934689078E-02  0.97700189174E-02  0.10449139168E-01  0.00000000000E+00 0. -1.
       22    1    1    2    0    0 -0.10640146650E-02  0.28696514851E-02 -0.34164440008E-01  0.34301253445E-01  0.00000000000E+00 0. -1.
</event>
<event>
 5   0  0.1496444E+06  0.9118800E+02  0.7546771E-02  0.1180000E+00
      -11   -1    0    0    0    0  0.00000000000E+00  0.00000000000E+00  0.34996269501E-01  0.35000000000E-01  0.51099999109E-03 0.  1.
       11   -1    0    0    0    0 -0.00000000000E+00 -0.00000000000E+00 -0.34996269501E-01  0.35000000000E-01  0.51099999109E-03 0. -1.
       22    1    1    2    0    0 -0.15908505494E-03 -0.22419321799E-02 -0.34927676095E-01  0.34999916076E-01  0.00000000000E+00 0. -1.
       22    1    1    2    0    0  0.15839285371E-03  0.22424065680E-02  0.34925142719E-01  0.34997415182E-01  0.00000000000E+00 0.  1.
       22    1    1    2    0    0  0.69220123160E-06 -0.47438811003E-06  0.25333759740E-05  0.26687413606E-05  0.00000000000E+00 0.  1.
</event>
<event>
 5   0  0.1496444E+06  0.9118800E+02  0.7546771E-02  0.1180000E+00
      -11   -1    0    0    0    0  0.00000000000E+00  0.00000000000E+00  0.34996269501E-01  0.35000000000E-01  0.51099999109E-03 0. -1.
       11   -1    0    0    0    0 -0.00000000000E+00 -0.00000000000E+00 -0.34996269501E-01  0.35000000000E-01  0.51099999109E-03 0.  1.
       22    1    1    2    0    0  0.32778437573E-03  0.79007840027E-04  0.18034320346E-02  0.18346803370E-02  0.00000000000E+00 0. -1.
       22    1    1    2    0    0 -0.31669628401E-02 -0.16846469713E-01  0.28591515907E-01  0.33336286195E-01  0.00000000000E+00 0.  1.
       22    1    1    2    0    0  0.28391784644E-02  0.16767461873E-01 -0.30394947941E-01  0.34829033468E-01  0.00000000000E+00 0. -1.
</event>
<event>
 5   0  0.1496444E+06  0.9118800E+02  0.7546771E-02  0.1180000E+00
      -11   -1    0    0    0    0  0.00000000000E+00  0.00000000000E+00  0.34996269501E-01  0.35000000000E-01  0.51099999109E-03 0. -1.
       11   -1    0    0    0    0 -0.00000000000E+00 -0.00000000000E+00 -0.34996269501E-01  0.35000000000E-01  0.51099999109E-03 0.  1.
       22    1    1    2    0    0 -0.13975876656E-07 -0.37254737324E-08  0.36587391784E-07  0.39342617102E-07  0.00000000000E+00 0. -1.
       22    1    1    2    0    0  0.17178178267E-03 -0.85895824074E-03 -0.34989035199E-01  0.34999998605E-01  0.00000000000E+00 0.  1.
       22    1    1    2    0    0 -0.17176780679E-03  0.85896196621E-03  0.34988998611E-01  0.34999962052E-01  0.00000000000E+00 0. -1.
</event>
<event>
 5   0  0.1496444E+06  0.9118800E+02  0.7546771E-02  0.1180000E+00
      -11   -1    0    0    0    0  0.00000000000E+00  0.00000000000E+00  0.34996269501E-01  0.35000000000E-01  0.51099999109E-03 0.  1.
       11   -1    0    0    0    0 -0.00000000000E+00 -0.00000000000E+00 -0.34996269501E-01  0.35000000000E-01  0.51099999109E-03 0. -1.
       22    1    1    2    0    0 -0.93993020704E-02 -0.60101440103E-02  0.33174252393E-01  0.34999996175E-01  0.00000000000E+00 0.  1.
       22    1    1    2    0    0  0.69073570186E-08  0.45458435103E-08  0.18994381146E-08  0.84843467252E-08  0.00000000000E+00 0.  1.
       22    1    1    2    0    0  0.93992951630E-02  0.60101394644E-02 -0.33174254293E-01  0.34999995340E-01  0.00000000000E+00 0. -1.
</event>
<event>
 5   0  0.1496444E+06  0.9118800E+02  0.7546771E-02  0.1180000E+00
      -11   -1    0    0    0    0  0.00000000000E+00  0.00000000000E+00  0.34996269501E-01  0.35000000000E-01  0.51099999109E-03 0.  1.
       11   -1    0    0    0    0 -0.00000000000E+00 -0.00000000000E+00 -0.34996269501E-01  0.35000000000E-01  0.51099999109E-03 0.  1.
       22    1    1    2    0    0  0.37449117016E-03  0.26493793259E-03  0.33224362938E-01  0.33227529677E-01  0.00000000000E+00 0.  1.
       22    1    1    2    0    0  0.48322283740E-02 -0.29649285918E-02 -0.39337393293E-02  0.69004012726E-02  0.00000000000E+00 0. -1.
       22    1    1    2    0    0 -0.52067195442E-02  0.26999906592E-02 -0.29290623609E-01  0.29872069051E-01  0.00000000000E+00 0.  1.
</event>
<event>
 5   0  0.1496444E+06  0.9118800E+02  0.7546771E-02  0.1180000E+00
      -11   -1    0    0    0    0  0.00000000000E+00  0.00000000000E+00  0.34996269501E-01  0.35000000000E-01  0.51099999109E-03 0.  1.
       11   -1    0    0    0    0 -0.00000000000E+00 -0.00000000000E+00 -0.34996269501E-01  0.35000000000E-01  0.51099999109E-03 0. -1.
       22    1    1    2    0    0 -0.12411650067E-03  0.54453683858E-04 -0.30627531536E-01  0.30627831430E-01  0.00000000000E+00 0. -1.
       22    1    1    2    0    0  0.83645403073E-03 -0.63181949490E-03  0.34943829883E-01  0.34959549455E-01  0.00000000000E+00 0.  1.
       22    1    1    2    0    0 -0.71233753006E-03  0.57736581105E-03 -0.43162983470E-02  0.44126191153E-02  0.00000000000E+00 0. -1.
</event>
<event>
 5   0  0.1496444E+06  0.9118800E+02  0.7546771E-02  0.1180000E+00
      -11   -1    0    0    0    0  0.00000000000E+00  0.00000000000E+00  0.34996269501E-01  0.35000000000E-01  0.51099999109E-03 0.  1.
       11   -1    0    0    0    0 -0.00000000000E+00 -0.00000000000E+00 -0.34996269501E-01  0.35000000000E-01  0.51099999109E-03 0. -1.
       22    1    1    2    0    0 -0.45920131988E-06  0.99144105980E-06  0.66854712188E-05  0.67741675979E-05  0.00000000000E+00 0. -1.
       22    1    1    2    0    0  0.20746594874E-02  0.67602506767E-03  0.34925183937E-01  0.34993280711E-01  0.00000000000E+00 0.  1.
       22    1    1    2    0    0 -0.20742002860E-02 -0.67701650873E-03 -0.34931869408E-01  0.34999945122E-01  0.00000000000E+00 0. -1.
</event>
<event>
 5   0  0.1496444E+06  0.9118800E+02  0.7546771E-02  0.1180000E+00
      -11   -1    0    0    0    0  0.00000000000E+00  0.00000000000E+00  0.34996269501E-01  0.35000000000E-01  0.51099999109E-03 0.  1.
       11   -1    0    0    0    0 -0.00000000000E+00 -0.00000000000E+00 -0.34996269501E-01  0.35000000000E-01  0.51099999109E-03 0. -1.
       22    1    1    2    0    0 -0.70170474076E-03  0.16003731671E-02 -0.27651012506E-01  0.27706173977E-01  0.00000000000E+00 0. -1.
       22    1    1    2    0    0 -0.87381445606E-03 -0.81555645283E-03  0.34856234626E-01  0.34876722558E-01  0.00000000000E+00 0.  1.
       22    1    1    2    0    0  0.15755191968E-02 -0.78481671430E-03 -0.72052221203E-02  0.74171034654E-02  0.00000000000E+00 0. -1.
</event>
<event>
 5   0  0.1496444E+06  0.9118800E+02  0.7546771E-02  0.1180000E+00
      -11   -1    0    0    0    0  0.00000000000E+00  0.00000000000E+00  0.34996269501E-01  0.35000000000E-01  0.51099999109E-03 0.  1.
       11   -1    0    0    0    0 -0.00000000000E+00 -0.00000000000E+00 -0.34996269501E-01  0.35000000000E-01  0.51099999109E-03 0. -1.
       22    1    1    2    0    0  0.11827334510E-03 -0.27553349393E-03 -0.56453177611E-04  0.30511350626E-03  0.00000000000E+00 0. -1.
       22    1    1    2    0    0 -0.40902236960E-02  0.21468448168E-02  0.34583064160E-01  0.34890216382E-01  0.00000000000E+00 0.  1.
       22    1    1    2    0    0  0.39719503509E-02 -0.18713113229E-02 -0.34526610982E-01  0.34804670111E-01  0.00000000000E+00 0. -1.
</event>
<event>
 5   0  0.1496444E+06  0.9118800E+02  0.7546771E-02  0.1180000E+00
      -11   -1    0    0    0    0  0.00000000000E+00  0.00000000000E+00  0.34996269501E-01  0.35000000000E-01  0.51099999109E-03 0. -1.
       11   -1    0    0    0    0 -0.00000000000E+00 -0.00000000000E+00 -0.34996269501E-01  0.35000000000E-01  0.51099999109E-03 0.  1.
       22    1    1    2    0    0  0.30965718798E-02 -0.54349008827E-02  0.34413490420E-01  0.34977353071E-01  0.00000000000E+00 0. -1.
       22    1    1    2    0    0 -0.11203829262E-04  0.32764926810E-05  0.22129240209E-04  0.25019281897E-04  0.00000000000E+00 0. -1.
       22    1    1    2    0    0 -0.30853680505E-02  0.54316243901E-02 -0.34435619660E-01  0.34997627647E-01  0.00000000000E+00 0.  1.
</event>
<event>
 5   0  0.1496444E+06  0.9118800E+02  0.7546771E-02  0.1180000E+00
      -11   -1    0    0    0    0  0.00000000000E+00  0.00000000000E+00  0.34996269501E-01  0.35000000000E-01  0.51099999109E-03 0.  1.
       11   -1    0    0    0    0 -0.00000000000E+00 -0.00000000000E+00 -0.34996269501E-01  0.35000000000E-01  0.51099999109E-03 0. -1.
       22    1    1    2    0    0  0.38359445454E-02 -0.26462509788E-02  0.34666151978E-01  0.34977981757E-01  0.00000000000E+00 0.  1.
       22    1    1    2    0    0  0.81304249035E-04 -0.14754177253E-03 -0.11849817271E-02  0.11968962566E-02  0.00000000000E+00 0.  1.
       22    1    1    2    0    0 -0.39172487944E-02  0.27937927514E-02 -0.33481170251E-01  0.33825121987E-01  0.00000000000E+00 0. -1.
</event>
<event>
 5   0  0.1496444E+06  0.9118800E+02  0.7546771E-02  0.1180000E+00
      -11   -1    0    0    0    0  0.00000000000E+00  0.00000000000E+00  0.34996269501E-01  0.35000000000E-01  0.51099999109E-03 0. -1.
       11   -1    0    0    0    0 -0.00000000000E+00 -0.00000000000E+00 -0.34996269501E-01  0.35000000000E-01  0.51099999109E-03 0.  1.
       22    1    1    2    0    0  0.37285619511E-02 -0.61583451721E-02  0.34251158888E-01  0.34999561064E-01  0.00000000000E+00 0. -1.
       22    1    1    2    0    0 -0.37287000074E-02  0.61580219038E-02 -0.34251556627E-01  0.34999908127E-01  0.00000000000E+00 0.  1.
       22    1    1    2    0    0  0.13805622692E-06  0.32326835123E-06  0.39773879187E-06  0.53080890654E-06  0.00000000000E+00 0. -1.
</event>
<event>
 5   0  0.1496444E+06  0.9118800E+02  0.7546771E-02  0.1180000E+00
      -11   -1    0    0    0    0  0.00000000000E+00  0.00000000000E+00  0.34996269501E-01  0.35000000000E-01  0.51099999109E-03 0. -1.
       11   -1    0    0    0    0 -0.00000000000E+00 -0.00000000000E+00 -0.34996269501E-01  0.35000000000E-01  0.51099999109E-03 0.  1.
       22    1    1    2    0    0 -0.18873925236E-01  0.34900403171E-02 -0.28916049949E-01  0.34706532237E-01  0.00000000000E+00 0.  1.
       22    1    1    2    0    0  0.18479852073E-01 -0.26936041932E-02  0.28894938311E-01  0.34404620274E-01  0.00000000000E+00 0. -1.
       22    1    1    2    0    0  0.39407316362E-03 -0.79643612391E-03  0.21111638404E-04  0.88884748919E-03  0.00000000000E+00 0.  1.
</event>
<event>
 5   0  0.1496444E+06  0.9118800E+02  0.7546771E-02  0.1180000E+00
      -11   -1    0    0    0    0  0.00000000000E+00  0.00000000000E+00  0.34996269501E-01  0.35000000000E-01  0.51099999109E-03 0. -1.
       11   -1    0    0    0    0 -0.00000000000E+00 -0.00000000000E+00 -0.34996269501E-01  0.35000000000E-01  0.51099999109E-03 0.  1.
       22    1    1    2    0    0  0.34800641194E-07  0.54374729609E-06  0.19348886794E-04  0.19356556831E-04  0.00000000000E+00 0. -1.
       22    1    1    2    0    0 -0.42224502951E-02 -0.11422592021E-01  0.32793134339E-01  0.34981342953E-01  0.00000000000E+00 0. -1.
       22    1    1    2    0    0  0.42224154944E-02  0.11422048274E-01 -0.32812483226E-01  0.34999300491E-01  0.00000000000E+00 0.  1.
</event>
<event>
 5   0  0.1496444E+06  0.9118800E+02  0.7546771E-02  0.1180000E+00
      -11   -1    0    0    0    0  0.00000000000E+00  0.00000000000E+00  0.34996269501E-01  0.35000000000E-01  0.51099999109E-03 0. -1.
       11   -1    0    0    0    0 -0.00000000000E+00 -0.00000000000E+00 -0.34996269501E-01  0.35000000000E-01  0.51099999109E-03 0.  1.
       22    1    1    2    0    0 -0.38367444906E-06 -0.40760085746E-06 -0.26360011912E-06  0.61873222372E-06  0.00000000000E+00 0. -1.
       22    1    1    2    0    0 -0.20179286929E-02  0.25693460387E-02 -0.34846748147E-01  0.34999563308E-01  0.00000000000E+00 0.  1.
       22    1    1    2    0    0  0.20183123673E-02 -0.25689384379E-02  0.34847011748E-01  0.34999817960E-01  0.00000000000E+00 0. -1.
</event>
<event>
 5   0  0.1496444E+06  0.9118800E+02  0.7546771E-02  0.1180000E+00
      -11   -1    0    0    0    0  0.00000000000E+00  0.00000000000E+00  0.34996269501E-01  0.35000000000E-01  0.51099999109E-03 0.  1.
       11   -1    0    0    0    0 -0.00000000000E+00 -0.00000000000E+00 -0.34996269501E-01  0.35000000000E-01  0.51099999109E-03 0. -1.
       22    1    1    2    0    0 -0.12371081874E-01 -0.75633476698E-02  0.31855172248E-01  0.34999998481E-01  0.00000000000E+00 0.  1.
       22    1    1    2    0    0  0.18563894577E-08 -0.10749628344E-08  0.11364925680E-08  0.24276207017E-08  0.00000000000E+00 0. -1.
       22    1    1    2    0    0  0.12371080017E-01  0.75633487448E-02 -0.31855173385E-01  0.34999999091E-01  0.00000000000E+00 0. -1.
</event>
<event>
 5   0  0.1496444E+06  0.9118800E+02  0.7546771E-02  0.1180000E+00
      -11   -1    0    0    0    0  0.00000000000E+00  0.00000000000E+00  0.34996269501E-01  0.35000000000E-01  0.51099999109E-03 0. -1.
       11   -1    0    0    0    0 -0.00000000000E+00 -0.00000000000E+00 -0.34996269501E-01  0.35000000000E-01  0.51099999109E-03 0.  1.
       22    1    1    2    0    0  0.00000000000E+00 -0.00000000000E+00  0.34950484054E-01  0.34947802939E-01  0.00000000000E+00 0. -1.
       22    1    1    2    0    0 -0.23617865234E-03 -0.80834914753E-04 -0.34691836802E-01  0.34692734907E-01  0.00000000000E+00 0.  1.
       22    1    1    2    0    0  0.23617865234E-03  0.80834914753E-04 -0.25864725205E-03  0.35946215414E-03  0.00000000000E+00 0. -1.
</event>
<event>
 5   0  0.1496444E+06  0.9118800E+02  0.7546771E-02  0.1180000E+00
      -11   -1    0    0    0    0  0.00000000000E+00  0.00000000000E+00  0.34996269501E-01  0.35000000000E-01  0.51099999109E-03 0. -1.
       11   -1    0    0    0    0 -0.00000000000E+00 -0.00000000000E+00 -0.34996269501E-01  0.35000000000E-01  0.51099999109E-03 0.  1.
       22    1    1    2    0    0  0.39234471989E-02  0.17778956757E-02  0.34708706421E-01  0.34974971800E-01  0.00000000000E+00 0. -1.
       22    1    1    2    0    0 -0.38064393592E-03  0.28563232269E-03 -0.17976421873E-02  0.18595679776E-02  0.00000000000E+00 0.  1.
       22    1    1    2    0    0 -0.35428032629E-02 -0.20635279984E-02 -0.32911064234E-01  0.33165460223E-01  0.00000000000E+00 0.  1.
</event>
<event>
 5   0  0.1496444E+06  0.9118800E+02  0.7546771E-02  0.1180000E+00
      -11   -1    0    0    0    0  0.00000000000E+00  0.00000000000E+00  0.34996269501E-01  0.35000000000E-01  0.51099999109E-03 0.  1.
       11   -1    0    0    0    0 -0.00000000000E+00 -0.00000000000E+00 -0.34996269501E-01  0.35000000000E-01  0.51099999109E-03 0. -1.
       22    1    1    2    0    0 -0.39827212826E-02 -0.78912537667E-02  0.33856022141E-01  0.34990915822E-01  0.00000000000E+00 0.  1.
       22    1    1    2    0    0 -0.17646494061E-06  0.47628045669E-06  0.92711885172E-05  0.92850912473E-05  0.00000000000E+00 0.  1.
       22    1    1    2    0    0  0.39828977476E-02  0.78907774862E-02 -0.33865293330E-01  0.34999799087E-01  0.00000000000E+00 0. -1.
</event>
<event>
 5   0  0.1496444E+06  0.9118800E+02  0.7546771E-02  0.1180000E+00
      -11   -1    0    0    0    0  0.00000000000E+00  0.00000000000E+00  0.34996269501E-01  0.35000000000E-01  0.51099999109E-03 0.  1.
       11   -1    0    0    0    0 -0.00000000000E+00 -0.00000000000E+00 -0.34996269501E-01  0.35000000000E-01  0.51099999109E-03 0. -1.
       22    1    1    2    0    0 -0.15982568922E-04 -0.73479043807E-05  0.22919172036E-04  0.28891567194E-04  0.00000000000E+00 0. -1.
       22    1    1    2    0    0  0.17975408308E-01  0.24247602975E-02  0.29910089358E-01  0.34980111660E-01  0.00000000000E+00 0.  1.
       22    1    1    2    0    0 -0.17959425739E-01 -0.24174123931E-02 -0.29933008530E-01  0.34990996773E-01  0.00000000000E+00 0. -1.
</event>
<event>
 5   0  0.1496444E+06  0.9118800E+02  0.7546771E-02  0.1180000E+00
      -11   -1    0    0    0    0  0.00000000000E+00  0.00000000000E+00  0.34996269501E-01  0.35000000000E-01  0.51099999109E-03 0. -1.
       11   -1    0    0    0    0 -0.00000000000E+00 -0.00000000000E+00 -0.34996269501E-01  0.35000000000E-01  0.51099999109E-03 0.  1.
       22    1    1    2    0    0 -0.13435978430E-03  0.18029655495E-02 -0.34953143501E-01  0.34999871113E-01  0.00000000000E+00 0.  1.
       22    1    1    2    0    0  0.13424647045E-03 -0.18025388461E-02  0.34952935279E-01  0.34999640755E-01  0.00000000000E+00 0. -1.
       22    1    1    2    0    0  0.11331384252E-06 -0.42670340723E-06  0.20822262840E-06  0.48813162941E-06  0.00000000000E+00 0. -1.
</event>
<event>
 5   0  0.1496444E+06  0.9118800E+02  0.7546771E-02  0.1180000E+00
      -11   -1    0    0    0    0  0.00000000000E+00  0.00000000000E+00  0.34996269501E-01  0.35000000000E-01  0.51099999109E-03 0.  1.
       11   -1    0    0    0    0 -0.00000000000E+00 -0.00000000000E+00 -0.34996269501E-01  0.35000000000E-01  0.51099999109E-03 0. -1.
       22    1    1    2    0    0 -0.24028095870E-01  0.80982972949E-02  0.23985925426E-01  0.34903530319E-01  0.00000000000E+00 0.  1.
       22    1    1    2    0    0  0.77976534461E-05 -0.35206561214E-04 -0.64714393210E-03  0.64814780274E-03  0.00000000000E+00 0. -1.
       22    1    1    2    0    0  0.24020298216E-01 -0.80630907337E-02 -0.23338781494E-01  0.34448321878E-01  0.00000000000E+00 0. -1.
</event>
<event>
 5   0  0.1496444E+06  0.9118800E+02  0.7546771E-02  0.1180000E+00
      -11   -1    0    0    0    0  0.00000000000E+00  0.00000000000E+00  0.34996269501E-01  0.35000000000E-01  0.51099999109E-03 0. -1.
       11   -1    0    0    0    0 -0.00000000000E+00 -0.00000000000E+00 -0.34996269501E-01  0.35000000000E-01  0.51099999109E-03 0.  1.
       22    1    1    2    0    0 -0.74221336473E-02  0.50619085739E-02 -0.33661139052E-01  0.34839392483E-01  0.00000000000E+00 0.  1.
       22    1    1    2    0    0  0.16184481813E-02 -0.37409737167E-02  0.16521468725E-01  0.17016850111E-01  0.00000000000E+00 0. -1.
       22    1    1    2    0    0  0.58036854660E-02 -0.13209348571E-02  0.17139670327E-01  0.18143757406E-01  0.00000000000E+00 0. -1.
</event>
<event>
 5   0  0.1496444E+06  0.9118800E+02  0.7546771E-02  0.1180000E+00
      -11   -1    0    0    0    0  0.00000000000E+00  0.00000000000E+00  0.34996269501E-01  0.35000000000E-01  0.51099999109E-03 0.  1.
       11   -1    0    0    0    0 -0.00000000000E+00 -0.00000000000E+00 -0.34996269501E-01  0.35000000000E-01  0.51099999109E-03 0. -1.
       22    1    1    2    0    0 -0.32912518852E-03  0.14039294937E-01 -0.13200845323E-01  0.19273620391E-01  0.00000000000E+00 0. -1.
       22    1    1    2    0    0 -0.33286250837E-04 -0.18379185676E-01 -0.14047109763E-01  0.23132593170E-01  0.00000000000E+00 0.  1.
       22    1    1    2    0    0  0.36241143935E-03  0.43398907385E-02  0.27247955086E-01  0.27593786439E-01  0.00000000000E+00 0.  1.
</event>
<event>
 5   0  0.1496444E+06  0.9118800E+02  0.7546771E-02  0.1180000E+00
      -11   -1    0    0    0    0  0.00000000000E+00  0.00000000000E+00  0.34996269501E-01  0.35000000000E-01  0.51099999109E-03 0. -1.
       11   -1    0    0    0    0 -0.00000000000E+00 -0.00000000000E+00 -0.34996269501E-01  0.35000000000E-01  0.51099999109E-03 0. -1.
       22    1    1    2    0    0 -0.40459555711E-09  0.14565707591E-09 -0.35003198287E-01  0.34999925283E-01  0.00000000000E+00 0. -1.
       22    1    1    2    0    0  0.40370389219E-05 -0.14533607064E-05  0.34943798635E-01  0.34940520331E-01  0.00000000000E+00 0. -1.
       22    1    1    2    0    0 -0.40366343263E-05  0.14532150493E-05  0.59399651225E-04  0.59554385365E-04  0.00000000000E+00 0. -1.
</event>
<event>
 5   0  0.1496444E+06  0.9118800E+02  0.7546771E-02  0.1180000E+00
      -11   -1    0    0    0    0  0.00000000000E+00  0.00000000000E+00  0.34996269501E-01  0.35000000000E-01  0.51099999109E-03 0. -1.
       11   -1    0    0    0    0 -0.00000000000E+00 -0.00000000000E+00 -0.34996269501E-01  0.35000000000E-01  0.51099999109E-03 0.  1.
       22    1    1    2    0    0  0.52970493279E-03 -0.72945349343E-03 -0.34985895194E-01  0.34997507800E-01  0.00000000000E+00 0.  1.
       22    1    1    2    0    0 -0.90513849239E-04 -0.59581412208E-04  0.13043355322E-02  0.13088292028E-02  0.00000000000E+00 0.  1.
       22    1    1    2    0    0 -0.43919108355E-03  0.78903490564E-03  0.33681559662E-01  0.33693662997E-01  0.00000000000E+00 0. -1.
</event>
<event>
 5   0  0.1496444E+06  0.9118800E+02  0.7546771E-02  0.1180000E+00
      -11   -1    0    0    0    0  0.00000000000E+00  0.00000000000E+00  0.34996269501E-01  0.35000000000E-01  0.51099999109E-03 0.  1.
       11   -1    0    0    0    0 -0.00000000000E+00 -0.00000000000E+00 -0.34996269501E-01  0.35000000000E-01  0.51099999109E-03 0. -1.
       22    1    1    2    0    0  0.35404018935E-08 -0.21188982202E-09  0.27823157173E-07  0.28048305081E-07  0.00000000000E+00 0. -1.
       22    1    1    2    0    0 -0.15973923002E-01 -0.24114068597E-01 -0.19706473497E-01  0.34999994544E-01  0.00000000000E+00 0. -1.
       22    1    1    2    0    0  0.15973919461E-01  0.24114068808E-01  0.19706445674E-01  0.34999977408E-01  0.00000000000E+00 0.  1.
</event>
<event>
 5   0  0.1496444E+06  0.9118800E+02  0.7546771E-02  0.1180000E+00
      -11   -1    0    0    0    0  0.00000000000E+00  0.00000000000E+00  0.34996269501E-01  0.35000000000E-01  0.51099999109E-03 0.  1.
       11   -1    0    0    0    0 -0.00000000000E+00 -0.00000000000E+00 -0.34996269501E-01  0.35000000000E-01  0.51099999109E-03 0. -1.
       22    1    1    2    0    0 -0.20903636102E-08 -0.31520577861E-08  0.58037554461E-06  0.58038786847E-06  0.00000000000E+00 0.  1.
       22    1    1    2    0    0  0.12672152289E-01  0.24668583155E-02 -0.32531980694E-01  0.34999980021E-01  0.00000000000E+00 0. -1.
       22    1    1    2    0    0 -0.12672150199E-01 -0.24668551634E-02  0.32531400318E-01  0.34999439592E-01  0.00000000000E+00 0.  1.
</event>
<event>
 5   0  0.1496444E+06  0.9118800E+02  0.7546771E-02  0.1180000E+00
      -11   -1    0    0    0    0  0.00000000000E+00  0.00000000000E+00  0.34996269501E-01  0.35000000000E-01  0.51099999109E-03 0. -1.
       11   -1    0    0    0    0 -0.00000000000E+00 -0.00000000000E+00 -0.34996269501E-01  0.35000000000E-01  0.51099999109E-03 0.  1.
       22    1    1    2    0    0  0.56192524605E-03  0.70739931491E-03  0.34988320187E-01  0.34999981761E-01  0.00000000000E+00 0. -1.
       22    1    1    2    0    0 -0.58300071634E-08  0.72765593066E-08  0.17021383003E-07  0.19407853519E-07  0.00000000000E+00 0.  1.
       22    1    1    2    0    0 -0.56191941605E-03 -0.70740659147E-03 -0.34988337209E-01  0.34999998831E-01  0.00000000000E+00 0.  1.
</event>
<event>
 5   0  0.1496444E+06  0.9118800E+02  0.7546771E-02  0.1180000E+00
      -11   -1    0    0    0    0  0.00000000000E+00  0.00000000000E+00  0.34996269501E-01  0.35000000000E-01  0.51099999109E-03 0.  1.
       11   -1    0    0    0    0 -0.00000000000E+00 -0.00000000000E+00 -0.34996269501E-01  0.35000000000E-01  0.51099999109E-03 0. -1.
       22    1    1    2    0    0  0.18866022352E-04 -0.12466406206E-04 -0.10062208400E-02  0.10064748963E-02  0.00000000000E+00 0. -1.
       22    1    1    2    0    0  0.10836544033E-01 -0.15018588914E-02 -0.32209188943E-01  0.34016438953E-01  0.00000000000E+00 0. -1.
       22    1    1    2    0    0 -0.10855410055E-01  0.15143252976E-02  0.33215409783E-01  0.34977086151E-01  0.00000000000E+00 0.  1.
</event>
<event>
 5   0  0.1496444E+06  0.9118800E+02  0.7546771E-02  0.1180000E+00
      -11   -1    0    0    0    0  0.00000000000E+00  0.00000000000E+00  0.34996269501E-01  0.35000000000E-01  0.51099999109E-03 0. -1.
       11   -1    0    0    0    0 -0.00000000000E+00 -0.00000000000E+00 -0.34996269501E-01  0.35000000000E-01  0.51099999109E-03 0.  1.
       22    1    1    2    0    0 -0.20407094246E-02  0.41604045366E-03  0.87693242100E-02  0.90132475676E-02  0.00000000000E+00 0.  1.
       22    1    1    2    0    0 -0.14715131221E-02 -0.92886383455E-02 -0.33333201994E-01  0.34634469944E-01  0.00000000000E+00 0.  1.
       22    1    1    2    0    0  0.35122225467E-02  0.88725978919E-02  0.24563877784E-01  0.26352282488E-01  0.00000000000E+00 0. -1.
</event>
<event>
 5   0  0.1496444E+06  0.9118800E+02  0.7546771E-02  0.1180000E+00
      -11   -1    0    0    0    0  0.00000000000E+00  0.00000000000E+00  0.34996269501E-01  0.35000000000E-01  0.51099999109E-03 0.  1.
       11   -1    0    0    0    0 -0.00000000000E+00 -0.00000000000E+00 -0.34996269501E-01  0.35000000000E-01  0.51099999109E-03 0. -1.
       22    1    1    2    0    0 -0.11462015702E-01 -0.31250015105E-02  0.32811204170E-01  0.34895824356E-01  0.00000000000E+00 0.  1.
       22    1    1    2    0    0  0.49416087656E-02 -0.35271943904E-03 -0.10712467552E-01  0.11802578924E-01  0.00000000000E+00 0. -1.
       22    1    1    2    0    0  0.65204069367E-02  0.34777209496E-02 -0.22098736618E-01  0.23301596720E-01  0.00000000000E+00 0. -1.
</event>
<event>
 5   0  0.1496444E+06  0.9118800E+02  0.7546771E-02  0.1180000E+00
      -11   -1    0    0    0    0  0.00000000000E+00  0.00000000000E+00  0.34996269501E-01  0.35000000000E-01  0.51099999109E-03 0.  1.
       11   -1    0    0    0    0 -0.00000000000E+00 -0.00000000000E+00 -0.34996269501E-01  0.35000000000E-01  0.51099999109E-03 0. -1.
       22    1    1    2    0    0  0.17196231383E-06 -0.65140895082E-05  0.72897887070E-04  0.73188556977E-04  0.00000000000E+00 0.  1.
       22    1    1    2    0    0  0.35836593017E-02  0.15552385844E-01 -0.31146269115E-01  0.34997277026E-01  0.00000000000E+00 0. -1.
       22    1    1    2    0    0 -0.35838312640E-02 -0.15545871754E-01  0.31073371228E-01  0.34929534417E-01  0.00000000000E+00 0.  1.
</event>
<event>
 5   0  0.1496444E+06  0.9118800E+02  0.7546771E-02  0.1180000E+00
      -11   -1    0    0    0    0  0.00000000000E+00  0.00000000000E+00  0.34996269501E-01  0.35000000000E-01  0.51099999109E-03 0. -1.
       11   -1    0    0    0    0 -0.00000000000E+00 -0.00000000000E+00 -0.34996269501E-01  0.35000000000E-01  0.51099999109E-03 0.  1.
       22    1    1    2    0    0 -0.31818364463E-03 -0.24995713612E-03 -0.21085936133E-04  0.40517159119E-03  0.00000000000E+00 0.  1.
       22    1    1    2    0    0 -0.28767058886E-02  0.21743208689E-03 -0.34653486765E-01  0.34773364209E-01  0.00000000000E+00 0.  1.
       22    1    1    2    0    0  0.31948895332E-02  0.32525049234E-04  0.34674572701E-01  0.34821464199E-01  0.00000000000E+00 0. -1.
</event>
<event>
 5   0  0.1496444E+06  0.9118800E+02  0.7546771E-02  0.1180000E+00
      -11   -1    0    0    0    0  0.00000000000E+00  0.00000000000E+00  0.34996269501E-01  0.35000000000E-01  0.51099999109E-03 0. -1.
       11   -1    0    0    0    0 -0.00000000000E+00 -0.00000000000E+00 -0.34996269501E-01  0.35000000000E-01  0.51099999109E-03 0.  1.
       22    1    1    2    0    0 -0.62069074671E-03  0.15875144075E-03 -0.34993723735E-01  0.34999587996E-01  0.00000000000E+00 0.  1.
       22    1    1    2    0    0  0.62069074671E-03 -0.15875144075E-03  0.29369851789E-01  0.29376838719E-01  0.00000000000E+00 0.  1.
       22    1    1    2    0    0  0.00000000000E+00 -0.00000000000E+00  0.56238719456E-02  0.56235732849E-02  0.00000000000E+00 0. -1.
</event>
<event>
 5   0  0.1496444E+06  0.9118800E+02  0.7546771E-02  0.1180000E+00
      -11   -1    0    0    0    0  0.00000000000E+00  0.00000000000E+00  0.34996269501E-01  0.35000000000E-01  0.51099999109E-03 0. -1.
       11   -1    0    0    0    0 -0.00000000000E+00 -0.00000000000E+00 -0.34996269501E-01  0.35000000000E-01  0.51099999109E-03 0.  1.
       22    1    1    2    0    0  0.10962854003E-01  0.76444573708E-02  0.32347767664E-01  0.34999999561E-01  0.00000000000E+00 0. -1.
       22    1    1    2    0    0 -0.10962853404E-01 -0.76444568622E-02 -0.32347768009E-01  0.34999999581E-01  0.00000000000E+00 0.  1.
       22    1    1    2    0    0 -0.59985696335E-09 -0.50854428131E-09  0.34481622887E-09  0.85868730876E-09  0.00000000000E+00 0. -1.
</event>
<event>
 5   0  0.1496444E+06  0.9118800E+02  0.7546771E-02  0.1180000E+00
      -11   -1    0    0    0    0  0.00000000000E+00  0.00000000000E+00  0.34996269501E-01  0.35000000000E-01  0.51099999109E-03 0. -1.
       11   -1    0    0    0    0 -0.00000000000E+00 -0.00000000000E+00 -0.34996269501E-01  0.35000000000E-01  0.51099999109E-03 0.  1.
       22    1    1    2    0    0  0.19530989313E-04 -0.25035741407E-04  0.31327687908E-04  0.44605738655E-04  0.00000000000E+00 0.  1.
       22    1    1    2    0    0 -0.10319202912E-02  0.54975700157E-03 -0.34974291293E-01  0.34993830080E-01  0.00000000000E+00 0.  1.
       22    1    1    2    0    0  0.10123893019E-02 -0.52472126016E-03  0.34942963605E-01  0.34961564181E-01  0.00000000000E+00 0. -1.
</event>
<event>
 5   0  0.1496444E+06  0.9118800E+02  0.7546771E-02  0.1180000E+00
      -11   -1    0    0    0    0  0.00000000000E+00  0.00000000000E+00  0.34996269501E-01  0.35000000000E-01  0.51099999109E-03 0. -1.
       11   -1    0    0    0    0 -0.00000000000E+00 -0.00000000000E+00 -0.34996269501E-01  0.35000000000E-01  0.51099999109E-03 0.  1.
       22    1    1    2    0    0 -0.92638006118E-03 -0.73620927372E-02  0.31998008815E-01  0.32847087505E-01  0.00000000000E+00 0. -1.
       22    1    1    2    0    0  0.63608008916E-03  0.70250833852E-02 -0.34193155800E-01  0.34913153654E-01  0.00000000000E+00 0.  1.
       22    1    1    2    0    0  0.29029997202E-03  0.33700935198E-03  0.21951469857E-02  0.22397588410E-02  0.00000000000E+00 0.  1.
</event>
<event>
 5   0  0.1496444E+06  0.9118800E+02  0.7546771E-02  0.1180000E+00
      -11   -1    0    0    0    0  0.00000000000E+00  0.00000000000E+00  0.34996269501E-01  0.35000000000E-01  0.51099999109E-03 0.  1.
       11   -1    0    0    0    0 -0.00000000000E+00 -0.00000000000E+00 -0.34996269501E-01  0.35000000000E-01  0.51099999109E-03 0. -1.
       22    1    1    2    0    0 -0.11869628129E-02  0.12071342214E-03  0.34177444693E-01  0.34198262795E-01  0.00000000000E+00 0.  1.
       22    1    1    2    0    0  0.26308026669E-02 -0.90653933653E-03 -0.34038490440E-01  0.34152038997E-01  0.00000000000E+00 0. -1.
       22    1    1    2    0    0 -0.14438398540E-02  0.78582591439E-03 -0.13895425294E-03  0.16496982076E-02  0.00000000000E+00 0.  1.
</event>
<event>
 5   0  0.1496444E+06  0.9118800E+02  0.7546771E-02  0.1180000E+00
      -11   -1    0    0    0    0  0.00000000000E+00  0.00000000000E+00  0.34996269501E-01  0.35000000000E-01  0.51099999109E-03 0.  1.
       11   -1    0    0    0    0 -0.00000000000E+00 -0.00000000000E+00 -0.34996269501E-01  0.35000000000E-01  0.51099999109E-03 0. -1.
       22    1    1    2    0    0  0.53625944648E-03  0.27084560652E-02 -0.34890922045E-01  0.34999996423E-01  0.00000000000E+00 0. -1.
       22    1    1    2    0    0 -0.53626720360E-03 -0.27084621355E-02  0.34890917917E-01  0.34999992897E-01  0.00000000000E+00 0.  1.
       22    1    1    2    0    0  0.77571273074E-08  0.60702986852E-08  0.41280455835E-08  0.10679995811E-07  0.00000000000E+00 0.  1.
</event>
<event>
 5   0  0.1496444E+06  0.9118800E+02  0.7546771E-02  0.1180000E+00
      -11   -1    0    0    0    0  0.00000000000E+00  0.00000000000E+00  0.34996269501E-01  0.35000000000E-01  0.51099999109E-03 0.  1.
       11   -1    0    0    0    0 -0.00000000000E+00 -0.00000000000E+00 -0.34996269501E-01  0.35000000000E-01  0.51099999109E-03 0.  1.
       22    1    1    2    0    0  0.52416797013E-03 -0.96898872376E-03  0.10251015286E-01  0.10310043918E-01  0.00000000000E+00 0. -1.
       22    1    1    2    0    0 -0.00000000000E+00 -0.00000000000E+00  0.24711375659E-01  0.24710212346E-01  0.00000000000E+00 0.  1.
       22    1    1    2    0    0 -0.52416797013E-03  0.96898872376E-03 -0.34962390945E-01  0.34979743736E-01  0.00000000000E+00 0.  1.
</event>
<event>
 5   0  0.1496444E+06  0.9118800E+02  0.7546771E-02  0.1180000E+00
      -11   -1    0    0    0    0  0.00000000000E+00  0.00000000000E+00  0.34996269501E-01  0.35000000000E-01  0.51099999109E-03 0. -1.
       11   -1    0    0    0    0 -0.00000000000E+00 -0.00000000000E+00 -0.34996269501E-01  0.35000000000E-01  0.51099999109E-03 0.  1.
       22    1    1    2    0    0 -0.20940698525E-02 -0.33677353817E-02 -0.34774368512E-01  0.34999763936E-01  0.00000000000E+00 0.  1.
       22    1    1    2    0    0  0.20948989942E-02  0.33685238855E-02  0.34772582738E-01  0.34998115167E-01  0.00000000000E+00 0. -1.
       22    1    1    2    0    0 -0.82914175930E-06 -0.78850377706E-06  0.17857739118E-05  0.21208966801E-05  0.00000000000E+00 0. -1.
</event>
<event>
 5   0  0.1496444E+06  0.9118800E+02  0.7546771E-02  0.1180000E+00
      -11   -1    0    0    0    0  0.00000000000E+00  0.00000000000E+00  0.34996269501E-01  0.35000000000E-01  0.51099999109E-03 0. -1.
       11   -1    0    0    0    0 -0.00000000000E+00 -0.00000000000E+00 -0.34996269501E-01  0.35000000000E-01  0.51099999109E-03 0.  1.
       22    1    1    2    0    0 -0.33357088563E-03 -0.99365212266E-03 -0.34416327811E-01  0.34432284764E-01  0.00000000000E+00 0.  1.
       22    1    1    2    0    0 -0.43767156529E-03  0.14485618799E-02  0.34617029597E-01  0.34650088399E-01  0.00000000000E+00 0. -1.
       22    1    1    2    0    0  0.77124245092E-03 -0.45490975723E-03 -0.20070178679E-03  0.91762683731E-03  0.00000000000E+00 0. -1.
</event>
<event>
 5   0  0.1496444E+06  0.9118800E+02  0.7546771E-02  0.1180000E+00
      -11   -1    0    0    0    0  0.00000000000E+00  0.00000000000E+00  0.34996269501E-01  0.35000000000E-01  0.51099999109E-03 0.  1.
       11   -1    0    0    0    0 -0.00000000000E+00 -0.00000000000E+00 -0.34996269501E-01  0.35000000000E-01  0.51099999109E-03 0.  1.
       22    1    1    2    0    0 -0.14400246905E-06 -0.12288098327E-05  0.34982302724E-01  0.34981183124E-01  0.00000000000E+00 0.  1.
       22    1    1    2    0    0  0.14399248699E-06  0.12287246533E-05  0.18796251512E-04  0.18836920369E-04  0.00000000000E+00 0.  1.
       22    1    1    2    0    0  0.99820586206E-11  0.85179454666E-10 -0.35001098976E-01  0.34999979955E-01  0.00000000000E+00 0.  1.
</event>
<event>
 5   0  0.1496444E+06  0.9118800E+02  0.7546771E-02  0.1180000E+00
      -11   -1    0    0    0    0  0.00000000000E+00  0.00000000000E+00  0.34996269501E-01  0.35000000000E-01  0.51099999109E-03 0. -1.
       11   -1    0    0    0    0 -0.00000000000E+00 -0.00000000000E+00 -0.34996269501E-01  0.35000000000E-01  0.51099999109E-03 0.  1.
       22    1    1    2    0    0 -0.15165702780E-02 -0.23024160025E-02  0.32337254534E-02  0.42494805759E-02  0.00000000000E+00 0.  1.
       22    1    1    2    0    0  0.46656466303E-02 -0.21848925334E-02 -0.34056531258E-01  0.34444002891E-01  0.00000000000E+00 0.  1.
       22    1    1    2    0    0 -0.31490763523E-02  0.44873085358E-02  0.30822805804E-01  0.31306516533E-01  0.00000000000E+00 0. -1.
</event>
<event>
 5   0  0.1496444E+06  0.9118800E+02  0.7546771E-02  0.1180000E+00
      -11   -1    0    0    0    0  0.00000000000E+00  0.00000000000E+00  0.34996269501E-01  0.35000000000E-01  0.51099999109E-03 0. -1.
       11   -1    0    0    0    0 -0.00000000000E+00 -0.00000000000E+00 -0.34996269501E-01  0.35000000000E-01  0.51099999109E-03 0.  1.
       22    1    1    2    0    0  0.88208767376E-02 -0.15229662004E-01 -0.26711475636E-01  0.31988332277E-01  0.00000000000E+00 0.  1.
       22    1    1    2    0    0 -0.10003914715E-04  0.11258638067E-03 -0.32839214382E-02  0.32858660629E-02  0.00000000000E+00 0. -1.
       22    1    1    2    0    0 -0.88108728229E-02  0.15117075623E-01  0.29995397075E-01  0.34725801660E-01  0.00000000000E+00 0. -1.
</event>
<event>
 5   0  0.1496444E+06  0.9118800E+02  0.7546771E-02  0.1180000E+00
      -11   -1    0    0    0    0  0.00000000000E+00  0.00000000000E+00  0.34996269501E-01  0.35000000000E-01  0.51099999109E-03 0.  1.
       11   -1    0    0    0    0 -0.00000000000E+00 -0.00000000000E+00 -0.34996269501E-01  0.35000000000E-01  0.51099999109E-03 0. -1.
       22    1    1    2    0    0  0.71542805707E-02 -0.88753039640E-02 -0.33033686245E-01  0.34945374198E-01  0.00000000000E+00 0. -1.
       22    1    1    2    0    0 -0.18358806985E-03  0.21951829289E-03  0.32906294212E-02  0.33030493257E-02  0.00000000000E+00 0. -1.
       22    1    1    2    0    0 -0.69706925008E-02  0.86557856711E-02  0.29743056823E-01  0.31751576476E-01  0.00000000000E+00 0.  1.
</event>
<event>
 5   0  0.1496444E+06  0.9118800E+02  0.7546771E-02  0.1180000E+00
      -11   -1    0    0    0    0  0.00000000000E+00  0.00000000000E+00  0.34996269501E-01  0.35000000000E-01  0.51099999109E-03 0.  1.
       11   -1    0    0    0    0 -0.00000000000E+00 -0.00000000000E+00 -0.34996269501E-01  0.35000000000E-01  0.51099999109E-03 0. -1.
       22    1    1    2    0    0  0.53459159074E-02 -0.55344433034E-02  0.34143571699E-01  0.34999890970E-01  0.00000000000E+00 0.  1.
       22    1    1    2    0    0  0.61786160969E-08  0.29854229518E-07  0.11019642670E-06  0.11433592075E-06  0.00000000000E+00 0. -1.
       22    1    1    2    0    0 -0.53459220860E-02  0.55344134491E-02 -0.34143681896E-01  0.34999994694E-01  0.00000000000E+00 0. -1.
</event>
<event>
 5   0  0.1496444E+06  0.9118800E+02  0.7546771E-02  0.1180000E+00
      -11   -1    0    0    0    0  0.00000000000E+00  0.00000000000E+00  0.34996269501E-01  0.35000000000E-01  0.51099999109E-03 0.  1.
       11   -1    0    0    0    0 -0.00000000000E+00 -0.00000000000E+00 -0.34996269501E-01  0.35000000000E-01  0.51099999109E-03 0. -1.
       22    1    1    2    0    0  0.59125863318E-03  0.36530176253E-03  0.27949732267E-02  0.28800881040E-02  0.00000000000E+00 0.  1.
       22    1    1    2    0    0 -0.56666046824E-02 -0.35284162705E-02 -0.34355384916E-01  0.34997894261E-01  0.00000000000E+00 0. -1.
       22    1    1    2    0    0  0.50753460492E-02  0.31631145079E-02  0.31560411689E-01  0.32122017635E-01  0.00000000000E+00 0.  1.
</event>
<event>
 5   0  0.1496444E+06  0.9118800E+02  0.7546771E-02  0.1180000E+00
      -11   -1    0    0    0    0  0.00000000000E+00  0.00000000000E+00  0.34996269501E-01  0.35000000000E-01  0.51099999109E-03 0. -1.
       11   -1    0    0    0    0 -0.00000000000E+00 -0.00000000000E+00 -0.34996269501E-01  0.35000000000E-01  0.51099999109E-03 0.  1.
       22    1    1    2    0    0 -0.31164231937E-03 -0.85947631565E-03  0.34879228663E-01  0.34891208242E-01  0.00000000000E+00 0. -1.
       22    1    1    2    0    0  0.31910181196E-03  0.85682472857E-03 -0.34987893915E-01  0.34999838502E-01  0.00000000000E+00 0.  1.
       22    1    1    2    0    0 -0.74594925878E-05  0.26515870882E-05  0.10866525215E-03  0.10895325589E-03  0.00000000000E+00 0. -1.
</event>
<event>
 5   0  0.1496444E+06  0.9118800E+02  0.7546771E-02  0.1180000E+00
      -11   -1    0    0    0    0  0.00000000000E+00  0.00000000000E+00  0.34996269501E-01  0.35000000000E-01  0.51099999109E-03 0.  1.
       11   -1    0    0    0    0 -0.00000000000E+00 -0.00000000000E+00 -0.34996269501E-01  0.35000000000E-01  0.51099999109E-03 0. -1.
       22    1    1    2    0    0 -0.34606582902E-04  0.30558832331E-02  0.34855791396E-01  0.34989510054E-01  0.00000000000E+00 0.  1.
       22    1    1    2    0    0  0.70241388304E-04 -0.30212684564E-02 -0.29485364536E-01  0.29639833312E-01  0.00000000000E+00 0. -1.
       22    1    1    2    0    0 -0.35634805402E-04 -0.34614776701E-04 -0.53704268598E-02  0.53706566339E-02  0.00000000000E+00 0.  1.
</event>
<event>
 5   0  0.1496444E+06  0.9118800E+02  0.7546771E-02  0.1180000E+00
      -11   -1    0    0    0    0  0.00000000000E+00  0.00000000000E+00  0.34996269501E-01  0.35000000000E-01  0.51099999109E-03 0. -1.
       11   -1    0    0    0    0 -0.00000000000E+00 -0.00000000000E+00 -0.34996269501E-01  0.35000000000E-01  0.51099999109E-03 0. -1.
       22    1    1    2    0    0 -0.43965744077E-03  0.28030537520E-03  0.34996087081E-01  0.34999971154E-01  0.00000000000E+00 0. -1.
       22    1    1    2    0    0  0.12904794403E-07  0.18405536972E-07  0.24477246953E-07  0.33233012627E-07  0.00000000000E+00 0. -1.
       22    1    1    2    0    0  0.43964453598E-03 -0.28032378074E-03 -0.34996111558E-01  0.34999995613E-01  0.00000000000E+00 0. -1.
</event>
<event>
 5   0  0.1496444E+06  0.9118800E+02  0.7546771E-02  0.1180000E+00
      -11   -1    0    0    0    0  0.00000000000E+00  0.00000000000E+00  0.34996269501E-01  0.35000000000E-01  0.51099999109E-03 0.  1.
       11   -1    0    0    0    0 -0.00000000000E+00 -0.00000000000E+00 -0.34996269501E-01  0.35000000000E-01  0.51099999109E-03 0. -1.
       22    1    1    2    0    0 -0.63263082511E-04 -0.53844455725E-04  0.40830284774E-02  0.40838735277E-02  0.00000000000E+00 0. -1.
       22    1    1    2    0    0 -0.94477926117E-02 -0.17244291620E-01 -0.28432937407E-01  0.34569615391E-01  0.00000000000E+00 0. -1.
       22    1    1    2    0    0  0.95110556942E-02  0.17298136076E-01  0.24349908929E-01  0.31346511081E-01  0.00000000000E+00 0.  1.
</event>
<event>
 5   0  0.1496444E+06  0.9118800E+02  0.7546771E-02  0.1180000E+00
      -11   -1    0    0    0    0  0.00000000000E+00  0.00000000000E+00  0.34996269501E-01  0.35000000000E-01  0.51099999109E-03 0.  1.
       11   -1    0    0    0    0 -0.00000000000E+00 -0.00000000000E+00 -0.34996269501E-01  0.35000000000E-01  0.51099999109E-03 0. -1.
       22    1    1    2    0    0  0.46526563328E-03 -0.31525460992E-03  0.16163002072E-01  0.16172770126E-01  0.00000000000E+00 0.  1.
       22    1    1    2    0    0 -0.22327435408E-02 -0.63753922749E-02 -0.34015849364E-01  0.34680091959E-01  0.00000000000E+00 0. -1.
       22    1    1    2    0    0  0.17674779075E-02  0.66906468848E-02  0.17852847292E-01  0.19147137915E-01  0.00000000000E+00 0.  1.
</event>
<event>
 5   0  0.1496444E+06  0.9118800E+02  0.7546771E-02  0.1180000E+00
      -11   -1    0    0    0    0  0.00000000000E+00  0.00000000000E+00  0.34996269501E-01  0.35000000000E-01  0.51099999109E-03 0. -1.
       11   -1    0    0    0    0 -0.00000000000E+00 -0.00000000000E+00 -0.34996269501E-01  0.35000000000E-01  0.51099999109E-03 0.  1.
       22    1    1    2    0    0 -0.23797128262E-02 -0.50347504561E-03 -0.31839048729E-01  0.31931826509E-01  0.00000000000E+00 0.  1.
       22    1    1    2    0    0  0.45390885829E-03 -0.14259920688E-02  0.34337658689E-01  0.34370252994E-01  0.00000000000E+00 0. -1.
       22    1    1    2    0    0  0.19258039679E-02  0.19294671144E-02 -0.24986099602E-02  0.36979204969E-02  0.00000000000E+00 0.  1.
</event>
<event>
 5   0  0.1496444E+06  0.9118800E+02  0.7546771E-02  0.1180000E+00
      -11   -1    0    0    0    0  0.00000000000E+00  0.00000000000E+00  0.34996269501E-01  0.35000000000E-01  0.51099999109E-03 0. -1.
       11   -1    0    0    0    0 -0.00000000000E+00 -0.00000000000E+00 -0.34996269501E-01  0.35000000000E-01  0.51099999109E-03 0.  1.
       22    1    1    2    0    0 -0.26283769202E-07  0.11801351695E-06  0.35431480578E-06  0.37437549106E-06  0.00000000000E+00 0. -1.
       22    1    1    2    0    0  0.11997693501E-01  0.31090103513E-03 -0.32877918362E-01  0.34999983209E-01  0.00000000000E+00 0.  1.
       22    1    1    2    0    0 -0.11997667217E-01 -0.31101904864E-03  0.32877564047E-01  0.34999642415E-01  0.00000000000E+00 0. -1.
</event>
<event>
 5   0  0.1496444E+06  0.9118800E+02  0.7546771E-02  0.1180000E+00
      -11   -1    0    0    0    0  0.00000000000E+00  0.00000000000E+00  0.34996269501E-01  0.35000000000E-01  0.51099999109E-03 0.  1.
       11   -1    0    0    0    0 -0.00000000000E+00 -0.00000000000E+00 -0.34996269501E-01  0.35000000000E-01  0.51099999109E-03 0. -1.
       22    1    1    2    0    0  0.65902522297E-02  0.36958278355E-02 -0.34174689387E-01  0.34999999465E-01  0.00000000000E+00 0. -1.
       22    1    1    2    0    0 -0.65902485457E-02 -0.36958308446E-02  0.34174680944E-01  0.34999990845E-01  0.00000000000E+00 0.  1.
       22    1    1    2    0    0 -0.36839604767E-08  0.30091079079E-08  0.84425735901E-08  0.96903737812E-08  0.00000000000E+00 0. -1.
</event>
<event>
 5   0  0.1496444E+06  0.9118800E+02  0.7546771E-02  0.1180000E+00
      -11   -1    0    0    0    0  0.00000000000E+00  0.00000000000E+00  0.34996269501E-01  0.35000000000E-01  0.51099999109E-03 0.  1.
       11   -1    0    0    0    0 -0.00000000000E+00 -0.00000000000E+00 -0.34996269501E-01  0.35000000000E-01  0.51099999109E-03 0. -1.
       22    1    1    2    0    0 -0.19595397293E-04  0.18113689196E-04  0.16669595375E-04  0.31463641578E-04  0.00000000000E+00 0. -1.
       22    1    1    2    0    0 -0.53746309362E-02 -0.12767034019E-02  0.34535837816E-01  0.34974858441E-01  0.00000000000E+00 0.  1.
       22    1    1    2    0    0  0.53942263335E-02  0.12585897127E-02 -0.34552507411E-01  0.34993677918E-01  0.00000000000E+00 0. -1.
</event>
<event>
 5   0  0.1496444E+06  0.9118800E+02  0.7546771E-02  0.1180000E+00
      -11   -1    0    0    0    0  0.00000000000E+00  0.00000000000E+00  0.34996269501E-01  0.35000000000E-01  0.51099999109E-03 0.  1.
       11   -1    0    0    0    0 -0.00000000000E+00 -0.00000000000E+00 -0.34996269501E-01  0.35000000000E-01  0.51099999109E-03 0. -1.
       22    1    1    2    0    0 -0.12304457704E-02  0.17843984583E-02 -0.34930370312E-01  0.34997554840E-01  0.00000000000E+00 0. -1.
       22    1    1    2    0    0  0.10783929669E-02 -0.17222397362E-02  0.33692992488E-01  0.33754211351E-01  0.00000000000E+00 0.  1.
       22    1    1    2    0    0  0.15205280355E-03 -0.62158722095E-04  0.12373778239E-02  0.12482338086E-02  0.00000000000E+00 0.  1.
</event>
<event>
 5   0  0.1496444E+06  0.9118800E+02  0.7546771E-02  0.1180000E+00
      -11   -1    0    0    0    0  0.00000000000E+00  0.00000000000E+00  0.34996269501E-01  0.35000000000E-01  0.51099999109E-03 0. -1.
       11   -1    0    0    0    0 -0.00000000000E+00 -0.00000000000E+00 -0.34996269501E-01  0.35000000000E-01  0.51099999109E-03 0.  1.
       22    1    1    2    0    0  0.11102677843E-06  0.13464223320E-05 -0.21153487289E-06  0.13674527576E-05  0.00000000000E+00 0.  1.
       22    1    1    2    0    0 -0.75315603725E-03  0.27169233907E-02  0.34885627800E-01  0.34999370619E-01  0.00000000000E+00 0. -1.
       22    1    1    2    0    0  0.75304501047E-03 -0.27182698130E-02 -0.34885416265E-01  0.34999261928E-01  0.00000000000E+00 0.  1.
</event>
<event>
 5   0  0.1496444E+06  0.9118800E+02  0.7546771E-02  0.1180000E+00
      -11   -1    0    0    0    0  0.00000000000E+00  0.00000000000E+00  0.34996269501E-01  0.35000000000E-01  0.51099999109E-03 0. -1.
       11   -1    0    0    0    0 -0.00000000000E+00 -0.00000000000E+00 -0.34996269501E-01  0.35000000000E-01  0.51099999109E-03 0.  1.
       22    1    1    2    0    0 -0.26937605241E-02  0.48528467426E-06 -0.34896150994E-01  0.34999967146E-01  0.00000000000E+00 0.  1.
       22    1    1    2    0    0 -0.32493843423E-06 -0.59899521110E-07  0.14860205044E-05  0.15223107036E-05  0.00000000000E+00 0. -1.
       22    1    1    2    0    0  0.26940854625E-02 -0.42538515315E-06  0.34894664974E-01  0.34998510544E-01  0.00000000000E+00 0. -1.
</event>
<event>
 5   0  0.1496444E+06  0.9118800E+02  0.7546771E-02  0.1180000E+00
      -11   -1    0    0    0    0  0.00000000000E+00  0.00000000000E+00  0.34996269501E-01  0.35000000000E-01  0.51099999109E-03 0. -1.
       11   -1    0    0    0    0 -0.00000000000E+00 -0.00000000000E+00 -0.34996269501E-01  0.35000000000E-01  0.51099999109E-03 0.  1.
       22    1    1    2    0    0 -0.79614924179E-02 -0.17263962423E-01 -0.88531948980E-02  0.20971619393E-01  0.00000000000E+00 0.  1.
       22    1    1    2    0    0  0.71725056630E-02 -0.34971839804E-02 -0.15247118862E-01  0.17209002495E-01  0.00000000000E+00 0.  1.
       22    1    1    2    0    0  0.78898675484E-03  0.20761146404E-01  0.24100313760E-01  0.31819378112E-01  0.00000000000E+00 0. -1.
</event>
<event>
 5   0  0.1496444E+06  0.9118800E+02  0.7546771E-02  0.1180000E+00
      -11   -1    0    0    0    0  0.00000000000E+00  0.00000000000E+00  0.34996269501E-01  0.35000000000E-01  0.51099999109E-03 0.  1.
       11   -1    0    0    0    0 -0.00000000000E+00 -0.00000000000E+00 -0.34996269501E-01  0.35000000000E-01  0.51099999109E-03 0. -1.
       22    1    1    2    0    0 -0.44699115649E-04  0.10606675292E-02 -0.34983895861E-01  0.34999999761E-01  0.00000000000E+00 0. -1.
       22    1    1    2    0    0  0.80336205842E-10  0.14463443609E-08  0.21996600606E-08  0.26337938983E-08  0.00000000000E+00 0.  1.
       22    1    1    2    0    0  0.44699035313E-04 -0.10606689756E-02  0.34983893661E-01  0.34999997606E-01  0.00000000000E+00 0.  1.
</event>
<event>
 5   0  0.1496444E+06  0.9118800E+02  0.7546771E-02  0.1180000E+00
      -11   -1    0    0    0    0  0.00000000000E+00  0.00000000000E+00  0.34996269501E-01  0.35000000000E-01  0.51099999109E-03 0.  1.
       11   -1    0    0    0    0 -0.00000000000E+00 -0.00000000000E+00 -0.34996269501E-01  0.35000000000E-01  0.51099999109E-03 0.  1.
       22    1    1    2    0    0 -0.11489912660E-02 -0.39088029752E-02 -0.26015214214E-01  0.26332305107E-01  0.00000000000E+00 0.  1.
       22    1    1    2    0    0  0.11489912660E-02  0.39088029752E-02 -0.83570914581E-02  0.92973060220E-02  0.00000000000E+00 0. -1.
       22    1    1    2    0    0  0.00000000000E+00  0.00000000000E+00  0.34372305672E-01  0.34370388871E-01  0.00000000000E+00 0.  1.
</event>
<event>
 5   0  0.1496444E+06  0.9118800E+02  0.7546771E-02  0.1180000E+00
      -11   -1    0    0    0    0  0.00000000000E+00  0.00000000000E+00  0.34996269501E-01  0.35000000000E-01  0.51099999109E-03 0.  1.
       11   -1    0    0    0    0 -0.00000000000E+00 -0.00000000000E+00 -0.34996269501E-01  0.35000000000E-01  0.51099999109E-03 0.  1.
       22    1    1    2    0    0  0.42170393742E-04 -0.90784370902E-04 -0.19964670851E-03  0.22333596290E-03  0.00000000000E+00 0. -1.
       22    1    1    2    0    0 -0.63004592362E-03 -0.13573921181E-03  0.34982334551E-01  0.34988271086E-01  0.00000000000E+00 0.  1.
       22    1    1    2    0    0  0.58787552988E-03  0.22652358271E-03 -0.34782687842E-01  0.34788392951E-01  0.00000000000E+00 0.  1.
</event>
<event>
 5   0  0.1496444E+06  0.9118800E+02  0.7546771E-02  0.1180000E+00
      -11   -1    0    0    0    0  0.00000000000E+00  0.00000000000E+00  0.34996269501E-01  0.35000000000E-01  0.51099999109E-03 0. -1.
       11   -1    0    0    0    0 -0.00000000000E+00 -0.00000000000E+00 -0.34996269501E-01  0.35000000000E-01  0.51099999109E-03 0.  1.
       22    1    1    2    0    0  0.60080024327E-04  0.48918782283E-03  0.34996527519E-01  0.34999997896E-01  0.00000000000E+00 0. -1.
       22    1    1    2    0    0 -0.23370466895E-08 -0.16903864991E-08  0.11355961420E-08  0.30998019845E-08  0.00000000000E+00 0.  1.
       22    1    1    2    0    0 -0.60077687280E-04 -0.48918613245E-03 -0.34996528655E-01  0.34999999004E-01  0.00000000000E+00 0.  1.
</event>
<event>
 5   0  0.1496444E+06  0.9118800E+02  0.7546771E-02  0.1180000E+00
      -11   -1    0    0    0    0  0.00000000000E+00  0.00000000000E+00  0.34996269501E-01  0.35000000000E-01  0.51099999109E-03 0.  1.
       11   -1    0    0    0    0 -0.00000000000E+00 -0.00000000000E+00 -0.34996269501E-01  0.35000000000E-01  0.51099999109E-03 0. -1.
       22    1    1    2    0    0  0.24640234196E-03  0.20850226367E-03 -0.15978909870E-02  0.16301665297E-02  0.00000000000E+00 0. -1.
       22    1    1    2    0    0  0.53548540703E-02  0.19543818413E-02  0.34477965486E-01  0.34946018007E-01  0.00000000000E+00 0.  1.
       22    1    1    2    0    0 -0.56012564123E-02 -0.21628841050E-02 -0.32880074499E-01  0.33423815463E-01  0.00000000000E+00 0. -1.
</event>
<event>
 5   0  0.1496444E+06  0.9118800E+02  0.7546771E-02  0.1180000E+00
      -11   -1    0    0    0    0  0.00000000000E+00  0.00000000000E+00  0.34996269501E-01  0.35000000000E-01  0.51099999109E-03 0.  1.
       11   -1    0    0    0    0 -0.00000000000E+00 -0.00000000000E+00 -0.34996269501E-01  0.35000000000E-01  0.51099999109E-03 0. -1.
       22    1    1    2    0    0 -0.75230743440E-03 -0.51329745095E-03  0.32889655036E-01  0.32902262067E-01  0.00000000000E+00 0.  1.
       22    1    1    2    0    0  0.73134446269E-03  0.44979336470E-03 -0.34987897176E-01  0.34998430359E-01  0.00000000000E+00 0. -1.
       22    1    1    2    0    0  0.20962971715E-04  0.63504086249E-04  0.20982421394E-02  0.20993075741E-02  0.00000000000E+00 0. -1.
</event>
<event>
 5   0  0.1496444E+06  0.9118800E+02  0.7546771E-02  0.1180000E+00
      -11   -1    0    0    0    0  0.00000000000E+00  0.00000000000E+00  0.34996269501E-01  0.35000000000E-01  0.51099999109E-03 0.  1.
       11   -1    0    0    0    0 -0.00000000000E+00 -0.00000000000E+00 -0.34996269501E-01  0.35000000000E-01  0.51099999109E-03 0. -1.
       22    1    1    2    0    0 -0.30987232000E-01  0.72573897883E-02 -0.14561194953E-01  0.34998666432E-01  0.00000000000E+00 0. -1.
       22    1    1    2    0    0  0.30988295905E-01 -0.72582192982E-02  0.14559261722E-01  0.34998976162E-01  0.00000000000E+00 0.  1.
       22    1    1    2    0    0 -0.10639051007E-05  0.82950990396E-06  0.19332315746E-05  0.23574064276E-05  0.00000000000E+00 0.  1.
</event>
<event>
 5   0  0.1496444E+06  0.9118800E+02  0.7546771E-02  0.1180000E+00
      -11   -1    0    0    0    0  0.00000000000E+00  0.00000000000E+00  0.34996269501E-01  0.35000000000E-01  0.51099999109E-03 0.  1.
       11   -1    0    0    0    0 -0.00000000000E+00 -0.00000000000E+00 -0.34996269501E-01  0.35000000000E-01  0.51099999109E-03 0.  1.
       22    1    1    2    0    0 -0.35384715331E-04 -0.37903044164E-04  0.16984841548E-01  0.16984920699E-01  0.00000000000E+00 0.  1.
       22    1    1    2    0    0 -0.49796015308E-02 -0.84604489054E-02 -0.32875440382E-01  0.34309914127E-01  0.00000000000E+00 0.  1.
       22    1    1    2    0    0  0.50149862461E-02  0.84983519496E-02  0.15890598834E-01  0.18705165175E-01  0.00000000000E+00 0. -1.
</event>
<event>
 5   0  0.1496444E+06  0.9118800E+02  0.7546771E-02  0.1180000E+00
      -11   -1    0    0    0    0  0.00000000000E+00  0.00000000000E+00  0.34996269501E-01  0.35000000000E-01  0.51099999109E-03 0.  1.
       11   -1    0    0    0    0 -0.00000000000E+00 -0.00000000000E+00 -0.34996269501E-01  0.35000000000E-01  0.51099999109E-03 0.  1.
       22    1    1    2    0    0  0.15652795480E-05  0.51815013986E-05  0.34933988147E-01  0.34932320094E-01  0.00000000000E+00 0.  1.
       22    1    1    2    0    0 -0.15651586558E-05 -0.51811012127E-05  0.67570297040E-04  0.67786713841E-04  0.00000000000E+00 0. -1.
       22    1    1    2    0    0 -0.12089216556E-09 -0.40018597682E-09 -0.35001558444E-01  0.34999893192E-01  0.00000000000E+00 0.  1.
</event>
<event>
 5   0  0.1496444E+06  0.9118800E+02  0.7546771E-02  0.1180000E+00
      -11   -1    0    0    0    0  0.00000000000E+00  0.00000000000E+00  0.34996269501E-01  0.35000000000E-01  0.51099999109E-03 0. -1.
       11   -1    0    0    0    0 -0.00000000000E+00 -0.00000000000E+00 -0.34996269501E-01  0.35000000000E-01  0.51099999109E-03 0.  1.
       22    1    1    2    0    0 -0.23686558271E-05 -0.38413875597E-05  0.16713910919E-04  0.17312469698E-04  0.00000000000E+00 0.  1.
       22    1    1    2    0    0 -0.13631602332E-01  0.25471638147E-01  0.19735875078E-01  0.34987564893E-01  0.00000000000E+00 0. -1.
       22    1    1    2    0    0  0.13633970988E-01 -0.25467796759E-01 -0.19752588989E-01  0.34995122638E-01  0.00000000000E+00 0.  1.
</event>
<event>
 5   0  0.1496444E+06  0.9118800E+02  0.7546771E-02  0.1180000E+00
      -11   -1    0    0    0    0  0.00000000000E+00  0.00000000000E+00  0.34996269501E-01  0.35000000000E-01  0.51099999109E-03 0.  1.
       11   -1    0    0    0    0 -0.00000000000E+00 -0.00000000000E+00 -0.34996269501E-01  0.35000000000E-01  0.51099999109E-03 0. -1.
       22    1    1    2    0    0  0.12030193173E-02 -0.97546057491E-03 -0.34965461270E-01  0.34999746580E-01  0.00000000000E+00 0. -1.
       22    1    1    2    0    0 -0.39226246216E-05  0.29399941242E-04  0.42166853422E-03  0.42271041657E-03  0.00000000000E+00 0. -1.
       22    1    1    2    0    0 -0.11990966927E-02  0.94606063366E-03  0.34543792736E-01  0.34577543004E-01  0.00000000000E+00 0.  1.
</event>
<event>
 5   0  0.1496444E+06  0.9118800E+02  0.7546771E-02  0.1180000E+00
      -11   -1    0    0    0    0  0.00000000000E+00  0.00000000000E+00  0.34996269501E-01  0.35000000000E-01  0.51099999109E-03 0. -1.
       11   -1    0    0    0    0 -0.00000000000E+00 -0.00000000000E+00 -0.34996269501E-01  0.35000000000E-01  0.51099999109E-03 0.  1.
       22    1    1    2    0    0 -0.10109575340E-02 -0.88778382769E-03 -0.22341122673E-03  0.13638577039E-02  0.00000000000E+00 0.  1.
       22    1    1    2    0    0  0.14737247678E-01 -0.47866537191E-02  0.30891922746E-01  0.34560228788E-01  0.00000000000E+00 0. -1.
       22    1    1    2    0    0 -0.13726290144E-01  0.56744375468E-02 -0.30668511519E-01  0.34075913508E-01  0.00000000000E+00 0.  1.
</event>
<event>
 5   0  0.1496444E+06  0.9118800E+02  0.7546771E-02  0.1180000E+00
      -11   -1    0    0    0    0  0.00000000000E+00  0.00000000000E+00  0.34996269501E-01  0.35000000000E-01  0.51099999109E-03 0. -1.
       11   -1    0    0    0    0 -0.00000000000E+00 -0.00000000000E+00 -0.34996269501E-01  0.35000000000E-01  0.51099999109E-03 0. -1.
       22    1    1    2    0    0  0.57855443588E-04 -0.52627831315E-03  0.34991581409E-01  0.34995586659E-01  0.00000000000E+00 0. -1.
       22    1    1    2    0    0  0.96249264586E-06  0.15253989726E-06  0.43601474360E-05  0.44677227059E-05  0.00000000000E+00 0. -1.
       22    1    1    2    0    0 -0.58817936234E-04  0.52612577325E-03 -0.34995941556E-01  0.34999945618E-01  0.00000000000E+00 0. -1.
</event>
</LesHouchesEvents>
