<LesHouchesEvents version="3.0">
<header>
<!--
#*********************************************************************
#                                                                    *
#                        MadGraph5_aMC@NLO                           *
#                                                                    *
#                           Going Beyond                             *
#                                                                    *
#                   http://madgraph.hep.uiuc.edu                     *
#                   http://madgraph.phys.ucl.ac.be                   *
#                   http://amcatnlo.cern.ch                          *
#                                                                    *
#                     The MadGraph5_aMC@NLO team                     *
#                                                                    *
#....................................................................*
#                                                                    *
# This file contains all the information necessary to reproduce      *
# the events generated:                                              *
#                                                                    *
# 1. software version                                                *
# 2. proc_card          : code generation info including model       *
# 3. param_card         : model primary parameters in the LH format  *
# 4. run_card           : running parameters (collider and cuts)     *
# 5. pythia_card        : present only if pythia has been run        *
# 6. pgs_card           : present only if pgs has been run           *
# 7. delphes_cards      : present only if delphes has been run       *
#                                                                    *
#                                                                    *
#*********************************************************************
-->
<MGVersion>
#5.2.1.2
</MGVersion>
<MG5ProcCard>
#************************************************************
#*                     MadGraph5_aMC@NLO                    *
#*                                                          *
#*                *                       *                 *
#*                  *        * *        *                   *
#*                    * * * * 5 * * * *                     *
#*                  *        * *        *                   *
#*                *                       *                 *
#*                                                          *
#*                                                          *
#*         VERSION 2.1.2                 2014-07-03         *
#*                                                          *
#*    The MadGraph5_aMC@NLO Development Team - Find us at   *
#*    https://server06.fynu.ucl.ac.be/projects/madgraph     *
#*                                                          *
#************************************************************
#*                                                          *
#*               Command File for MadGraph5_aMC@NLO         *
#*                                                          *
#*     run as ./bin/mg5_aMC  filename                       *
#*                                                          *
#************************************************************
set group_subprocesses Auto
set ignore_six_quark_processes False
set gauge unitary
set complex_mass_scheme False
import model sm-lepton_masses
define p = g u c d s u~ c~ d~ s~
define j = g u c d s u~ c~ d~ s~
define l+ = e+ mu+
define l- = e- mu-
define vl = ve vm vt
define vl~ = ve~ vm~ vt~
generate e+ e- > a a a
output ../../e+e-2yyy
</MG5ProcCard>
<MGProcCard>
#*********************************************************************
#                        MadGraph/MadEvent                           *
#                   http://madgraph.hep.uiuc.edu                     *
#                                                                    *
#                          proc_card.dat                             *
#*********************************************************************
#                                                                    *
#            This Files is generated by MADGRAPH 5                   *
#                                                                    *
# WARNING: This Files is generated for MADEVENT (compatibility issue)*
#          This files is NOT a valid MG4 proc_card.dat               *
#          Running this in MG4 will NEVER reproduce the result of MG5*
#                                                                    *
#*********************************************************************
#*********************************************************************
# Process(es) requested : mg2 input                                  *
#*********************************************************************
# Begin PROCESS # This is TAG. Do not modify this line
e+ e- > a a a           #Process
# Be carefull the coupling are here in MG5 convention
          
end_coup           # End the couplings input

done               # this tells MG there are no more procs
# End PROCESS  # This is TAG. Do not modify this line
#*********************************************************************
# Model information                                                  *
#*********************************************************************
# Begin MODEL  # This is TAG. Do not modify this line
sm-lepton_masses
# End   MODEL  # This is TAG. Do not modify this line
#*********************************************************************
# Start multiparticle definitions                                    *
#*********************************************************************
# Begin MULTIPARTICLES # This is TAG. Do not modify this line

# End  MULTIPARTICLES # This is TAG. Do not modify this line
</MGProcCard>
<MGRunCard>
#*********************************************************************
#                       MadGraph5_aMC@NLO                            *
#                                                                    *
#                     run_card.dat MadEvent                          *
#                                                                    *
#  This file is used to set the parameters of the run.               *
#                                                                    *
#  Some notation/conventions:                                        *
#                                                                    *
#   Lines starting with a '# ' are info or comments                  *
#                                                                    *
#   mind the format:   value    = variable     ! comment             *
#*********************************************************************
#
#*******************                                                 
# Running parameters
#*******************                                                 
#                                                                    
#*********************************************************************
# Tag name for the run (one word)                                    *
#*********************************************************************
  tag_1     = run_tag ! name of the run 
#*********************************************************************
# Run to generate the grid pack                                      *
#*********************************************************************
  .false.     = gridpack  !True = setting up the grid pack
#*********************************************************************
# Number of events and rnd seed                                      *
# Warning: Do not generate more than 1M events in a single run       *
# If you want to run Pythia, avoid more than 50k events in a run.    *
#*********************************************************************
  10000 = nevents ! Number of unweighted events requested 
 177 = iseed   ! rnd seed (0=assigned automatically=default))
#*********************************************************************
# Collider type and energy                                           *
# lpp: 0=No PDF, 1=proton, -1=antiproton, 2=photon from proton,      *
#                                         3=photon from electron     *
#*********************************************************************
        0     = lpp1    ! beam 1 type 
        -0     = lpp2    ! beam 2 type
     0.035     = ebeam1  ! beam 1 total energy in GeV
     0.035     = ebeam2  ! beam 2 total energy in GeV
#*********************************************************************
# Beam polarization from -100 (left-handed) to 100 (right-handed)    *
#*********************************************************************
        0     = polbeam1 ! beam polarization for beam 1
        0     = polbeam2 ! beam polarization for beam 2
#*********************************************************************
# PDF CHOICE: this automatically fixes also alpha_s and its evol.    *
#*********************************************************************
 'nn23lo1'    = pdlabel     ! PDF set                                     
#*********************************************************************
# Renormalization and factorization scales                           *
#*********************************************************************
 T        = fixed_ren_scale  ! if .true. use fixed ren scale
 T        = fixed_fac_scale  ! if .true. use fixed fac scale
 91.1880  = scale            ! fixed ren scale
 91.1880  = dsqrt_q2fact1    ! fixed fact scale for pdf1
 91.1880  = dsqrt_q2fact2    ! fixed fact scale for pdf2
 1        = scalefact        ! scale factor for event-by-event scales
#*********************************************************************
# Matching - Warning! ickkw > 1 is still beta
#*********************************************************************
 0        = ickkw            ! 0 no matching, 1 MLM, 2 CKKW matching
 1        = highestmult      ! for ickkw=2, highest mult group
 1        = ktscheme         ! for ickkw=1, 1 Durham kT, 2 Pythia pTE
 1        = alpsfact         ! scale factor for QCD emission vx
 F        = chcluster        ! cluster only according to channel diag
 T        = pdfwgt           ! for ickkw=1, perform pdf reweighting
 5        = asrwgtflavor     ! highest quark flavor for a_s reweight
 T        = clusinfo         ! include clustering tag in output
 3.0      = lhe_version       ! Change the way clustering information pass to shower.        
#*********************************************************************
#**********************************************************
#
#**********************************************************
# Automatic ptj and mjj cuts if xqcut > 0
# (turn off for VBF and single top processes)
#**********************************************************
   T  = auto_ptj_mjj  ! Automatic setting of ptj and mjj
#**********************************************************
#                                                                    
#**********************************
# BW cutoff (M+/-bwcutoff*Gamma)
#**********************************
  15  = bwcutoff      ! (M+/-bwcutoff*Gamma)
#**********************************************************
# Apply pt/E/eta/dr/mij cuts on decay products or not
# (note that etmiss/ptll/ptheavy/ht/sorted cuts always apply)
#**********************************************************
   T  = cut_decays    ! Cut decay products 
#*************************************************************
# Number of helicities to sum per event (0 = all helicities)
# 0 gives more stable result, but longer run time (needed for
# long decay chains e.g.).
# Use >=2 if most helicities contribute, e.g. pure QCD.
#*************************************************************
   0  = nhel          ! Number of helicities used per event
#*******************                                                 
# Standard Cuts
#*******************                                                 
#                                                                    
#*********************************************************************
# Minimum and maximum pt's (for max, -1 means no cut)                *
#*********************************************************************
 20  = ptj       ! minimum pt for the jets 
  0  = ptb       ! minimum pt for the b 
 0  = pta       ! minimum pt for the photons 
 0  = ptl       ! minimum pt for the charged leptons 
  0  = misset    ! minimum missing Et (sum of neutrino's momenta)
  0  = ptheavy   ! minimum pt for one heavy final state
 1.0 = ptonium   ! minimum pt for the quarkonium states
 -1  = ptjmax    ! maximum pt for the jets
 -1  = ptbmax    ! maximum pt for the b
 -1  = ptamax    ! maximum pt for the photons
 -1  = ptlmax    ! maximum pt for the charged leptons
 -1  = missetmax ! maximum missing Et (sum of neutrino's momenta)
#*********************************************************************
# Minimum and maximum E's (in the center of mass frame)              *
#*********************************************************************
  0  = ej     ! minimum E for the jets 
  0  = eb     ! minimum E for the b 
  0.0003  = ea     ! minimum E for the photons 
  0  = el     ! minimum E for the charged leptons 
 -1   = ejmax ! maximum E for the jets
 -1   = ebmax ! maximum E for the b
 -1   = eamax ! maximum E for the photons
 -1   = elmax ! maximum E for the charged leptons
#*********************************************************************
# Maximum and minimum absolute rapidity (for max, -1 means no cut)   *
#*********************************************************************
   5  = etaj    ! max rap for the jets 
  -1  = etab    ! max rap for the b
  -1 = etaa
#  1.58619 = etaa    ! max rap for the photons 
 -1  = etal    ! max rap for the charged leptons 
 0.6  = etaonium ! max rap for the quarkonium states
   0  = etajmin ! min rap for the jets
   0  = etabmin ! min rap for the b
   0 = etaamin 
#   1.29833  = etaamin ! min rap for the photons
   0  = etalmin ! main rap for the charged leptons
#*********************************************************************
# Minimum and maximum DeltaR distance                                *
#*********************************************************************
 0.4 = drjj    ! min distance between jets 
 0   = drbb    ! min distance between b's 
 0.4 = drll    ! min distance between leptons 
 0 = draa    ! min distance between gammas 
 0   = drbj    ! min distance between b and jet 
 0.4 = draj    ! min distance between gamma and jet 
 0.4 = drjl    ! min distance between jet and lepton 
 0   = drab    ! min distance between gamma and b 
 0   = drbl    ! min distance between b and lepton 
 0 = dral    ! min distance between gamma and lepton 
 -1  = drjjmax ! max distance between jets
 -1  = drbbmax ! max distance between b's
 -1  = drllmax ! max distance between leptons
 -1  = draamax ! max distance between gammas
 -1  = drbjmax ! max distance between b and jet
 -1  = drajmax ! max distance between gamma and jet
 -1  = drjlmax ! max distance between jet and lepton
 -1  = drabmax ! max distance between gamma and b
 -1  = drblmax ! max distance between b and lepton
 -1  = dralmax ! maxdistance between gamma and lepton
#*********************************************************************
# Minimum and maximum invariant mass for pairs                       *
# WARNING: for four lepton final state mmll cut require to have      *
#          different lepton masses for each flavor!                  *           
#*********************************************************************
 0   = mmjj    ! min invariant mass of a jet pair 
 0   = mmbb    ! min invariant mass of a b pair 
 0   = mmaa    ! min invariant mass of gamma gamma pair
 0   = mmll    ! min invariant mass of l+l- (same flavour) lepton pair
 -1  = mmjjmax ! max invariant mass of a jet pair
 -1  = mmbbmax ! max invariant mass of a b pair
 -1  = mmaamax ! max invariant mass of gamma gamma pair
 -1  = mmllmax ! max invariant mass of l+l- (same flavour) lepton pair
#*********************************************************************
# Minimum and maximum invariant mass for all letpons                 *
#*********************************************************************
 0   = mmnl    ! min invariant mass for all letpons (l+- and vl) 
 -1  = mmnlmax ! max invariant mass for all letpons (l+- and vl) 
#*********************************************************************
# Minimum and maximum pt for 4-momenta sum of leptons                *
#*********************************************************************
 0   = ptllmin  ! Minimum pt for 4-momenta sum of leptons(l and vl)
 -1  = ptllmax  ! Maximum pt for 4-momenta sum of leptons(l and vl)
#*********************************************************************
# Inclusive cuts                                                     *
#*********************************************************************
 0  = xptj ! minimum pt for at least one jet  
 0  = xptb ! minimum pt for at least one b 
 0  = xpta ! minimum pt for at least one photon 
 0  = xptl ! minimum pt for at least one charged lepton 
#*********************************************************************
# Control the pt's of the jets sorted by pt                          *
#*********************************************************************
 0   = ptj1min ! minimum pt for the leading jet in pt
 0   = ptj2min ! minimum pt for the second jet in pt
 0   = ptj3min ! minimum pt for the third jet in pt
 0   = ptj4min ! minimum pt for the fourth jet in pt
 -1  = ptj1max ! maximum pt for the leading jet in pt 
 -1  = ptj2max ! maximum pt for the second jet in pt
 -1  = ptj3max ! maximum pt for the third jet in pt
 -1  = ptj4max ! maximum pt for the fourth jet in pt
 0   = cutuse  ! reject event if fails any (0) / all (1) jet pt cuts
#*********************************************************************
# Control the pt's of leptons sorted by pt                           *
#*********************************************************************
 0   = ptl1min ! minimum pt for the leading lepton in pt
 0   = ptl2min ! minimum pt for the second lepton in pt
 0   = ptl3min ! minimum pt for the third lepton in pt
 0   = ptl4min ! minimum pt for the fourth lepton in pt
 -1  = ptl1max ! maximum pt for the leading lepton in pt 
 -1  = ptl2max ! maximum pt for the second lepton in pt
 -1  = ptl3max ! maximum pt for the third lepton in pt
 -1  = ptl4max ! maximum pt for the fourth lepton in pt
#*********************************************************************
# Control the Ht(k)=Sum of k leading jets                            *
#*********************************************************************
 0   = htjmin ! minimum jet HT=Sum(jet pt)
 -1  = htjmax ! maximum jet HT=Sum(jet pt)
 0   = ihtmin  !inclusive Ht for all partons (including b)
 -1  = ihtmax  !inclusive Ht for all partons (including b)
 0   = ht2min ! minimum Ht for the two leading jets
 0   = ht3min ! minimum Ht for the three leading jets
 0   = ht4min ! minimum Ht for the four leading jets
 -1  = ht2max ! maximum Ht for the two leading jets
 -1  = ht3max ! maximum Ht for the three leading jets
 -1  = ht4max ! maximum Ht for the four leading jets
#***********************************************************************
# Photon-isolation cuts, according to hep-ph/9801442                   *
# When ptgmin=0, all the other parameters are ignored                  *
# When ptgmin>0, pta and draj are not going to be used                 *
#***********************************************************************
   0 = ptgmin ! Min photon transverse momentum
 0.0 = R0gamma ! Radius of isolation code
 1.0 = xn ! n parameter of eq.(3.4) in hep-ph/9801442
 1.0 = epsgamma ! epsilon_gamma parameter of eq.(3.4) in hep-ph/9801442
 .true. = isoEM ! isolate photons from EM energy (photons and leptons)
#*********************************************************************
# WBF cuts                                                           *
#*********************************************************************
 0   = xetamin ! minimum rapidity for two jets in the WBF case  
 0   = deltaeta ! minimum rapidity for two jets in the WBF case 
#*********************************************************************
# KT DURHAM CUT                                                      *
#*********************************************************************
 -1    =  ktdurham        
 0.4  =  dparameter 
#*********************************************************************
# maximal pdg code for quark to be considered as a light jet         *
# (otherwise b cuts are applied)                                     *
#*********************************************************************
 4 = maxjetflavor    ! Maximum jet pdg code
#*********************************************************************
# Jet measure cuts                                                   *
#*********************************************************************
 0   = xqcut   ! minimum kt jet measure between partons
#*********************************************************************
#
#*********************************************************************
# Store info for systematics studies                                 *
# WARNING: If use_syst is T, matched Pythia output is                *
#          meaningful ONLY if plotted taking matchscale              *
#          reweighting into account!                                 *
#*********************************************************************
   F  = use_syst      ! Enable systematics studies
#
#**************************************
# Parameter of the systematics study
#  will be used by SysCalc (if installed)
#**************************************                                  
#
0.5 1 2 = sys_scalefact  # factorization/renormalization scale factor
0.5 1 2 = sys_alpsfact  # \alpha_s emission scale factors
30 50 = sys_matchscale # variation of merging scale
# PDF sets and number of members (0 or none for all members).
CT10nlo.LHgrid = sys_pdf # matching scales
# MSTW2008nlo68cl.LHgrid 1  = sys_pdf
</MGRunCard>
<slha>
######################################################################
## PARAM_CARD AUTOMATICALY GENERATED BY MG5 FOLLOWING UFO MODEL   ####
######################################################################
##                                                                  ##
##  Width set on Auto will be computed following the information    ##
##        present in the decay.py files of the model.               ##
##        See  arXiv:1402.1178 for more details.                    ##
##                                                                  ##
######################################################################

###################################
## INFORMATION FOR MASS
###################################
Block mass 
    5 4.700000e+00 # MB 
    6 1.730000e+02 # MT 
   11 5.110000e-04 # Me 
   13 1.056600e-01 # MM 
   15 1.777000e+00 # MTA 
   23 9.118800e+01 # MZ 
   25 1.250000e+02 # MH 
## Dependent parameters, given by model restrictions.
## Those values should be edited following the 
## analytical expression. MG5 ignores those values 
## but they are important for interfacing the output of MG5
## to external program such as Pythia.
  1 0.000000 # d : 0.0 
  2 0.000000 # u : 0.0 
  3 0.000000 # s : 0.0 
  4 0.000000 # c : 0.0 
  12 0.000000 # ve : 0.0 
  14 0.000000 # vm : 0.0 
  16 0.000000 # vt : 0.0 
  21 0.000000 # g : 0.0 
  22 0.000000 # a : 0.0 
  24 80.419002 # w+ : cmath.sqrt(MZ__exp__2/2. + cmath.sqrt(MZ__exp__4/4. - (aEW*cmath.pi*MZ__exp__2)/(Gf*sqrt__2))) 

###################################
## INFORMATION FOR SMINPUTS
###################################
Block sminputs 
    1 1.325070e+02 # aEWM1 
    2 1.166390e-05 # Gf 
    3 1.180000e-01 # aS 

###################################
## INFORMATION FOR YUKAWA
###################################
Block yukawa 
    5 4.700000e+00 # ymb 
    6 1.730000e+02 # ymt 
   11 5.110000e-04 # yme 
   13 1.056600e-01 # ymm 
   15 1.777000e+00 # ymtau 

###################################
## INFORMATION FOR DECAY
###################################
DECAY   6 1.491500e+00 # WT 
DECAY  15 2.270000e-12 # WTau 
DECAY  23 2.441404e+00 # WZ 
DECAY  24 2.047600e+00 # WW 
DECAY  25 6.382339e-03 # WH 
## Dependent parameters, given by model restrictions.
## Those values should be edited following the 
## analytical expression. MG5 ignores those values 
## but they are important for interfacing the output of MG5
## to external program such as Pythia.
DECAY  1 0.000000 # d : 0.0 
DECAY  2 0.000000 # u : 0.0 
DECAY  3 0.000000 # s : 0.0 
DECAY  4 0.000000 # c : 0.0 
DECAY  5 0.000000 # b : 0.0 
DECAY  11 0.000000 # e- : 0.0 
DECAY  12 0.000000 # ve : 0.0 
DECAY  13 0.000000 # mu- : 0.0 
DECAY  14 0.000000 # vm : 0.0 
DECAY  16 0.000000 # vt : 0.0 
DECAY  21 0.000000 # g : 0.0 
DECAY  22 0.000000 # a : 0.0
</slha>
## END BANNER##
<MGGenerationInfo>
#  Number of Events        :        10000
#  Integrated weight (pb)  :  0.41436E+08
#  Truncated wgt (pb)      :  0.00000E+00
#  Unit wgt                :  0.41436E+04
</MGGenerationInfo>
</header>
<init>
      -11       11  0.35000000000E-01  0.35000000000E-01 0 0       0       0 3   1
  0.41436489696E+08  0.80512951501E+05  0.41436000000E+04   0
<generator name='MadGraph5_aMC@NLO' version='#5.2.1.2'>please cite 1405.0301 </generator>
</init>
<event>
 5   0  0.4143600E+04  0.9118800E+02  0.7546771E-02  0.1180000E+00
      -11   -1    0    0    0    0  0.00000000000E+00  0.00000000000E+00  0.34996269501E-01  0.35000000000E-01  0.51099999109E-03 0. -1.
       11   -1    0    0    0    0 -0.00000000000E+00 -0.00000000000E+00 -0.34996269501E-01  0.35000000000E-01  0.51099999109E-03 0.  1.
       22    1    1    2    0    0  0.11079699957E-01  0.11173892394E-01 -0.31218032663E-01  0.34959708032E-01  0.00000000000E+00 0.  1.
       22    1    1    2    0    0 -0.80277680387E-04 -0.32521020118E-03  0.16041055892E-02  0.16387070886E-02  0.00000000000E+00 0.  1.
       22    1    1    2    0    0 -0.10999422276E-01 -0.10848682193E-01  0.29613927073E-01  0.33401584879E-01  0.00000000000E+00 0. -1.
</event>
<event>
 5   0  0.4143600E+04  0.9118800E+02  0.7546771E-02  0.1180000E+00
      -11   -1    0    0    0    0  0.00000000000E+00  0.00000000000E+00  0.34996269501E-01  0.35000000000E-01  0.51099999109E-03 0.  1.
       11   -1    0    0    0    0 -0.00000000000E+00 -0.00000000000E+00 -0.34996269501E-01  0.35000000000E-01  0.51099999109E-03 0. -1.
       22    1    1    2    0    0  0.15475452102E-01  0.12504108070E-01  0.28310035233E-01  0.34602029294E-01  0.00000000000E+00 0.  1.
       22    1    1    2    0    0 -0.15557620804E-01 -0.12793297078E-01 -0.25140316972E-01  0.32214027265E-01  0.00000000000E+00 0. -1.
       22    1    1    2    0    0  0.82168701856E-04  0.28918900847E-03 -0.31697182611E-02  0.31839434406E-02  0.00000000000E+00 0.  1.
</event>
<event>
 5   0  0.4143600E+04  0.9118800E+02  0.7546771E-02  0.1180000E+00
      -11   -1    0    0    0    0  0.00000000000E+00  0.00000000000E+00  0.34996269501E-01  0.35000000000E-01  0.51099999109E-03 0. -1.
       11   -1    0    0    0    0 -0.00000000000E+00 -0.00000000000E+00 -0.34996269501E-01  0.35000000000E-01  0.51099999109E-03 0.  1.
       22    1    1    2    0    0 -0.21437896934E-01  0.10669411075E-01  0.25448508399E-01  0.34943473459E-01  0.00000000000E+00 0. -1.
       22    1    1    2    0    0  0.21487720152E-01 -0.10600850046E-01 -0.25109815818E-01  0.34707390992E-01  0.00000000000E+00 0.  1.
       22    1    1    2    0    0 -0.49823218201E-04 -0.68561028747E-04 -0.33869258078E-03  0.34913554962E-03  0.00000000000E+00 0.  1.
</event>
<event>
 5   0  0.4143600E+04  0.9118800E+02  0.7546771E-02  0.1180000E+00
      -11   -1    0    0    0    0  0.00000000000E+00  0.00000000000E+00  0.34996269501E-01  0.35000000000E-01  0.51099999109E-03 0. -1.
       11   -1    0    0    0    0 -0.00000000000E+00 -0.00000000000E+00 -0.34996269501E-01  0.35000000000E-01  0.51099999109E-03 0.  1.
       22    1    1    2    0    0  0.11948052847E-01  0.13034704711E-01 -0.28058821216E-01  0.33165598770E-01  0.00000000000E+00 0.  1.
       22    1    1    2    0    0 -0.68391359212E-03 -0.11248762056E-03 -0.20629530643E-02  0.21762735609E-02  0.00000000000E+00 0. -1.
       22    1    1    2    0    0 -0.11264139255E-01 -0.12922217091E-01  0.30121774281E-01  0.34658127669E-01  0.00000000000E+00 0. -1.
</event>
<event>
 5   0  0.4143600E+04  0.9118800E+02  0.7546771E-02  0.1180000E+00
      -11   -1    0    0    0    0  0.00000000000E+00  0.00000000000E+00  0.34996269501E-01  0.35000000000E-01  0.51099999109E-03 0.  1.
       11   -1    0    0    0    0 -0.00000000000E+00 -0.00000000000E+00 -0.34996269501E-01  0.35000000000E-01  0.51099999109E-03 0. -1.
       22    1    1    2    0    0  0.14791216791E-01  0.41070805276E-03  0.31501089149E-01  0.34803266985E-01  0.00000000000E+00 0.  1.
       22    1    1    2    0    0  0.36723815294E-03  0.16828536002E-03 -0.29899890899E-03  0.50257752731E-03  0.00000000000E+00 0. -1.
       22    1    1    2    0    0 -0.15158454944E-01 -0.57899341277E-03 -0.31202090240E-01  0.34694155488E-01  0.00000000000E+00 0. -1.
</event>
<event>
 5   0  0.4143600E+04  0.9118800E+02  0.7546771E-02  0.1180000E+00
      -11   -1    0    0    0    0  0.00000000000E+00  0.00000000000E+00  0.34996269501E-01  0.35000000000E-01  0.51099999109E-03 0. -1.
       11   -1    0    0    0    0 -0.00000000000E+00 -0.00000000000E+00 -0.34996269501E-01  0.35000000000E-01  0.51099999109E-03 0.  1.
       22    1    1    2    0    0 -0.21053524941E-02 -0.15961739174E-01  0.29666576743E-01  0.33753746492E-01  0.00000000000E+00 0. -1.
       22    1    1    2    0    0  0.20912352456E-02  0.15998283389E-01 -0.30981389162E-01  0.34930857571E-01  0.00000000000E+00 0.  1.
       22    1    1    2    0    0  0.14117248479E-04 -0.36544214826E-04  0.13148124184E-02  0.13153959373E-02  0.00000000000E+00 0.  1.
</event>
<event>
 5   0  0.4143600E+04  0.9118800E+02  0.7546771E-02  0.1180000E+00
      -11   -1    0    0    0    0  0.00000000000E+00  0.00000000000E+00  0.34996269501E-01  0.35000000000E-01  0.51099999109E-03 0. -1.
       11   -1    0    0    0    0 -0.00000000000E+00 -0.00000000000E+00 -0.34996269501E-01  0.35000000000E-01  0.51099999109E-03 0.  1.
       22    1    1    2    0    0 -0.65704380642E-03  0.14268476627E-01 -0.31745287228E-01  0.34810693659E-01  0.00000000000E+00 0.  1.
       22    1    1    2    0    0  0.95902745195E-03 -0.14584218285E-01  0.31391087301E-01  0.34626861229E-01  0.00000000000E+00 0. -1.
       22    1    1    2    0    0 -0.30198364553E-03  0.31574165743E-03  0.35419992637E-03  0.56244511221E-03  0.00000000000E+00 0. -1.
</event>
<event>
 5   0  0.4143600E+04  0.9118800E+02  0.7546771E-02  0.1180000E+00
      -11   -1    0    0    0    0  0.00000000000E+00  0.00000000000E+00  0.34996269501E-01  0.35000000000E-01  0.51099999109E-03 0.  1.
       11   -1    0    0    0    0 -0.00000000000E+00 -0.00000000000E+00 -0.34996269501E-01  0.35000000000E-01  0.51099999109E-03 0. -1.
       22    1    1    2    0    0  0.10548142191E-01  0.16285363484E-01  0.28848795432E-01  0.34766785376E-01  0.00000000000E+00 0.  1.
       22    1    1    2    0    0 -0.96763353951E-02 -0.16552512453E-01 -0.28251095823E-01  0.34142957552E-01  0.00000000000E+00 0. -1.
       22    1    1    2    0    0 -0.87180679550E-03  0.26714896940E-03 -0.59769960889E-03  0.10902570720E-02  0.00000000000E+00 0. -1.
</event>
<event>
 5   0  0.4143600E+04  0.9118800E+02  0.7546771E-02  0.1180000E+00
      -11   -1    0    0    0    0  0.00000000000E+00  0.00000000000E+00  0.34996269501E-01  0.35000000000E-01  0.51099999109E-03 0.  1.
       11   -1    0    0    0    0 -0.00000000000E+00 -0.00000000000E+00 -0.34996269501E-01  0.35000000000E-01  0.51099999109E-03 0. -1.
       22    1    1    2    0    0  0.13262966012E-02 -0.95743731446E-03 -0.29061879700E-01  0.29107878668E-01  0.00000000000E+00 0. -1.
       22    1    1    2    0    0  0.38329413780E-02 -0.18658033626E-02 -0.48597110658E-02  0.64644762694E-02  0.00000000000E+00 0. -1.
       22    1    1    2    0    0 -0.51592379792E-02  0.28232406770E-02  0.33921590766E-01  0.34427645062E-01  0.00000000000E+00 0.  1.
</event>
<event>
 5   0  0.4143600E+04  0.9118800E+02  0.7546771E-02  0.1180000E+00
      -11   -1    0    0    0    0  0.00000000000E+00  0.00000000000E+00  0.34996269501E-01  0.35000000000E-01  0.51099999109E-03 0.  1.
       11   -1    0    0    0    0 -0.00000000000E+00 -0.00000000000E+00 -0.34996269501E-01  0.35000000000E-01  0.51099999109E-03 0. -1.
       22    1    1    2    0    0 -0.13299363086E-02  0.11523595462E-03 -0.19111588469E-02  0.23312095676E-02  0.00000000000E+00 0. -1.
       22    1    1    2    0    0  0.11369731704E-02 -0.76343273647E-03 -0.32861265209E-01  0.32889790036E-01  0.00000000000E+00 0. -1.
       22    1    1    2    0    0  0.19296313819E-03  0.64819678186E-03  0.34772424056E-01  0.34779000396E-01  0.00000000000E+00 0.  1.
</event>
<event>
 5   0  0.4143600E+04  0.9118800E+02  0.7546771E-02  0.1180000E+00
      -11   -1    0    0    0    0  0.00000000000E+00  0.00000000000E+00  0.34996269501E-01  0.35000000000E-01  0.51099999109E-03 0.  1.
       11   -1    0    0    0    0 -0.00000000000E+00 -0.00000000000E+00 -0.34996269501E-01  0.35000000000E-01  0.51099999109E-03 0. -1.
       22    1    1    2    0    0  0.13236883025E-02  0.77898718371E-03 -0.21194226626E-02  0.26174270147E-02  0.00000000000E+00 0.  1.
       22    1    1    2    0    0  0.84996663563E-04  0.56157792348E-02 -0.32076940181E-01  0.32564924262E-01  0.00000000000E+00 0. -1.
       22    1    1    2    0    0 -0.14086849660E-02 -0.63947664185E-02  0.34196362843E-01  0.34817648723E-01  0.00000000000E+00 0.  1.
</event>
<event>
 5   0  0.4143600E+04  0.9118800E+02  0.7546771E-02  0.1180000E+00
      -11   -1    0    0    0    0  0.00000000000E+00  0.00000000000E+00  0.34996269501E-01  0.35000000000E-01  0.51099999109E-03 0.  1.
       11   -1    0    0    0    0 -0.00000000000E+00 -0.00000000000E+00 -0.34996269501E-01  0.35000000000E-01  0.51099999109E-03 0. -1.
       22    1    1    2    0    0  0.28502210926E-02  0.59785405253E-03  0.34576632056E-01  0.34699058692E-01  0.00000000000E+00 0.  1.
       22    1    1    2    0    0  0.12064210022E-02 -0.81677637098E-03 -0.20131716290E-02  0.24850423100E-02  0.00000000000E+00 0.  1.
       22    1    1    2    0    0 -0.40566420948E-02  0.21892231845E-03 -0.32563460427E-01  0.32815898998E-01  0.00000000000E+00 0. -1.
</event>
<event>
 5   0  0.4143600E+04  0.9118800E+02  0.7546771E-02  0.1180000E+00
      -11   -1    0    0    0    0  0.00000000000E+00  0.00000000000E+00  0.34996269501E-01  0.35000000000E-01  0.51099999109E-03 0. -1.
       11   -1    0    0    0    0 -0.00000000000E+00 -0.00000000000E+00 -0.34996269501E-01  0.35000000000E-01  0.51099999109E-03 0.  1.
       22    1    1    2    0    0 -0.65207545207E-02  0.24020800186E-02 -0.16780806352E-01  0.18162755566E-01  0.00000000000E+00 0. -1.
       22    1    1    2    0    0  0.15759787087E-01 -0.98319620023E-02 -0.11031065965E-01  0.21603767777E-01  0.00000000000E+00 0.  1.
       22    1    1    2    0    0 -0.92390325659E-02  0.74298819837E-02  0.27811872316E-01  0.30233476657E-01  0.00000000000E+00 0. -1.
</event>
<event>
 5   0  0.4143600E+04  0.9118800E+02  0.7546771E-02  0.1180000E+00
      -11   -1    0    0    0    0  0.00000000000E+00  0.00000000000E+00  0.34996269501E-01  0.35000000000E-01  0.51099999109E-03 0. -1.
       11   -1    0    0    0    0 -0.00000000000E+00 -0.00000000000E+00 -0.34996269501E-01  0.35000000000E-01  0.51099999109E-03 0.  1.
       22    1    1    2    0    0 -0.14898263725E-03  0.58188512250E-02  0.32957717681E-01  0.33467781226E-01  0.00000000000E+00 0. -1.
       22    1    1    2    0    0  0.21147661960E-02  0.27459395347E-02 -0.22965945955E-01  0.23226000378E-01  0.00000000000E+00 0.  1.
       22    1    1    2    0    0 -0.19657835588E-02 -0.85647907597E-02 -0.99917717269E-02  0.13306218396E-01  0.00000000000E+00 0.  1.
</event>
<event>
 5   0  0.4143600E+04  0.9118800E+02  0.7546771E-02  0.1180000E+00
      -11   -1    0    0    0    0  0.00000000000E+00  0.00000000000E+00  0.34996269501E-01  0.35000000000E-01  0.51099999109E-03 0. -1.
       11   -1    0    0    0    0 -0.00000000000E+00 -0.00000000000E+00 -0.34996269501E-01  0.35000000000E-01  0.51099999109E-03 0.  1.
       22    1    1    2    0    0 -0.21073326027E-03  0.62190544503E-04 -0.29402928998E-02  0.29484908864E-02  0.00000000000E+00 0.  1.
       22    1    1    2    0    0  0.19409636101E-01  0.12381387274E-02  0.28840274473E-01  0.34785462377E-01  0.00000000000E+00 0. -1.
       22    1    1    2    0    0 -0.19198902841E-01 -0.13003292719E-02 -0.25899981573E-01  0.32266046737E-01  0.00000000000E+00 0.  1.
</event>
<event>
 5   0  0.4143600E+04  0.9118800E+02  0.7546771E-02  0.1180000E+00
      -11   -1    0    0    0    0  0.00000000000E+00  0.00000000000E+00  0.34996269501E-01  0.35000000000E-01  0.51099999109E-03 0. -1.
       11   -1    0    0    0    0 -0.00000000000E+00 -0.00000000000E+00 -0.34996269501E-01  0.35000000000E-01  0.51099999109E-03 0.  1.
       22    1    1    2    0    0 -0.39549826572E-02  0.27917660890E-02  0.34653180087E-01  0.34989694710E-01  0.00000000000E+00 0. -1.
       22    1    1    2    0    0  0.39776371093E-02 -0.26719738934E-02 -0.34363988135E-01  0.34696465555E-01  0.00000000000E+00 0.  1.
       22    1    1    2    0    0 -0.22654452146E-04 -0.11979219554E-03 -0.28919195211E-03  0.31383973534E-03  0.00000000000E+00 0.  1.
</event>
<event>
 5   0  0.4143600E+04  0.9118800E+02  0.7546771E-02  0.1180000E+00
      -11   -1    0    0    0    0  0.00000000000E+00  0.00000000000E+00  0.34996269501E-01  0.35000000000E-01  0.51099999109E-03 0.  1.
       11   -1    0    0    0    0 -0.00000000000E+00 -0.00000000000E+00 -0.34996269501E-01  0.35000000000E-01  0.51099999109E-03 0. -1.
       22    1    1    2    0    0 -0.15359136039E-01 -0.22643032450E-02  0.31016402883E-01  0.34684973358E-01  0.00000000000E+00 0.  1.
       22    1    1    2    0    0 -0.18281515158E-03 -0.86511791607E-04  0.24893627874E-03  0.32074123621E-03  0.00000000000E+00 0.  1.
       22    1    1    2    0    0  0.15541951190E-01  0.23508150366E-02 -0.31265339162E-01  0.34994285406E-01  0.00000000000E+00 0. -1.
</event>
<event>
 5   0  0.4143600E+04  0.9118800E+02  0.7546771E-02  0.1180000E+00
      -11   -1    0    0    0    0  0.00000000000E+00  0.00000000000E+00  0.34996269501E-01  0.35000000000E-01  0.51099999109E-03 0. -1.
       11   -1    0    0    0    0 -0.00000000000E+00 -0.00000000000E+00 -0.34996269501E-01  0.35000000000E-01  0.51099999109E-03 0.  1.
       22    1    1    2    0    0  0.20062654561E-02 -0.18461059984E-03 -0.31922498942E-01  0.31986014457E-01  0.00000000000E+00 0.  1.
       22    1    1    2    0    0 -0.32116652560E-02 -0.57192312304E-03  0.34721263502E-01  0.34874174240E-01  0.00000000000E+00 0. -1.
       22    1    1    2    0    0  0.12053997999E-02  0.75653372288E-03 -0.27987645600E-02  0.31398113022E-02  0.00000000000E+00 0.  1.
</event>
<event>
 5   0  0.4143600E+04  0.9118800E+02  0.7546771E-02  0.1180000E+00
      -11   -1    0    0    0    0  0.00000000000E+00  0.00000000000E+00  0.34996269501E-01  0.35000000000E-01  0.51099999109E-03 0. -1.
       11   -1    0    0    0    0 -0.00000000000E+00 -0.00000000000E+00 -0.34996269501E-01  0.35000000000E-01  0.51099999109E-03 0.  1.
       22    1    1    2    0    0 -0.18013001787E-02  0.20796384817E-01  0.14928462973E-01  0.25663072897E-01  0.00000000000E+00 0. -1.
       22    1    1    2    0    0 -0.78795484989E-05  0.37038373908E-03  0.10893184612E-01  0.10899482428E-01  0.00000000000E+00 0. -1.
       22    1    1    2    0    0  0.18091797272E-02 -0.21166768556E-01 -0.25821647585E-01  0.33437444675E-01  0.00000000000E+00 0.  1.
</event>
<event>
 5   0  0.4143600E+04  0.9118800E+02  0.7546771E-02  0.1180000E+00
      -11   -1    0    0    0    0  0.00000000000E+00  0.00000000000E+00  0.34996269501E-01  0.35000000000E-01  0.51099999109E-03 0.  1.
       11   -1    0    0    0    0 -0.00000000000E+00 -0.00000000000E+00 -0.34996269501E-01  0.35000000000E-01  0.51099999109E-03 0. -1.
       22    1    1    2    0    0  0.18040430725E-01  0.26634750121E-01  0.11977706154E-01  0.34326848086E-01  0.00000000000E+00 0.  1.
       22    1    1    2    0    0 -0.15797226826E-01 -0.25392485398E-01 -0.80281466293E-02  0.30964202370E-01  0.00000000000E+00 0. -1.
       22    1    1    2    0    0 -0.22432038991E-02 -0.12422647229E-02 -0.39495595246E-02  0.47089495446E-02  0.00000000000E+00 0. -1.
</event>
<event>
 5   0  0.4143600E+04  0.9118800E+02  0.7546771E-02  0.1180000E+00
      -11   -1    0    0    0    0  0.00000000000E+00  0.00000000000E+00  0.34996269501E-01  0.35000000000E-01  0.51099999109E-03 0.  1.
       11   -1    0    0    0    0 -0.00000000000E+00 -0.00000000000E+00 -0.34996269501E-01  0.35000000000E-01  0.51099999109E-03 0. -1.
       22    1    1    2    0    0  0.10728397744E-01  0.11151739792E-01 -0.31152899115E-01  0.34784521584E-01  0.00000000000E+00 0. -1.
       22    1    1    2    0    0 -0.10825736405E-01 -0.11134765504E-01  0.27662690084E-01  0.31723871048E-01  0.00000000000E+00 0.  1.
       22    1    1    2    0    0  0.97338661356E-04 -0.16974287743E-04  0.34902090305E-02  0.34916073688E-02  0.00000000000E+00 0. -1.
</event>
<event>
 5   0  0.4143600E+04  0.9118800E+02  0.7546771E-02  0.1180000E+00
      -11   -1    0    0    0    0  0.00000000000E+00  0.00000000000E+00  0.34996269501E-01  0.35000000000E-01  0.51099999109E-03 0.  1.
       11   -1    0    0    0    0 -0.00000000000E+00 -0.00000000000E+00 -0.34996269501E-01  0.35000000000E-01  0.51099999109E-03 0. -1.
       22    1    1    2    0    0 -0.67879625704E-04 -0.47982384289E-03  0.13322404506E-01  0.13331215262E-01  0.00000000000E+00 0. -1.
       22    1    1    2    0    0  0.14370214147E-01 -0.45845175040E-02  0.17021407321E-01  0.22743112420E-01  0.00000000000E+00 0.  1.
       22    1    1    2    0    0 -0.14302334521E-01  0.50643413469E-02 -0.30343811826E-01  0.33925672317E-01  0.00000000000E+00 0. -1.
</event>
<event>
 5   0  0.4143600E+04  0.9118800E+02  0.7546771E-02  0.1180000E+00
      -11   -1    0    0    0    0  0.00000000000E+00  0.00000000000E+00  0.34996269501E-01  0.35000000000E-01  0.51099999109E-03 0. -1.
       11   -1    0    0    0    0 -0.00000000000E+00 -0.00000000000E+00 -0.34996269501E-01  0.35000000000E-01  0.51099999109E-03 0.  1.
       22    1    1    2    0    0 -0.33603413089E-03 -0.12490237451E-02  0.30215014831E-01  0.30242686727E-01  0.00000000000E+00 0. -1.
       22    1    1    2    0    0 -0.23721992360E-02  0.11411603843E-01 -0.25876467872E-01  0.28380338634E-01  0.00000000000E+00 0.  1.
       22    1    1    2    0    0  0.27082333669E-02 -0.10162580098E-01 -0.43385469590E-02  0.11376974639E-01  0.00000000000E+00 0. -1.
</event>
<event>
 5   0  0.4143600E+04  0.9118800E+02  0.7546771E-02  0.1180000E+00
      -11   -1    0    0    0    0  0.00000000000E+00  0.00000000000E+00  0.34996269501E-01  0.35000000000E-01  0.51099999109E-03 0.  1.
       11   -1    0    0    0    0 -0.00000000000E+00 -0.00000000000E+00 -0.34996269501E-01  0.35000000000E-01  0.51099999109E-03 0. -1.
       22    1    1    2    0    0 -0.90079820577E-02 -0.17624835080E-01 -0.26779591052E-01  0.33300526261E-01  0.00000000000E+00 0. -1.
       22    1    1    2    0    0  0.84796847209E-02  0.17807021893E-01  0.28630315391E-01  0.34766219827E-01  0.00000000000E+00 0.  1.
       22    1    1    2    0    0  0.52829733682E-03 -0.18218681248E-03 -0.18507243388E-02  0.19332539121E-02  0.00000000000E+00 0. -1.
</event>
<event>
 5   0  0.4143600E+04  0.9118800E+02  0.7546771E-02  0.1180000E+00
      -11   -1    0    0    0    0  0.00000000000E+00  0.00000000000E+00  0.34996269501E-01  0.35000000000E-01  0.51099999109E-03 0.  1.
       11   -1    0    0    0    0 -0.00000000000E+00 -0.00000000000E+00 -0.34996269501E-01  0.35000000000E-01  0.51099999109E-03 0. -1.
       22    1    1    2    0    0 -0.61298970809E-02 -0.12301530068E-01 -0.29104863762E-01  0.32186897564E-01  0.00000000000E+00 0. -1.
       22    1    1    2    0    0  0.22203736362E-03  0.85657040945E-04 -0.29733776799E-02  0.29828866131E-02  0.00000000000E+00 0. -1.
       22    1    1    2    0    0  0.59078597173E-02  0.12215873027E-01  0.32078241442E-01  0.34830215822E-01  0.00000000000E+00 0.  1.
</event>
<event>
 5   0  0.4143600E+04  0.9118800E+02  0.7546771E-02  0.1180000E+00
      -11   -1    0    0    0    0  0.00000000000E+00  0.00000000000E+00  0.34996269501E-01  0.35000000000E-01  0.51099999109E-03 0. -1.
       11   -1    0    0    0    0 -0.00000000000E+00 -0.00000000000E+00 -0.34996269501E-01  0.35000000000E-01  0.51099999109E-03 0.  1.
       22    1    1    2    0    0 -0.20594838533E-01 -0.88603154239E-02  0.24078586487E-02  0.22548843582E-01  0.00000000000E+00 0. -1.
       22    1    1    2    0    0  0.70144894969E-02 -0.20801922342E-03  0.19156566543E-01  0.20401479765E-01  0.00000000000E+00 0. -1.
       22    1    1    2    0    0  0.13580349036E-01  0.90683346473E-02 -0.21564425191E-01  0.27049676653E-01  0.00000000000E+00 0.  1.
</event>
<event>
 5   0  0.4143600E+04  0.9118800E+02  0.7546771E-02  0.1180000E+00
      -11   -1    0    0    0    0  0.00000000000E+00  0.00000000000E+00  0.34996269501E-01  0.35000000000E-01  0.51099999109E-03 0.  1.
       11   -1    0    0    0    0 -0.00000000000E+00 -0.00000000000E+00 -0.34996269501E-01  0.35000000000E-01  0.51099999109E-03 0. -1.
       22    1    1    2    0    0  0.11825993133E-01  0.25484053671E-02 -0.23327908404E-01  0.26278123868E-01  0.00000000000E+00 0.  1.
       22    1    1    2    0    0 -0.73891605633E-02 -0.16829645057E-01  0.22059831710E-01  0.28713634769E-01  0.00000000000E+00 0.  1.
       22    1    1    2    0    0 -0.44368325700E-02  0.14281239690E-01  0.12680766945E-02  0.15008241364E-01  0.00000000000E+00 0. -1.
</event>
<event>
 5   0  0.4143600E+04  0.9118800E+02  0.7546771E-02  0.1180000E+00
      -11   -1    0    0    0    0  0.00000000000E+00  0.00000000000E+00  0.34996269501E-01  0.35000000000E-01  0.51099999109E-03 0. -1.
       11   -1    0    0    0    0 -0.00000000000E+00 -0.00000000000E+00 -0.34996269501E-01  0.35000000000E-01  0.51099999109E-03 0.  1.
       22    1    1    2    0    0  0.21006060660E-02 -0.22285047536E-02 -0.41961072123E-02  0.51948142429E-02  0.00000000000E+00 0. -1.
       22    1    1    2    0    0 -0.17479079887E-01  0.51541709939E-04 -0.25720125239E-01  0.31097358932E-01  0.00000000000E+00 0.  1.
       22    1    1    2    0    0  0.15378473821E-01  0.21769630437E-02  0.29916232451E-01  0.33707826825E-01  0.00000000000E+00 0. -1.
</event>
<event>
 5   0  0.4143600E+04  0.9118800E+02  0.7546771E-02  0.1180000E+00
      -11   -1    0    0    0    0  0.00000000000E+00  0.00000000000E+00  0.34996269501E-01  0.35000000000E-01  0.51099999109E-03 0. -1.
       11   -1    0    0    0    0 -0.00000000000E+00 -0.00000000000E+00 -0.34996269501E-01  0.35000000000E-01  0.51099999109E-03 0.  1.
       22    1    1    2    0    0  0.10557722421E-01 -0.16338650077E-01 -0.27322825487E-01  0.33540330673E-01  0.00000000000E+00 0.  1.
       22    1    1    2    0    0 -0.98387939837E-02  0.14021233851E-01  0.28879330356E-01  0.33576965133E-01  0.00000000000E+00 0. -1.
       22    1    1    2    0    0 -0.71892843709E-03  0.23174162260E-02 -0.15565048685E-02  0.28827041936E-02  0.00000000000E+00 0. -1.
</event>
<event>
 5   0  0.4143600E+04  0.9118800E+02  0.7546771E-02  0.1180000E+00
      -11   -1    0    0    0    0  0.00000000000E+00  0.00000000000E+00  0.34996269501E-01  0.35000000000E-01  0.51099999109E-03 0. -1.
       11   -1    0    0    0    0 -0.00000000000E+00 -0.00000000000E+00 -0.34996269501E-01  0.35000000000E-01  0.51099999109E-03 0.  1.
       22    1    1    2    0    0 -0.26590295907E-02  0.10121788362E-01 -0.29869015972E-01  0.31649315208E-01  0.00000000000E+00 0.  1.
       22    1    1    2    0    0  0.10270513327E-03  0.17028068163E-03 -0.34136113398E-02  0.34193985194E-02  0.00000000000E+00 0.  1.
       22    1    1    2    0    0  0.25563244574E-02 -0.10292069043E-01  0.33282627311E-01  0.34931286273E-01  0.00000000000E+00 0. -1.
</event>
<event>
 5   0  0.4143600E+04  0.9118800E+02  0.7546771E-02  0.1180000E+00
      -11   -1    0    0    0    0  0.00000000000E+00  0.00000000000E+00  0.34996269501E-01  0.35000000000E-01  0.51099999109E-03 0. -1.
       11   -1    0    0    0    0 -0.00000000000E+00 -0.00000000000E+00 -0.34996269501E-01  0.35000000000E-01  0.51099999109E-03 0.  1.
       22    1    1    2    0    0 -0.32915972626E-02  0.15608570968E-01  0.31095640166E-01  0.34948547002E-01  0.00000000000E+00 0. -1.
       22    1    1    2    0    0  0.32605581288E-02 -0.15479091893E-01 -0.29704779708E-01  0.33654233949E-01  0.00000000000E+00 0.  1.
       22    1    1    2    0    0  0.31039133807E-04 -0.12947907450E-03 -0.13908604581E-02  0.13972190496E-02  0.00000000000E+00 0.  1.
</event>
<event>
 5   0  0.4143600E+04  0.9118800E+02  0.7546771E-02  0.1180000E+00
      -11   -1    0    0    0    0  0.00000000000E+00  0.00000000000E+00  0.34996269501E-01  0.35000000000E-01  0.51099999109E-03 0. -1.
       11   -1    0    0    0    0 -0.00000000000E+00 -0.00000000000E+00 -0.34996269501E-01  0.35000000000E-01  0.51099999109E-03 0.  1.
       22    1    1    2    0    0  0.15285148469E-01  0.10417401608E-01  0.29200907559E-01  0.34566617165E-01  0.00000000000E+00 0. -1.
       22    1    1    2    0    0 -0.15159495588E-01 -0.10612400030E-01 -0.24382873227E-01  0.30609767194E-01  0.00000000000E+00 0.  1.
       22    1    1    2    0    0 -0.12565288089E-03  0.19499842153E-03 -0.48180343316E-02  0.48236156409E-02  0.00000000000E+00 0. -1.
</event>
<event>
 5   0  0.4143600E+04  0.9118800E+02  0.7546771E-02  0.1180000E+00
      -11   -1    0    0    0    0  0.00000000000E+00  0.00000000000E+00  0.34996269501E-01  0.35000000000E-01  0.51099999109E-03 0. -1.
       11   -1    0    0    0    0 -0.00000000000E+00 -0.00000000000E+00 -0.34996269501E-01  0.35000000000E-01  0.51099999109E-03 0.  1.
       22    1    1    2    0    0 -0.30907180960E-03 -0.79246252013E-03  0.95283471940E-02  0.95662386798E-02  0.00000000000E+00 0. -1.
       22    1    1    2    0    0  0.80606959087E-02 -0.13475696433E-01  0.20782389566E-01  0.26047589696E-01  0.00000000000E+00 0. -1.
       22    1    1    2    0    0 -0.77516240991E-02  0.14268158953E-01 -0.30310736760E-01  0.34386171625E-01  0.00000000000E+00 0.  1.
</event>
<event>
 5   0  0.4143600E+04  0.9118800E+02  0.7546771E-02  0.1180000E+00
      -11   -1    0    0    0    0  0.00000000000E+00  0.00000000000E+00  0.34996269501E-01  0.35000000000E-01  0.51099999109E-03 0. -1.
       11   -1    0    0    0    0 -0.00000000000E+00 -0.00000000000E+00 -0.34996269501E-01  0.35000000000E-01  0.51099999109E-03 0.  1.
       22    1    1    2    0    0  0.18683754536E-01  0.68926632682E-02 -0.27754959375E-01  0.34160346316E-01  0.00000000000E+00 0. -1.
       22    1    1    2    0    0  0.51445072193E-04 -0.12624077617E-03 -0.91711515967E-03  0.92719121281E-03  0.00000000000E+00 0. -1.
       22    1    1    2    0    0 -0.18735199608E-01 -0.67664224920E-02  0.28672074535E-01  0.34912462472E-01  0.00000000000E+00 0.  1.
</event>
<event>
 5   0  0.4143600E+04  0.9118800E+02  0.7546771E-02  0.1180000E+00
      -11   -1    0    0    0    0  0.00000000000E+00  0.00000000000E+00  0.34996269501E-01  0.35000000000E-01  0.51099999109E-03 0.  1.
       11   -1    0    0    0    0 -0.00000000000E+00 -0.00000000000E+00 -0.34996269501E-01  0.35000000000E-01  0.51099999109E-03 0. -1.
       22    1    1    2    0    0 -0.17919498867E-01  0.10169389615E-02 -0.29306117104E-01  0.34365551127E-01  0.00000000000E+00 0. -1.
       22    1    1    2    0    0 -0.47847768125E-03  0.11063892760E-02  0.46130147812E-02  0.47679076641E-02  0.00000000000E+00 0.  1.
       22    1    1    2    0    0  0.18397976549E-01 -0.21233282374E-02  0.24693102323E-01  0.30866541209E-01  0.00000000000E+00 0.  1.
</event>
<event>
 5   0  0.4143600E+04  0.9118800E+02  0.7546771E-02  0.1180000E+00
      -11   -1    0    0    0    0  0.00000000000E+00  0.00000000000E+00  0.34996269501E-01  0.35000000000E-01  0.51099999109E-03 0. -1.
       11   -1    0    0    0    0 -0.00000000000E+00 -0.00000000000E+00 -0.34996269501E-01  0.35000000000E-01  0.51099999109E-03 0. -1.
       22    1    1    2    0    0  0.26062732148E-04 -0.18408633618E-03 -0.33847092788E-01  0.33847603420E-01  0.00000000000E+00 0. -1.
       22    1    1    2    0    0 -0.35507830907E-03  0.26861483585E-03 -0.11088004927E-02  0.11948527392E-02  0.00000000000E+00 0.  1.
       22    1    1    2    0    0  0.32901557692E-03 -0.84528499679E-04  0.34955893281E-01  0.34957543841E-01  0.00000000000E+00 0. -1.
</event>
<event>
 5   0  0.4143600E+04  0.9118800E+02  0.7546771E-02  0.1180000E+00
      -11   -1    0    0    0    0  0.00000000000E+00  0.00000000000E+00  0.34996269501E-01  0.35000000000E-01  0.51099999109E-03 0.  1.
       11   -1    0    0    0    0 -0.00000000000E+00 -0.00000000000E+00 -0.34996269501E-01  0.35000000000E-01  0.51099999109E-03 0. -1.
       22    1    1    2    0    0 -0.14081819834E-02  0.21734667346E-02 -0.19983144959E-01  0.20150260956E-01  0.00000000000E+00 0. -1.
       22    1    1    2    0    0 -0.59914337567E-02 -0.82662020237E-02 -0.12409136506E-01  0.16069039896E-01  0.00000000000E+00 0. -1.
       22    1    1    2    0    0  0.73996157401E-02  0.60927352891E-02  0.32392281465E-01  0.33780699148E-01  0.00000000000E+00 0.  1.
</event>
<event>
 5   0  0.4143600E+04  0.9118800E+02  0.7546771E-02  0.1180000E+00
      -11   -1    0    0    0    0  0.00000000000E+00  0.00000000000E+00  0.34996269501E-01  0.35000000000E-01  0.51099999109E-03 0.  1.
       11   -1    0    0    0    0 -0.00000000000E+00 -0.00000000000E+00 -0.34996269501E-01  0.35000000000E-01  0.51099999109E-03 0. -1.
       22    1    1    2    0    0 -0.14308456687E-02  0.69877836978E-04 -0.34282380713E-01  0.34312298518E-01  0.00000000000E+00 0. -1.
       22    1    1    2    0    0  0.17661933465E-02  0.23832738180E-03  0.34886016859E-01  0.34931510290E-01  0.00000000000E+00 0.  1.
       22    1    1    2    0    0 -0.33534767779E-03 -0.30820521877E-03 -0.60363614584E-03  0.75619119172E-03  0.00000000000E+00 0. -1.
</event>
<event>
 5   0  0.4143600E+04  0.9118800E+02  0.7546771E-02  0.1180000E+00
      -11   -1    0    0    0    0  0.00000000000E+00  0.00000000000E+00  0.34996269501E-01  0.35000000000E-01  0.51099999109E-03 0.  1.
       11   -1    0    0    0    0 -0.00000000000E+00 -0.00000000000E+00 -0.34996269501E-01  0.35000000000E-01  0.51099999109E-03 0. -1.
       22    1    1    2    0    0  0.38783483579E-03  0.21046910672E-03  0.25004176592E-03  0.50718240253E-03  0.00000000000E+00 0. -1.
       22    1    1    2    0    0  0.11552483510E-01 -0.14583417697E-02 -0.32796766001E-01  0.34802507037E-01  0.00000000000E+00 0. -1.
       22    1    1    2    0    0 -0.11940318346E-01  0.12478726630E-02  0.32546724235E-01  0.34690310560E-01  0.00000000000E+00 0.  1.
</event>
<event>
 5   0  0.4143600E+04  0.9118800E+02  0.7546771E-02  0.1180000E+00
      -11   -1    0    0    0    0  0.00000000000E+00  0.00000000000E+00  0.34996269501E-01  0.35000000000E-01  0.51099999109E-03 0.  1.
       11   -1    0    0    0    0 -0.00000000000E+00 -0.00000000000E+00 -0.34996269501E-01  0.35000000000E-01  0.51099999109E-03 0. -1.
       22    1    1    2    0    0  0.51095623361E-03  0.82876578104E-03  0.17087464431E-01  0.17115179510E-01  0.00000000000E+00 0. -1.
       22    1    1    2    0    0 -0.10903240769E-01 -0.10768333977E-01  0.12638127689E-01  0.19863533104E-01  0.00000000000E+00 0.  1.
       22    1    1    2    0    0  0.10392284535E-01  0.99395681955E-02 -0.29725592119E-01  0.33021287386E-01  0.00000000000E+00 0. -1.
</event>
<event>
 5   0  0.4143600E+04  0.9118800E+02  0.7546771E-02  0.1180000E+00
      -11   -1    0    0    0    0  0.00000000000E+00  0.00000000000E+00  0.34996269501E-01  0.35000000000E-01  0.51099999109E-03 0. -1.
       11   -1    0    0    0    0 -0.00000000000E+00 -0.00000000000E+00 -0.34996269501E-01  0.35000000000E-01  0.51099999109E-03 0.  1.
       22    1    1    2    0    0  0.14814704009E-01  0.34020389641E-02 -0.30038177706E-01  0.33665136920E-01  0.00000000000E+00 0.  1.
       22    1    1    2    0    0 -0.15444761305E-01 -0.30551249588E-02  0.16604538134E-01  0.22881982583E-01  0.00000000000E+00 0. -1.
       22    1    1    2    0    0  0.63005729611E-03 -0.34691400528E-03  0.13433639571E-01  0.13452880497E-01  0.00000000000E+00 0. -1.
</event>
<event>
 5   0  0.4143600E+04  0.9118800E+02  0.7546771E-02  0.1180000E+00
      -11   -1    0    0    0    0  0.00000000000E+00  0.00000000000E+00  0.34996269501E-01  0.35000000000E-01  0.51099999109E-03 0. -1.
       11   -1    0    0    0    0 -0.00000000000E+00 -0.00000000000E+00 -0.34996269501E-01  0.35000000000E-01  0.51099999109E-03 0.  1.
       22    1    1    2    0    0 -0.00000000000E+00  0.00000000000E+00  0.34887706171E-01  0.34885413229E-01  0.00000000000E+00 0. -1.
       22    1    1    2    0    0  0.91547269326E-03  0.62022536644E-03 -0.32049574070E-01  0.32068644621E-01  0.00000000000E+00 0.  1.
       22    1    1    2    0    0 -0.91547269326E-03 -0.62022536644E-03 -0.28381321012E-02  0.30459421500E-02  0.00000000000E+00 0. -1.
</event>
<event>
 5   0  0.4143600E+04  0.9118800E+02  0.7546771E-02  0.1180000E+00
      -11   -1    0    0    0    0  0.00000000000E+00  0.00000000000E+00  0.34996269501E-01  0.35000000000E-01  0.51099999109E-03 0.  1.
       11   -1    0    0    0    0 -0.00000000000E+00 -0.00000000000E+00 -0.34996269501E-01  0.35000000000E-01  0.51099999109E-03 0. -1.
       22    1    1    2    0    0 -0.50559363216E-02  0.23793834229E-01 -0.25095113269E-01  0.34949588687E-01  0.00000000000E+00 0. -1.
       22    1    1    2    0    0  0.50926071537E-02 -0.23795513000E-01  0.24770572028E-01  0.34723800557E-01  0.00000000000E+00 0.  1.
       22    1    1    2    0    0 -0.36670832100E-04  0.16787702231E-05  0.32454124146E-03  0.32661075549E-03  0.00000000000E+00 0.  1.
</event>
<event>
 5   0  0.4143600E+04  0.9118800E+02  0.7546771E-02  0.1180000E+00
      -11   -1    0    0    0    0  0.00000000000E+00  0.00000000000E+00  0.34996269501E-01  0.35000000000E-01  0.51099999109E-03 0.  1.
       11   -1    0    0    0    0 -0.00000000000E+00 -0.00000000000E+00 -0.34996269501E-01  0.35000000000E-01  0.51099999109E-03 0. -1.
       22    1    1    2    0    0 -0.23071254726E-03  0.54790141747E-03  0.15657004842E-02  0.16747663267E-02  0.00000000000E+00 0. -1.
       22    1    1    2    0    0 -0.43172404512E-02  0.19992508803E-01  0.26358354266E-01  0.33363180498E-01  0.00000000000E+00 0.  1.
       22    1    1    2    0    0  0.45479529985E-02 -0.20540410220E-01 -0.27924054751E-01  0.34962053175E-01  0.00000000000E+00 0. -1.
</event>
<event>
 5   0  0.4143600E+04  0.9118800E+02  0.7546771E-02  0.1180000E+00
      -11   -1    0    0    0    0  0.00000000000E+00  0.00000000000E+00  0.34996269501E-01  0.35000000000E-01  0.51099999109E-03 0.  1.
       11   -1    0    0    0    0 -0.00000000000E+00 -0.00000000000E+00 -0.34996269501E-01  0.35000000000E-01  0.51099999109E-03 0. -1.
       22    1    1    2    0    0  0.59068949480E-03 -0.54720782335E-03 -0.42588454206E-03  0.91089413456E-03  0.00000000000E+00 0. -1.
       22    1    1    2    0    0 -0.17128526991E-01 -0.12848255438E-01 -0.26945771343E-01  0.34417127974E-01  0.00000000000E+00 0. -1.
       22    1    1    2    0    0  0.16537837496E-01  0.13395463261E-01  0.27371655885E-01  0.34671977892E-01  0.00000000000E+00 0.  1.
</event>
<event>
 5   0  0.4143600E+04  0.9118800E+02  0.7546771E-02  0.1180000E+00
      -11   -1    0    0    0    0  0.00000000000E+00  0.00000000000E+00  0.34996269501E-01  0.35000000000E-01  0.51099999109E-03 0. -1.
       11   -1    0    0    0    0 -0.00000000000E+00 -0.00000000000E+00 -0.34996269501E-01  0.35000000000E-01  0.51099999109E-03 0.  1.
       22    1    1    2    0    0  0.19117335275E-02 -0.35897366331E-03 -0.24922494925E-02  0.31614703389E-02  0.00000000000E+00 0.  1.
       22    1    1    2    0    0 -0.68831337337E-02 -0.13874918445E-01 -0.28464437315E-01  0.32405479220E-01  0.00000000000E+00 0.  1.
       22    1    1    2    0    0  0.49714002063E-02  0.14233892109E-01  0.30956686807E-01  0.34433050441E-01  0.00000000000E+00 0. -1.
</event>
<event>
 5   0  0.4143600E+04  0.9118800E+02  0.7546771E-02  0.1180000E+00
      -11   -1    0    0    0    0  0.00000000000E+00  0.00000000000E+00  0.34996269501E-01  0.35000000000E-01  0.51099999109E-03 0.  1.
       11   -1    0    0    0    0 -0.00000000000E+00 -0.00000000000E+00 -0.34996269501E-01  0.35000000000E-01  0.51099999109E-03 0. -1.
       22    1    1    2    0    0 -0.11847156145E-01  0.12521336944E-01 -0.23678682613E-01  0.29288547214E-01  0.00000000000E+00 0. -1.
       22    1    1    2    0    0 -0.81839308888E-03  0.13557778020E-02 -0.56573319122E-02  0.58748025551E-02  0.00000000000E+00 0. -1.
       22    1    1    2    0    0  0.12665549234E-01 -0.13877114746E-01  0.29336014526E-01  0.34836650231E-01  0.00000000000E+00 0.  1.
</event>
<event>
 5   0  0.4143600E+04  0.9118800E+02  0.7546771E-02  0.1180000E+00
      -11   -1    0    0    0    0  0.00000000000E+00  0.00000000000E+00  0.34996269501E-01  0.35000000000E-01  0.51099999109E-03 0.  1.
       11   -1    0    0    0    0 -0.00000000000E+00 -0.00000000000E+00 -0.34996269501E-01  0.35000000000E-01  0.51099999109E-03 0. -1.
       22    1    1    2    0    0 -0.19752651730E-03  0.33337138973E-02 -0.33853695063E-01  0.34018014852E-01  0.00000000000E+00 0. -1.
       22    1    1    2    0    0  0.15906814841E-03 -0.47560253118E-03 -0.94301517177E-03  0.10680721219E-02  0.00000000000E+00 0. -1.
       22    1    1    2    0    0  0.38458368895E-04 -0.28581113661E-02  0.34796710235E-01  0.34913913026E-01  0.00000000000E+00 0.  1.
</event>
<event>
 5   0  0.4143600E+04  0.9118800E+02  0.7546771E-02  0.1180000E+00
      -11   -1    0    0    0    0  0.00000000000E+00  0.00000000000E+00  0.34996269501E-01  0.35000000000E-01  0.51099999109E-03 0. -1.
       11   -1    0    0    0    0 -0.00000000000E+00 -0.00000000000E+00 -0.34996269501E-01  0.35000000000E-01  0.51099999109E-03 0.  1.
       22    1    1    2    0    0  0.93488399764E-02  0.74699033242E-02 -0.15199799061E-01  0.19345132619E-01  0.00000000000E+00 0.  1.
       22    1    1    2    0    0 -0.83362865405E-02 -0.79983890271E-02 -0.15833700450E-01  0.19600356380E-01  0.00000000000E+00 0. -1.
       22    1    1    2    0    0 -0.10125534358E-02  0.52848570286E-03  0.31033499510E-01  0.31054511000E-01  0.00000000000E+00 0. -1.
</event>
<event>
 5   0  0.4143600E+04  0.9118800E+02  0.7546771E-02  0.1180000E+00
      -11   -1    0    0    0    0  0.00000000000E+00  0.00000000000E+00  0.34996269501E-01  0.35000000000E-01  0.51099999109E-03 0.  1.
       11   -1    0    0    0    0 -0.00000000000E+00 -0.00000000000E+00 -0.34996269501E-01  0.35000000000E-01  0.51099999109E-03 0. -1.
       22    1    1    2    0    0  0.99637528953E-03 -0.95336838810E-02 -0.19442030977E-01  0.21676633977E-01  0.00000000000E+00 0. -1.
       22    1    1    2    0    0  0.51131993890E-03  0.11088011500E-01  0.32884662257E-01  0.34707440973E-01  0.00000000000E+00 0.  1.
       22    1    1    2    0    0 -0.15076952284E-02 -0.15543276191E-02 -0.13442631280E-01  0.13615925051E-01  0.00000000000E+00 0. -1.
</event>
<event>
 5   0  0.4143600E+04  0.9118800E+02  0.7546771E-02  0.1180000E+00
      -11   -1    0    0    0    0  0.00000000000E+00  0.00000000000E+00  0.34996269501E-01  0.35000000000E-01  0.51099999109E-03 0.  1.
       11   -1    0    0    0    0 -0.00000000000E+00 -0.00000000000E+00 -0.34996269501E-01  0.35000000000E-01  0.51099999109E-03 0. -1.
       22    1    1    2    0    0  0.15700870513E-02  0.67528914374E-02 -0.13665011359E-01  0.15323160625E-01  0.00000000000E+00 0. -1.
       22    1    1    2    0    0  0.52072220813E-02  0.17358976903E-02 -0.19249218686E-01  0.20016516246E-01  0.00000000000E+00 0. -1.
       22    1    1    2    0    0 -0.67773091326E-02 -0.84887891277E-02  0.32914230045E-01  0.34660323129E-01  0.00000000000E+00 0.  1.
</event>
<event>
 5   0  0.4143600E+04  0.9118800E+02  0.7546771E-02  0.1180000E+00
      -11   -1    0    0    0    0  0.00000000000E+00  0.00000000000E+00  0.34996269501E-01  0.35000000000E-01  0.51099999109E-03 0. -1.
       11   -1    0    0    0    0 -0.00000000000E+00 -0.00000000000E+00 -0.34996269501E-01  0.35000000000E-01  0.51099999109E-03 0.  1.
       22    1    1    2    0    0 -0.35908778812E-03 -0.23246063461E-03  0.14055966173E-02  0.14692460096E-02  0.00000000000E+00 0.  1.
       22    1    1    2    0    0  0.16443510250E-01 -0.17007279555E-02 -0.30806677862E-01  0.34961877893E-01  0.00000000000E+00 0.  1.
       22    1    1    2    0    0 -0.16084422461E-01  0.19331885902E-02  0.29401081245E-01  0.33568876097E-01  0.00000000000E+00 0. -1.
</event>
<event>
 5   0  0.4143600E+04  0.9118800E+02  0.7546771E-02  0.1180000E+00
      -11   -1    0    0    0    0  0.00000000000E+00  0.00000000000E+00  0.34996269501E-01  0.35000000000E-01  0.51099999109E-03 0. -1.
       11   -1    0    0    0    0 -0.00000000000E+00 -0.00000000000E+00 -0.34996269501E-01  0.35000000000E-01  0.51099999109E-03 0.  1.
       22    1    1    2    0    0  0.16219446775E-02  0.16333684314E-01 -0.30888108640E-01  0.34978496296E-01  0.00000000000E+00 0.  1.
       22    1    1    2    0    0 -0.16153301278E-02 -0.16346237671E-01  0.30573660397E-01  0.34706735478E-01  0.00000000000E+00 0. -1.
       22    1    1    2    0    0 -0.66145497810E-05  0.12553357077E-04  0.31444824242E-03  0.31476822616E-03  0.00000000000E+00 0. -1.
</event>
<event>
 5   0  0.4143600E+04  0.9118800E+02  0.7546771E-02  0.1180000E+00
      -11   -1    0    0    0    0  0.00000000000E+00  0.00000000000E+00  0.34996269501E-01  0.35000000000E-01  0.51099999109E-03 0.  1.
       11   -1    0    0    0    0 -0.00000000000E+00 -0.00000000000E+00 -0.34996269501E-01  0.35000000000E-01  0.51099999109E-03 0. -1.
       22    1    1    2    0    0 -0.86454160525E-02  0.12343124907E-01  0.31045758020E-01  0.34509926720E-01  0.00000000000E+00 0.  1.
       22    1    1    2    0    0  0.86246326879E-02 -0.12349718351E-01 -0.31562578953E-01  0.34972792604E-01  0.00000000000E+00 0. -1.
       22    1    1    2    0    0  0.20783364556E-04  0.65934444546E-05  0.51682093278E-03  0.51728067653E-03  0.00000000000E+00 0.  1.
</event>
<event>
 5   0  0.4143600E+04  0.9118800E+02  0.7546771E-02  0.1180000E+00
      -11   -1    0    0    0    0  0.00000000000E+00  0.00000000000E+00  0.34996269501E-01  0.35000000000E-01  0.51099999109E-03 0.  1.
       11   -1    0    0    0    0 -0.00000000000E+00 -0.00000000000E+00 -0.34996269501E-01  0.35000000000E-01  0.51099999109E-03 0. -1.
       22    1    1    2    0    0 -0.10675703603E-01  0.75382937238E-02 -0.93330152827E-02  0.16059317979E-01  0.00000000000E+00 0.  1.
       22    1    1    2    0    0  0.23167204916E-02  0.17789039067E-02  0.29803582493E-01  0.29946372441E-01  0.00000000000E+00 0.  1.
       22    1    1    2    0    0  0.83589831112E-02 -0.93171976306E-02 -0.20470567210E-01  0.23994309580E-01  0.00000000000E+00 0. -1.
</event>
<event>
 5   0  0.4143600E+04  0.9118800E+02  0.7546771E-02  0.1180000E+00
      -11   -1    0    0    0    0  0.00000000000E+00  0.00000000000E+00  0.34996269501E-01  0.35000000000E-01  0.51099999109E-03 0.  1.
       11   -1    0    0    0    0 -0.00000000000E+00 -0.00000000000E+00 -0.34996269501E-01  0.35000000000E-01  0.51099999109E-03 0. -1.
       22    1    1    2    0    0 -0.34043454975E-02 -0.11958176446E-01  0.32669796999E-01  0.34955731835E-01  0.00000000000E+00 0.  1.
       22    1    1    2    0    0  0.36520911626E-02  0.11844626958E-01 -0.32165628024E-01  0.34471155824E-01  0.00000000000E+00 0. -1.
       22    1    1    2    0    0 -0.24774566512E-03  0.11354948813E-03 -0.50416897440E-03  0.57311234116E-03  0.00000000000E+00 0.  1.
</event>
<event>
 5   0  0.4143600E+04  0.9118800E+02  0.7546771E-02  0.1180000E+00
      -11   -1    0    0    0    0  0.00000000000E+00  0.00000000000E+00  0.34996269501E-01  0.35000000000E-01  0.51099999109E-03 0. -1.
       11   -1    0    0    0    0 -0.00000000000E+00 -0.00000000000E+00 -0.34996269501E-01  0.35000000000E-01  0.51099999109E-03 0.  1.
       22    1    1    2    0    0 -0.34050758883E-03  0.31887759251E-03  0.34923897185E-01  0.34927012797E-01  0.00000000000E+00 0. -1.
       22    1    1    2    0    0 -0.33731036107E-03  0.21847570167E-03 -0.51514079858E-03  0.65336050866E-03  0.00000000000E+00 0. -1.
       22    1    1    2    0    0  0.67781794990E-03 -0.53735329418E-03 -0.34408756386E-01  0.34419626694E-01  0.00000000000E+00 0.  1.
</event>
<event>
 5   0  0.4143600E+04  0.9118800E+02  0.7546771E-02  0.1180000E+00
      -11   -1    0    0    0    0  0.00000000000E+00  0.00000000000E+00  0.34996269501E-01  0.35000000000E-01  0.51099999109E-03 0. -1.
       11   -1    0    0    0    0 -0.00000000000E+00 -0.00000000000E+00 -0.34996269501E-01  0.35000000000E-01  0.51099999109E-03 0.  1.
       22    1    1    2    0    0  0.80717676910E-02  0.60765799033E-03  0.33998288244E-01  0.34948623512E-01  0.00000000000E+00 0. -1.
       22    1    1    2    0    0 -0.82624499720E-02 -0.54696418949E-03 -0.33604310580E-01  0.34609492035E-01  0.00000000000E+00 0.  1.
       22    1    1    2    0    0  0.19068228101E-03 -0.60693800848E-04 -0.39397766413E-03  0.44188445275E-03  0.00000000000E+00 0.  1.
</event>
<event>
 5   0  0.4143600E+04  0.9118800E+02  0.7546771E-02  0.1180000E+00
      -11   -1    0    0    0    0  0.00000000000E+00  0.00000000000E+00  0.34996269501E-01  0.35000000000E-01  0.51099999109E-03 0.  1.
       11   -1    0    0    0    0 -0.00000000000E+00 -0.00000000000E+00 -0.34996269501E-01  0.35000000000E-01  0.51099999109E-03 0. -1.
       22    1    1    2    0    0 -0.56595039431E-03  0.21333357766E-03 -0.14479382449E-02  0.15691832988E-02  0.00000000000E+00 0. -1.
       22    1    1    2    0    0 -0.21791233603E-03 -0.89817270072E-03 -0.33477307757E-01  0.33490063222E-01  0.00000000000E+00 0. -1.
       22    1    1    2    0    0  0.78386273034E-03  0.68483912306E-03  0.34925246002E-01  0.34940753479E-01  0.00000000000E+00 0.  1.
</event>
<event>
 5   0  0.4143600E+04  0.9118800E+02  0.7546771E-02  0.1180000E+00
      -11   -1    0    0    0    0  0.00000000000E+00  0.00000000000E+00  0.34996269501E-01  0.35000000000E-01  0.51099999109E-03 0. -1.
       11   -1    0    0    0    0 -0.00000000000E+00 -0.00000000000E+00 -0.34996269501E-01  0.35000000000E-01  0.51099999109E-03 0.  1.
       22    1    1    2    0    0  0.25977539996E-02 -0.35849718029E-02  0.29342488271E-01  0.29674601372E-01  0.00000000000E+00 0. -1.
       22    1    1    2    0    0  0.12150718693E-01 -0.10649996243E-02 -0.12957087895E-01  0.17794951972E-01  0.00000000000E+00 0.  1.
       22    1    1    2    0    0 -0.14748472693E-01  0.46499714272E-02 -0.16385400376E-01  0.22530446656E-01  0.00000000000E+00 0. -1.
</event>
<event>
 5   0  0.4143600E+04  0.9118800E+02  0.7546771E-02  0.1180000E+00
      -11   -1    0    0    0    0  0.00000000000E+00  0.00000000000E+00  0.34996269501E-01  0.35000000000E-01  0.51099999109E-03 0.  1.
       11   -1    0    0    0    0 -0.00000000000E+00 -0.00000000000E+00 -0.34996269501E-01  0.35000000000E-01  0.51099999109E-03 0. -1.
       22    1    1    2    0    0 -0.10552559692E-01  0.89067009203E-02 -0.31334691671E-01  0.34242499025E-01  0.00000000000E+00 0. -1.
       22    1    1    2    0    0  0.10307228042E-01 -0.82031120154E-02  0.32094832474E-01  0.34693057925E-01  0.00000000000E+00 0.  1.
       22    1    1    2    0    0  0.24533165022E-03 -0.70358890488E-03 -0.76014080311E-03  0.10644430498E-02  0.00000000000E+00 0.  1.
</event>
<event>
 5   0  0.4143600E+04  0.9118800E+02  0.7546771E-02  0.1180000E+00
      -11   -1    0    0    0    0  0.00000000000E+00  0.00000000000E+00  0.34996269501E-01  0.35000000000E-01  0.51099999109E-03 0. -1.
       11   -1    0    0    0    0 -0.00000000000E+00 -0.00000000000E+00 -0.34996269501E-01  0.35000000000E-01  0.51099999109E-03 0.  1.
       22    1    1    2    0    0  0.83523639679E-02  0.35427243920E-02  0.33432995592E-01  0.34642143037E-01  0.00000000000E+00 0. -1.
       22    1    1    2    0    0 -0.92504873778E-02 -0.27133350812E-02 -0.24283280348E-01  0.26126833112E-01  0.00000000000E+00 0.  1.
       22    1    1    2    0    0  0.89812340996E-03 -0.82938931083E-03 -0.91497152438E-02  0.92310238507E-02  0.00000000000E+00 0.  1.
</event>
<event>
 5   0  0.4143600E+04  0.9118800E+02  0.7546771E-02  0.1180000E+00
      -11   -1    0    0    0    0  0.00000000000E+00  0.00000000000E+00  0.34996269501E-01  0.35000000000E-01  0.51099999109E-03 0. -1.
       11   -1    0    0    0    0 -0.00000000000E+00 -0.00000000000E+00 -0.34996269501E-01  0.35000000000E-01  0.51099999109E-03 0.  1.
       22    1    1    2    0    0 -0.23144236980E-02 -0.20405136534E-02  0.11221241238E-01  0.11637719190E-01  0.00000000000E+00 0. -1.
       22    1    1    2    0    0  0.90298991661E-02  0.75632180966E-02 -0.32932057972E-01  0.34975159602E-01  0.00000000000E+00 0.  1.
       22    1    1    2    0    0 -0.67154754681E-02 -0.55227044432E-02  0.21710816735E-01  0.23387121208E-01  0.00000000000E+00 0. -1.
</event>
<event>
 5   0  0.4143600E+04  0.9118800E+02  0.7546771E-02  0.1180000E+00
      -11   -1    0    0    0    0  0.00000000000E+00  0.00000000000E+00  0.34996269501E-01  0.35000000000E-01  0.51099999109E-03 0.  1.
       11   -1    0    0    0    0 -0.00000000000E+00 -0.00000000000E+00 -0.34996269501E-01  0.35000000000E-01  0.51099999109E-03 0. -1.
       22    1    1    2    0    0  0.20274268467E-01  0.12819487168E-01  0.25403382654E-01  0.34938761618E-01  0.00000000000E+00 0.  1.
       22    1    1    2    0    0 -0.20125106191E-01 -0.12925207654E-01 -0.24904522915E-01  0.34529931273E-01  0.00000000000E+00 0. -1.
       22    1    1    2    0    0 -0.14916227658E-03  0.10572048569E-03 -0.49885973857E-03  0.53130710951E-03  0.00000000000E+00 0.  1.
</event>
<event>
 5   0  0.4143600E+04  0.9118800E+02  0.7546771E-02  0.1180000E+00
      -11   -1    0    0    0    0  0.00000000000E+00  0.00000000000E+00  0.34996269501E-01  0.35000000000E-01  0.51099999109E-03 0. -1.
       11   -1    0    0    0    0 -0.00000000000E+00 -0.00000000000E+00 -0.34996269501E-01  0.35000000000E-01  0.51099999109E-03 0.  1.
       22    1    1    2    0    0 -0.93421458216E-04  0.20218447669E-04 -0.46187651272E-03  0.47166329885E-03  0.00000000000E+00 0. -1.
       22    1    1    2    0    0 -0.12482805505E-01 -0.20955457387E-01 -0.24524386236E-01  0.34588974368E-01  0.00000000000E+00 0.  1.
       22    1    1    2    0    0  0.12576226963E-01  0.20935238939E-01  0.24986262749E-01  0.34939362333E-01  0.00000000000E+00 0. -1.
</event>
<event>
 5   0  0.4143600E+04  0.9118800E+02  0.7546771E-02  0.1180000E+00
      -11   -1    0    0    0    0  0.00000000000E+00  0.00000000000E+00  0.34996269501E-01  0.35000000000E-01  0.51099999109E-03 0.  1.
       11   -1    0    0    0    0 -0.00000000000E+00 -0.00000000000E+00 -0.34996269501E-01  0.35000000000E-01  0.51099999109E-03 0. -1.
       22    1    1    2    0    0 -0.13259912608E-03 -0.55032500239E-03  0.12454615255E-01  0.12467472931E-01  0.00000000000E+00 0.  1.
       22    1    1    2    0    0 -0.14350236167E-01  0.31449935708E-02  0.18283547581E-01  0.23454389243E-01  0.00000000000E+00 0.  1.
       22    1    1    2    0    0  0.14482835293E-01 -0.25946685684E-02 -0.30738162836E-01  0.34078137826E-01  0.00000000000E+00 0. -1.
</event>
<event>
 5   0  0.4143600E+04  0.9118800E+02  0.7546771E-02  0.1180000E+00
      -11   -1    0    0    0    0  0.00000000000E+00  0.00000000000E+00  0.34996269501E-01  0.35000000000E-01  0.51099999109E-03 0.  1.
       11   -1    0    0    0    0 -0.00000000000E+00 -0.00000000000E+00 -0.34996269501E-01  0.35000000000E-01  0.51099999109E-03 0. -1.
       22    1    1    2    0    0 -0.55108645455E-02  0.10792553928E-01  0.32753111352E-01  0.34922988869E-01  0.00000000000E+00 0.  1.
       22    1    1    2    0    0 -0.14375081403E-03  0.13868178129E-03 -0.23828807282E-03  0.31093108343E-03  0.00000000000E+00 0.  1.
       22    1    1    2    0    0  0.56546153595E-02 -0.10931235709E-01 -0.32514823279E-01  0.34766080047E-01  0.00000000000E+00 0. -1.
</event>
<event>
 5   0  0.4143600E+04  0.9118800E+02  0.7546771E-02  0.1180000E+00
      -11   -1    0    0    0    0  0.00000000000E+00  0.00000000000E+00  0.34996269501E-01  0.35000000000E-01  0.51099999109E-03 0. -1.
       11   -1    0    0    0    0 -0.00000000000E+00 -0.00000000000E+00 -0.34996269501E-01  0.35000000000E-01  0.51099999109E-03 0.  1.
       22    1    1    2    0    0  0.42314816884E-02 -0.86877743523E-02  0.33340664749E-01  0.34712861973E-01  0.00000000000E+00 0. -1.
       22    1    1    2    0    0 -0.52798515038E-02  0.88295747048E-02 -0.31763744341E-01  0.33388226606E-01  0.00000000000E+00 0.  1.
       22    1    1    2    0    0  0.10483698153E-02 -0.14180035249E-03 -0.15769204082E-02  0.18989114207E-02  0.00000000000E+00 0. -1.
</event>
<event>
 5   0  0.4143600E+04  0.9118800E+02  0.7546771E-02  0.1180000E+00
      -11   -1    0    0    0    0  0.00000000000E+00  0.00000000000E+00  0.34996269501E-01  0.35000000000E-01  0.51099999109E-03 0.  1.
       11   -1    0    0    0    0 -0.00000000000E+00 -0.00000000000E+00 -0.34996269501E-01  0.35000000000E-01  0.51099999109E-03 0. -1.
       22    1    1    2    0    0  0.13079881048E-01 -0.35775197509E-02 -0.32207377558E-01  0.34945630699E-01  0.00000000000E+00 0. -1.
       22    1    1    2    0    0  0.98854887622E-04 -0.41449700486E-04  0.73477877857E-03  0.74255654324E-03  0.00000000000E+00 0.  1.
       22    1    1    2    0    0 -0.13178735936E-01  0.36189694513E-02  0.31472598780E-01  0.34311812757E-01  0.00000000000E+00 0.  1.
</event>
<event>
 5   0  0.4143600E+04  0.9118800E+02  0.7546771E-02  0.1180000E+00
      -11   -1    0    0    0    0  0.00000000000E+00  0.00000000000E+00  0.34996269501E-01  0.35000000000E-01  0.51099999109E-03 0.  1.
       11   -1    0    0    0    0 -0.00000000000E+00 -0.00000000000E+00 -0.34996269501E-01  0.35000000000E-01  0.51099999109E-03 0. -1.
       22    1    1    2    0    0  0.29538182891E-03 -0.27783745321E-03 -0.91524739019E-03  0.10010603681E-02  0.00000000000E+00 0.  1.
       22    1    1    2    0    0 -0.81774613070E-03  0.10454787419E-02 -0.34022737802E-01  0.34048618505E-01  0.00000000000E+00 0. -1.
       22    1    1    2    0    0  0.52236430179E-03 -0.76764128868E-03  0.34937985192E-01  0.34950321127E-01  0.00000000000E+00 0.  1.
</event>
<event>
 5   0  0.4143600E+04  0.9118800E+02  0.7546771E-02  0.1180000E+00
      -11   -1    0    0    0    0  0.00000000000E+00  0.00000000000E+00  0.34996269501E-01  0.35000000000E-01  0.51099999109E-03 0.  1.
       11   -1    0    0    0    0 -0.00000000000E+00 -0.00000000000E+00 -0.34996269501E-01  0.35000000000E-01  0.51099999109E-03 0. -1.
       22    1    1    2    0    0  0.43986741481E-04  0.24323060962E-04  0.65949741890E-03  0.66141007723E-03  0.00000000000E+00 0. -1.
       22    1    1    2    0    0 -0.37651816422E-02  0.17207149639E-01 -0.30186290440E-01  0.34949602601E-01  0.00000000000E+00 0. -1.
       22    1    1    2    0    0  0.37211949008E-02 -0.17231472700E-01  0.29526793021E-01  0.34388987321E-01  0.00000000000E+00 0.  1.
</event>
<event>
 5   0  0.4143600E+04  0.9118800E+02  0.7546771E-02  0.1180000E+00
      -11   -1    0    0    0    0  0.00000000000E+00  0.00000000000E+00  0.34996269501E-01  0.35000000000E-01  0.51099999109E-03 0. -1.
       11   -1    0    0    0    0 -0.00000000000E+00 -0.00000000000E+00 -0.34996269501E-01  0.35000000000E-01  0.51099999109E-03 0.  1.
       22    1    1    2    0    0  0.20090369024E-01 -0.30784308539E-02 -0.27791467330E-01  0.34430586989E-01  0.00000000000E+00 0.  1.
       22    1    1    2    0    0  0.15083521110E-03 -0.45599124070E-03  0.44359645875E-02  0.44618898568E-02  0.00000000000E+00 0. -1.
       22    1    1    2    0    0 -0.20241204235E-01  0.35344220946E-02  0.23355502743E-01  0.31107523154E-01  0.00000000000E+00 0. -1.
</event>
<event>
 5   0  0.4143600E+04  0.9118800E+02  0.7546771E-02  0.1180000E+00
      -11   -1    0    0    0    0  0.00000000000E+00  0.00000000000E+00  0.34996269501E-01  0.35000000000E-01  0.51099999109E-03 0.  1.
       11   -1    0    0    0    0 -0.00000000000E+00 -0.00000000000E+00 -0.34996269501E-01  0.35000000000E-01  0.51099999109E-03 0.  1.
       22    1    1    2    0    0 -0.96144330678E-04  0.11090471649E-03 -0.33977096170E-01  0.33977413200E-01  0.00000000000E+00 0.  1.
       22    1    1    2    0    0 -0.96101011991E-04  0.32952219239E-03 -0.99224784912E-03  0.10499409859E-02  0.00000000000E+00 0. -1.
       22    1    1    2    0    0  0.19224534267E-03 -0.44042690889E-03  0.34969344019E-01  0.34972645814E-01  0.00000000000E+00 0.  1.
</event>
<event>
 5   0  0.4143600E+04  0.9118800E+02  0.7546771E-02  0.1180000E+00
      -11   -1    0    0    0    0  0.00000000000E+00  0.00000000000E+00  0.34996269501E-01  0.35000000000E-01  0.51099999109E-03 0.  1.
       11   -1    0    0    0    0 -0.00000000000E+00 -0.00000000000E+00 -0.34996269501E-01  0.35000000000E-01  0.51099999109E-03 0. -1.
       22    1    1    2    0    0 -0.27372931951E-04  0.67870706143E-04 -0.95659645562E-03  0.95939172868E-03  0.00000000000E+00 0.  1.
       22    1    1    2    0    0 -0.32118184252E-02 -0.16779325056E-01  0.30491547319E-01  0.34951337383E-01  0.00000000000E+00 0.  1.
       22    1    1    2    0    0  0.32391913571E-02  0.16711454350E-01 -0.29534950864E-01  0.34089270888E-01  0.00000000000E+00 0. -1.
</event>
<event>
 5   0  0.4143600E+04  0.9118800E+02  0.7546771E-02  0.1180000E+00
      -11   -1    0    0    0    0  0.00000000000E+00  0.00000000000E+00  0.34996269501E-01  0.35000000000E-01  0.51099999109E-03 0. -1.
       11   -1    0    0    0    0 -0.00000000000E+00 -0.00000000000E+00 -0.34996269501E-01  0.35000000000E-01  0.51099999109E-03 0. -1.
       22    1    1    2    0    0  0.71167199068E-04  0.74072941973E-04 -0.28895694620E-03  0.30667195456E-03  0.00000000000E+00 0. -1.
       22    1    1    2    0    0 -0.71167199068E-04 -0.74072941973E-04 -0.34703025988E-01  0.34703178014E-01  0.00000000000E+00 0. -1.
       22    1    1    2    0    0  0.00000000000E+00 -0.00000000000E+00  0.34991982934E-01  0.34990150031E-01  0.00000000000E+00 0. -1.
</event>
<event>
 5   0  0.4143600E+04  0.9118800E+02  0.7546771E-02  0.1180000E+00
      -11   -1    0    0    0    0  0.00000000000E+00  0.00000000000E+00  0.34996269501E-01  0.35000000000E-01  0.51099999109E-03 0. -1.
       11   -1    0    0    0    0 -0.00000000000E+00 -0.00000000000E+00 -0.34996269501E-01  0.35000000000E-01  0.51099999109E-03 0.  1.
       22    1    1    2    0    0 -0.52083708634E-03 -0.24126177215E-02 -0.27808690984E-01  0.27918010133E-01  0.00000000000E+00 0.  1.
       22    1    1    2    0    0  0.37376073404E-02  0.77780583581E-03 -0.65246898917E-02  0.75595151123E-02  0.00000000000E+00 0. -1.
       22    1    1    2    0    0 -0.32167702541E-02  0.16348118857E-02  0.34333380876E-01  0.34522474754E-01  0.00000000000E+00 0. -1.
</event>
<event>
 5   0  0.4143600E+04  0.9118800E+02  0.7546771E-02  0.1180000E+00
      -11   -1    0    0    0    0  0.00000000000E+00  0.00000000000E+00  0.34996269501E-01  0.35000000000E-01  0.51099999109E-03 0.  1.
       11   -1    0    0    0    0 -0.00000000000E+00 -0.00000000000E+00 -0.34996269501E-01  0.35000000000E-01  0.51099999109E-03 0. -1.
       22    1    1    2    0    0 -0.14955176857E-01 -0.64945238874E-02  0.21856955205E-01  0.27268345131E-01  0.00000000000E+00 0.  1.
       22    1    1    2    0    0  0.12566335866E-01 -0.42812322758E-04 -0.29697920211E-01  0.32247187394E-01  0.00000000000E+00 0. -1.
       22    1    1    2    0    0  0.23888409915E-02  0.65373362102E-02  0.78409650063E-02  0.10484467475E-01  0.00000000000E+00 0.  1.
</event>
<event>
 5   0  0.4143600E+04  0.9118800E+02  0.7546771E-02  0.1180000E+00
      -11   -1    0    0    0    0  0.00000000000E+00  0.00000000000E+00  0.34996269501E-01  0.35000000000E-01  0.51099999109E-03 0.  1.
       11   -1    0    0    0    0 -0.00000000000E+00 -0.00000000000E+00 -0.34996269501E-01  0.35000000000E-01  0.51099999109E-03 0. -1.
       22    1    1    2    0    0  0.13271010425E-02  0.18310178569E-02  0.21835572257E-01  0.21952358401E-01  0.00000000000E+00 0.  1.
       22    1    1    2    0    0 -0.11307136095E-01 -0.15239776277E-01  0.18408384597E-02  0.19065434532E-01  0.00000000000E+00 0.  1.
       22    1    1    2    0    0  0.99800350530E-02  0.13408758420E-01 -0.23676410717E-01  0.28982207067E-01  0.00000000000E+00 0. -1.
</event>
<event>
 5   0  0.4143600E+04  0.9118800E+02  0.7546771E-02  0.1180000E+00
      -11   -1    0    0    0    0  0.00000000000E+00  0.00000000000E+00  0.34996269501E-01  0.35000000000E-01  0.51099999109E-03 0. -1.
       11   -1    0    0    0    0 -0.00000000000E+00 -0.00000000000E+00 -0.34996269501E-01  0.35000000000E-01  0.51099999109E-03 0. -1.
       22    1    1    2    0    0  0.16342389688E-01 -0.37672983319E-02 -0.27916308270E-01  0.32566647124E-01  0.00000000000E+00 0. -1.
       22    1    1    2    0    0  0.00000000000E+00 -0.00000000000E+00  0.17900400488E-01  0.17899161156E-01  0.00000000000E+00 0. -1.
       22    1    1    2    0    0 -0.16342389688E-01  0.37672983319E-02  0.10015907783E-01  0.19534191720E-01  0.00000000000E+00 0.  1.
</event>
<event>
 5   0  0.4143600E+04  0.9118800E+02  0.7546771E-02  0.1180000E+00
      -11   -1    0    0    0    0  0.00000000000E+00  0.00000000000E+00  0.34996269501E-01  0.35000000000E-01  0.51099999109E-03 0. -1.
       11   -1    0    0    0    0 -0.00000000000E+00 -0.00000000000E+00 -0.34996269501E-01  0.35000000000E-01  0.51099999109E-03 0.  1.
       22    1    1    2    0    0  0.19532405942E-03  0.65510929418E-03  0.40122075892E-02  0.40700281835E-02  0.00000000000E+00 0. -1.
       22    1    1    2    0    0  0.12334199549E-01  0.10367674252E-02  0.28486014932E-01  0.31058982789E-01  0.00000000000E+00 0. -1.
       22    1    1    2    0    0 -0.12529523609E-01 -0.16918767194E-02 -0.32498222521E-01  0.34870989027E-01  0.00000000000E+00 0.  1.
</event>
<event>
 5   0  0.4143600E+04  0.9118800E+02  0.7546771E-02  0.1180000E+00
      -11   -1    0    0    0    0  0.00000000000E+00  0.00000000000E+00  0.34996269501E-01  0.35000000000E-01  0.51099999109E-03 0. -1.
       11   -1    0    0    0    0 -0.00000000000E+00 -0.00000000000E+00 -0.34996269501E-01  0.35000000000E-01  0.51099999109E-03 0.  1.
       22    1    1    2    0    0  0.10784000907E-03  0.67533644881E-03 -0.48015158439E-04  0.68557584707E-03  0.00000000000E+00 0. -1.
       22    1    1    2    0    0 -0.92603330807E-02  0.18273966415E-01 -0.27722857866E-01  0.34470980049E-01  0.00000000000E+00 0.  1.
       22    1    1    2    0    0  0.91524930716E-02 -0.18949302864E-01  0.27770873024E-01  0.34843444104E-01  0.00000000000E+00 0. -1.
</event>
<event>
 5   0  0.4143600E+04  0.9118800E+02  0.7546771E-02  0.1180000E+00
      -11   -1    0    0    0    0  0.00000000000E+00  0.00000000000E+00  0.34996269501E-01  0.35000000000E-01  0.51099999109E-03 0.  1.
       11   -1    0    0    0    0 -0.00000000000E+00 -0.00000000000E+00 -0.34996269501E-01  0.35000000000E-01  0.51099999109E-03 0. -1.
       22    1    1    2    0    0 -0.51505751089E-02 -0.14350239727E-02  0.33642479733E-01  0.34064705494E-01  0.00000000000E+00 0.  1.
       22    1    1    2    0    0  0.68686989506E-02  0.31526921826E-03 -0.96158176792E-02  0.11821267681E-01  0.00000000000E+00 0. -1.
       22    1    1    2    0    0 -0.17181238416E-02  0.11197547545E-02 -0.24026662054E-01  0.24114026825E-01  0.00000000000E+00 0. -1.
</event>
<event>
 5   0  0.4143600E+04  0.9118800E+02  0.7546771E-02  0.1180000E+00
      -11   -1    0    0    0    0  0.00000000000E+00  0.00000000000E+00  0.34996269501E-01  0.35000000000E-01  0.51099999109E-03 0. -1.
       11   -1    0    0    0    0 -0.00000000000E+00 -0.00000000000E+00 -0.34996269501E-01  0.35000000000E-01  0.51099999109E-03 0.  1.
       22    1    1    2    0    0  0.36239261378E-02  0.60519466257E-02 -0.78939609789E-02  0.10586478099E-01  0.00000000000E+00 0.  1.
       22    1    1    2    0    0 -0.22252707393E-01  0.15187136724E-01 -0.64891088917E-02  0.27711741959E-01  0.00000000000E+00 0. -1.
       22    1    1    2    0    0  0.18628781255E-01 -0.21239083350E-01  0.14383069871E-01  0.31701779942E-01  0.00000000000E+00 0.  1.
</event>
<event>
 5   0  0.4143600E+04  0.9118800E+02  0.7546771E-02  0.1180000E+00
      -11   -1    0    0    0    0  0.00000000000E+00  0.00000000000E+00  0.34996269501E-01  0.35000000000E-01  0.51099999109E-03 0.  1.
       11   -1    0    0    0    0 -0.00000000000E+00 -0.00000000000E+00 -0.34996269501E-01  0.35000000000E-01  0.51099999109E-03 0. -1.
       22    1    1    2    0    0 -0.12455843727E-01  0.17824544323E-01  0.27115122133E-01  0.34757621776E-01  0.00000000000E+00 0.  1.
       22    1    1    2    0    0  0.12015396919E-01 -0.18194302202E-01 -0.26903781864E-01  0.34629696423E-01  0.00000000000E+00 0. -1.
       22    1    1    2    0    0  0.44044680820E-03  0.36975787883E-03 -0.21134026812E-03  0.61268180056E-03  0.00000000000E+00 0. -1.
</event>
<event>
 5   0  0.4143600E+04  0.9118800E+02  0.7546771E-02  0.1180000E+00
      -11   -1    0    0    0    0  0.00000000000E+00  0.00000000000E+00  0.34996269501E-01  0.35000000000E-01  0.51099999109E-03 0.  1.
       11   -1    0    0    0    0 -0.00000000000E+00 -0.00000000000E+00 -0.34996269501E-01  0.35000000000E-01  0.51099999109E-03 0. -1.
       22    1    1    2    0    0  0.35245741302E-03 -0.11451458379E-01 -0.18627732633E-01  0.21868985991E-01  0.00000000000E+00 0. -1.
       22    1    1    2    0    0  0.11964424200E-01 -0.70576439707E-03  0.26525796626E-01  0.29107789962E-01  0.00000000000E+00 0.  1.
       22    1    1    2    0    0 -0.12316881613E-01  0.12157222776E-01 -0.78980639935E-02  0.19023224047E-01  0.00000000000E+00 0. -1.
</event>
<event>
 5   0  0.4143600E+04  0.9118800E+02  0.7546771E-02  0.1180000E+00
      -11   -1    0    0    0    0  0.00000000000E+00  0.00000000000E+00  0.34996269501E-01  0.35000000000E-01  0.51099999109E-03 0.  1.
       11   -1    0    0    0    0 -0.00000000000E+00 -0.00000000000E+00 -0.34996269501E-01  0.35000000000E-01  0.51099999109E-03 0. -1.
       22    1    1    2    0    0  0.23034009893E-02 -0.18534250824E-02 -0.53898920664E-02  0.61475016991E-02  0.00000000000E+00 0. -1.
       22    1    1    2    0    0  0.21492157072E-01  0.20048737809E-01 -0.88361827042E-02  0.30691087112E-01  0.00000000000E+00 0.  1.
       22    1    1    2    0    0 -0.23795558061E-01 -0.18195312727E-01  0.14226074771E-01  0.33161411189E-01  0.00000000000E+00 0. -1.
</event>
<event>
 5   0  0.4143600E+04  0.9118800E+02  0.7546771E-02  0.1180000E+00
      -11   -1    0    0    0    0  0.00000000000E+00  0.00000000000E+00  0.34996269501E-01  0.35000000000E-01  0.51099999109E-03 0. -1.
       11   -1    0    0    0    0 -0.00000000000E+00 -0.00000000000E+00 -0.34996269501E-01  0.35000000000E-01  0.51099999109E-03 0.  1.
       22    1    1    2    0    0  0.11110448930E-02 -0.15048763754E-02 -0.25192668416E-01  0.25262019230E-01  0.00000000000E+00 0.  1.
       22    1    1    2    0    0 -0.76467186461E-03  0.40264707030E-02 -0.92939860192E-02  0.10157527529E-01  0.00000000000E+00 0.  1.
       22    1    1    2    0    0 -0.34637302835E-03 -0.25215943276E-02  0.34486654435E-01  0.34580453241E-01  0.00000000000E+00 0. -1.
</event>
<event>
 5   0  0.4143600E+04  0.9118800E+02  0.7546771E-02  0.1180000E+00
      -11   -1    0    0    0    0  0.00000000000E+00  0.00000000000E+00  0.34996269501E-01  0.35000000000E-01  0.51099999109E-03 0. -1.
       11   -1    0    0    0    0 -0.00000000000E+00 -0.00000000000E+00 -0.34996269501E-01  0.35000000000E-01  0.51099999109E-03 0.  1.
       22    1    1    2    0    0 -0.14636163960E-01 -0.14055674960E-01 -0.28438418479E-01  0.34935983451E-01  0.00000000000E+00 0.  1.
       22    1    1    2    0    0 -0.12612290806E-04 -0.84022231346E-05  0.62968963425E-03  0.62987197328E-03  0.00000000000E+00 0. -1.
       22    1    1    2    0    0  0.14648776251E-01  0.14064077184E-01  0.27808728845E-01  0.34434144576E-01  0.00000000000E+00 0. -1.
</event>
<event>
 5   0  0.4143600E+04  0.9118800E+02  0.7546771E-02  0.1180000E+00
      -11   -1    0    0    0    0  0.00000000000E+00  0.00000000000E+00  0.34996269501E-01  0.35000000000E-01  0.51099999109E-03 0.  1.
       11   -1    0    0    0    0 -0.00000000000E+00 -0.00000000000E+00 -0.34996269501E-01  0.35000000000E-01  0.51099999109E-03 0. -1.
       22    1    1    2    0    0  0.65922686950E-03 -0.62371914884E-02 -0.49391305384E-02  0.79832417102E-02  0.00000000000E+00 0.  1.
       22    1    1    2    0    0 -0.31777868788E-02  0.10987502694E-01 -0.27160157720E-01  0.29470285243E-01  0.00000000000E+00 0. -1.
       22    1    1    2    0    0  0.25185600093E-02 -0.47503112057E-02  0.32099288259E-01  0.32546473047E-01  0.00000000000E+00 0.  1.
</event>
<event>
 5   0  0.4143600E+04  0.9118800E+02  0.7546771E-02  0.1180000E+00
      -11   -1    0    0    0    0  0.00000000000E+00  0.00000000000E+00  0.34996269501E-01  0.35000000000E-01  0.51099999109E-03 0. -1.
       11   -1    0    0    0    0 -0.00000000000E+00 -0.00000000000E+00 -0.34996269501E-01  0.35000000000E-01  0.51099999109E-03 0.  1.
       22    1    1    2    0    0 -0.61255167286E-02  0.64784858175E-02 -0.25815178614E-01  0.27311466100E-01  0.00000000000E+00 0.  1.
       22    1    1    2    0    0 -0.11883998664E-03  0.13661274358E-02 -0.76405721664E-02  0.77626522621E-02  0.00000000000E+00 0. -1.
       22    1    1    2    0    0  0.62443567152E-02 -0.78446132533E-02  0.33455750780E-01  0.34925881638E-01  0.00000000000E+00 0. -1.
</event>
<event>
 5   0  0.4143600E+04  0.9118800E+02  0.7546771E-02  0.1180000E+00
      -11   -1    0    0    0    0  0.00000000000E+00  0.00000000000E+00  0.34996269501E-01  0.35000000000E-01  0.51099999109E-03 0. -1.
       11   -1    0    0    0    0 -0.00000000000E+00 -0.00000000000E+00 -0.34996269501E-01  0.35000000000E-01  0.51099999109E-03 0.  1.
       22    1    1    2    0    0  0.21641685906E-02  0.36005196430E-02 -0.31772164646E-01  0.32048678814E-01  0.00000000000E+00 0.  1.
       22    1    1    2    0    0 -0.25779801127E-02 -0.45981641620E-02  0.34560962500E-01  0.34960681116E-01  0.00000000000E+00 0. -1.
       22    1    1    2    0    0  0.41381152202E-03  0.99764451900E-03 -0.27887978539E-02  0.29906400707E-02  0.00000000000E+00 0.  1.
</event>
<event>
 5   0  0.4143600E+04  0.9118800E+02  0.7546771E-02  0.1180000E+00
      -11   -1    0    0    0    0  0.00000000000E+00  0.00000000000E+00  0.34996269501E-01  0.35000000000E-01  0.51099999109E-03 0. -1.
       11   -1    0    0    0    0 -0.00000000000E+00 -0.00000000000E+00 -0.34996269501E-01  0.35000000000E-01  0.51099999109E-03 0.  1.
       22    1    1    2    0    0  0.69112695941E-02 -0.15464144514E-01  0.28907804398E-01  0.33504724563E-01  0.00000000000E+00 0. -1.
       22    1    1    2    0    0 -0.68632104217E-02  0.13478796237E-01 -0.30437457230E-01  0.33988533477E-01  0.00000000000E+00 0.  1.
       22    1    1    2    0    0 -0.48059172368E-04  0.19853482767E-02  0.15296528322E-02  0.25067419593E-02  0.00000000000E+00 0. -1.
</event>
<event>
 5   0  0.4143600E+04  0.9118800E+02  0.7546771E-02  0.1180000E+00
      -11   -1    0    0    0    0  0.00000000000E+00  0.00000000000E+00  0.34996269501E-01  0.35000000000E-01  0.51099999109E-03 0. -1.
       11   -1    0    0    0    0 -0.00000000000E+00 -0.00000000000E+00 -0.34996269501E-01  0.35000000000E-01  0.51099999109E-03 0.  1.
       22    1    1    2    0    0  0.28279745515E-02 -0.50647736803E-03 -0.29622807427E-01  0.29761798992E-01  0.00000000000E+00 0.  1.
       22    1    1    2    0    0 -0.62043371395E-02  0.26572922988E-02  0.33791281795E-01  0.34458753997E-01  0.00000000000E+00 0. -1.
       22    1    1    2    0    0  0.33763625880E-02 -0.21508149307E-02 -0.41684743684E-02  0.57794470109E-02  0.00000000000E+00 0.  1.
</event>
<event>
 5   0  0.4143600E+04  0.9118800E+02  0.7546771E-02  0.1180000E+00
      -11   -1    0    0    0    0  0.00000000000E+00  0.00000000000E+00  0.34996269501E-01  0.35000000000E-01  0.51099999109E-03 0. -1.
       11   -1    0    0    0    0 -0.00000000000E+00 -0.00000000000E+00 -0.34996269501E-01  0.35000000000E-01  0.51099999109E-03 0.  1.
       22    1    1    2    0    0 -0.13706882880E-01  0.12406122336E-01  0.29119207033E-01  0.34492299546E-01  0.00000000000E+00 0. -1.
       22    1    1    2    0    0  0.53537973789E-03  0.47619897374E-03  0.31511861525E-03  0.78274942863E-03  0.00000000000E+00 0. -1.
       22    1    1    2    0    0  0.13171503143E-01 -0.12882321309E-01 -0.29434325649E-01  0.34724951026E-01  0.00000000000E+00 0.  1.
</event>
<event>
 5   0  0.4143600E+04  0.9118800E+02  0.7546771E-02  0.1180000E+00
      -11   -1    0    0    0    0  0.00000000000E+00  0.00000000000E+00  0.34996269501E-01  0.35000000000E-01  0.51099999109E-03 0.  1.
       11   -1    0    0    0    0 -0.00000000000E+00 -0.00000000000E+00 -0.34996269501E-01  0.35000000000E-01  0.51099999109E-03 0. -1.
       22    1    1    2    0    0  0.23551140765E-01  0.60794730946E-02  0.23301350719E-01  0.33683366366E-01  0.00000000000E+00 0.  1.
       22    1    1    2    0    0  0.13051493419E-03  0.50708647529E-03  0.13843415440E-02  0.14800582259E-02  0.00000000000E+00 0. -1.
       22    1    1    2    0    0 -0.23681655699E-01 -0.65865595698E-02 -0.24685692263E-01  0.34836575408E-01  0.00000000000E+00 0. -1.
</event>
<event>
 5   0  0.4143600E+04  0.9118800E+02  0.7546771E-02  0.1180000E+00
      -11   -1    0    0    0    0  0.00000000000E+00  0.00000000000E+00  0.34996269501E-01  0.35000000000E-01  0.51099999109E-03 0.  1.
       11   -1    0    0    0    0 -0.00000000000E+00 -0.00000000000E+00 -0.34996269501E-01  0.35000000000E-01  0.51099999109E-03 0. -1.
       22    1    1    2    0    0  0.32046912947E-03  0.85216514974E-02  0.33883179249E-01  0.34939820846E-01  0.00000000000E+00 0.  1.
       22    1    1    2    0    0 -0.20260663305E-03  0.14706956220E-03 -0.39223702154E-03  0.46532653583E-03  0.00000000000E+00 0.  1.
       22    1    1    2    0    0 -0.11786249641E-03 -0.86687210596E-02 -0.33490942228E-01  0.34594852618E-01  0.00000000000E+00 0. -1.
</event>
<event>
 5   0  0.4143600E+04  0.9118800E+02  0.7546771E-02  0.1180000E+00
      -11   -1    0    0    0    0  0.00000000000E+00  0.00000000000E+00  0.34996269501E-01  0.35000000000E-01  0.51099999109E-03 0. -1.
       11   -1    0    0    0    0 -0.00000000000E+00 -0.00000000000E+00 -0.34996269501E-01  0.35000000000E-01  0.51099999109E-03 0.  1.
       22    1    1    2    0    0  0.28261459940E-01 -0.77503777463E-02 -0.18536239186E-01  0.34675216456E-01  0.00000000000E+00 0. -1.
       22    1    1    2    0    0 -0.81369897259E-04 -0.17739275681E-03 -0.41038584630E-03  0.45442908488E-03  0.00000000000E+00 0.  1.
       22    1    1    2    0    0 -0.28180090042E-01  0.79277705031E-02  0.18946625033E-01  0.34870354459E-01  0.00000000000E+00 0.  1.
</event>
<event>
 5   0  0.4143600E+04  0.9118800E+02  0.7546771E-02  0.1180000E+00
      -11   -1    0    0    0    0  0.00000000000E+00  0.00000000000E+00  0.34996269501E-01  0.35000000000E-01  0.51099999109E-03 0. -1.
       11   -1    0    0    0    0 -0.00000000000E+00 -0.00000000000E+00 -0.34996269501E-01  0.35000000000E-01  0.51099999109E-03 0.  1.
       22    1    1    2    0    0  0.78047104493E-02 -0.19229324911E-01  0.27790575889E-01  0.34684240657E-01  0.00000000000E+00 0. -1.
       22    1    1    2    0    0  0.43272794467E-03  0.15979340457E-02 -0.54094383917E-02  0.56570902770E-02  0.00000000000E+00 0.  1.
       22    1    1    2    0    0 -0.82374383939E-02  0.17631390865E-01 -0.22381137497E-01  0.29658669066E-01  0.00000000000E+00 0.  1.
</event>
<event>
 5   0  0.4143600E+04  0.9118800E+02  0.7546771E-02  0.1180000E+00
      -11   -1    0    0    0    0  0.00000000000E+00  0.00000000000E+00  0.34996269501E-01  0.35000000000E-01  0.51099999109E-03 0. -1.
       11   -1    0    0    0    0 -0.00000000000E+00 -0.00000000000E+00 -0.34996269501E-01  0.35000000000E-01  0.51099999109E-03 0.  1.
       22    1    1    2    0    0  0.22765970580E-02 -0.42343520148E-02  0.47204130140E-02  0.67375759864E-02  0.00000000000E+00 0. -1.
       22    1    1    2    0    0 -0.18276378729E-02  0.12735051665E-01 -0.32104141690E-01  0.34586091349E-01  0.00000000000E+00 0.  1.
       22    1    1    2    0    0 -0.44895918511E-03 -0.85006996500E-02  0.27383728676E-01  0.28676332665E-01  0.00000000000E+00 0. -1.
</event>
<event>
 5   0  0.4143600E+04  0.9118800E+02  0.7546771E-02  0.1180000E+00
      -11   -1    0    0    0    0  0.00000000000E+00  0.00000000000E+00  0.34996269501E-01  0.35000000000E-01  0.51099999109E-03 0. -1.
       11   -1    0    0    0    0 -0.00000000000E+00 -0.00000000000E+00 -0.34996269501E-01  0.35000000000E-01  0.51099999109E-03 0.  1.
       22    1    1    2    0    0 -0.17787248750E-01 -0.27295653151E-01 -0.23973936865E-02  0.32667818959E-01  0.00000000000E+00 0.  1.
       22    1    1    2    0    0  0.13099600681E-01  0.23213631451E-01  0.91243031192E-02  0.28173127809E-01  0.00000000000E+00 0. -1.
       22    1    1    2    0    0  0.46876480688E-02  0.40820217003E-02 -0.67269094327E-02  0.91590532313E-02  0.00000000000E+00 0. -1.
</event>
<event>
 5   0  0.4143600E+04  0.9118800E+02  0.7546771E-02  0.1180000E+00
      -11   -1    0    0    0    0  0.00000000000E+00  0.00000000000E+00  0.34996269501E-01  0.35000000000E-01  0.51099999109E-03 0. -1.
       11   -1    0    0    0    0 -0.00000000000E+00 -0.00000000000E+00 -0.34996269501E-01  0.35000000000E-01  0.51099999109E-03 0.  1.
       22    1    1    2    0    0  0.75315183350E-02  0.21365354593E-02  0.61046154498E-02  0.99274811502E-02  0.00000000000E+00 0. -1.
       22    1    1    2    0    0 -0.10832087897E-01 -0.17946903629E-01  0.20260697874E-01  0.29153410717E-01  0.00000000000E+00 0. -1.
       22    1    1    2    0    0  0.33005695619E-02  0.15810368170E-01 -0.26365313324E-01  0.30919108133E-01  0.00000000000E+00 0.  1.
</event>
<event>
 5   0  0.4143600E+04  0.9118800E+02  0.7546771E-02  0.1180000E+00
      -11   -1    0    0    0    0  0.00000000000E+00  0.00000000000E+00  0.34996269501E-01  0.35000000000E-01  0.51099999109E-03 0. -1.
       11   -1    0    0    0    0 -0.00000000000E+00 -0.00000000000E+00 -0.34996269501E-01  0.35000000000E-01  0.51099999109E-03 0.  1.
       22    1    1    2    0    0 -0.18720392969E-03 -0.14067273445E-02 -0.25519445628E-02  0.29199911275E-02  0.00000000000E+00 0. -1.
       22    1    1    2    0    0  0.83265089644E-02  0.17610163926E-01  0.29047110294E-01  0.34974036677E-01  0.00000000000E+00 0. -1.
       22    1    1    2    0    0 -0.81393050347E-02 -0.16203436582E-01 -0.26495165731E-01  0.32105972196E-01  0.00000000000E+00 0.  1.
</event>
<event>
 5   0  0.4143600E+04  0.9118800E+02  0.7546771E-02  0.1180000E+00
      -11   -1    0    0    0    0  0.00000000000E+00  0.00000000000E+00  0.34996269501E-01  0.35000000000E-01  0.51099999109E-03 0.  1.
       11   -1    0    0    0    0 -0.00000000000E+00 -0.00000000000E+00 -0.34996269501E-01  0.35000000000E-01  0.51099999109E-03 0. -1.
       22    1    1    2    0    0 -0.64554991833E-02 -0.13885808865E-01 -0.28357052476E-01  0.32227497307E-01  0.00000000000E+00 0. -1.
       22    1    1    2    0    0  0.24514686851E-02 -0.48791263847E-02  0.89324336795E-02  0.10469190247E-01  0.00000000000E+00 0. -1.
       22    1    1    2    0    0  0.40040304982E-02  0.18764935250E-01  0.19424618796E-01  0.27303312446E-01  0.00000000000E+00 0.  1.
</event>
<event>
 5   0  0.4143600E+04  0.9118800E+02  0.7546771E-02  0.1180000E+00
      -11   -1    0    0    0    0  0.00000000000E+00  0.00000000000E+00  0.34996269501E-01  0.35000000000E-01  0.51099999109E-03 0.  1.
       11   -1    0    0    0    0 -0.00000000000E+00 -0.00000000000E+00 -0.34996269501E-01  0.35000000000E-01  0.51099999109E-03 0. -1.
       22    1    1    2    0    0 -0.10954264631E-01  0.48541895964E-02  0.32575564600E-01  0.34709169960E-01  0.00000000000E+00 0.  1.
       22    1    1    2    0    0 -0.32736640686E-03  0.44069289047E-03 -0.49984448600E-02  0.50285017656E-02  0.00000000000E+00 0.  1.
       22    1    1    2    0    0  0.11281631038E-01 -0.52948824869E-02 -0.27577119741E-01  0.30262328275E-01  0.00000000000E+00 0. -1.
</event>
<event>
 5   0  0.4143600E+04  0.9118800E+02  0.7546771E-02  0.1180000E+00
      -11   -1    0    0    0    0  0.00000000000E+00  0.00000000000E+00  0.34996269501E-01  0.35000000000E-01  0.51099999109E-03 0.  1.
       11   -1    0    0    0    0 -0.00000000000E+00 -0.00000000000E+00 -0.34996269501E-01  0.35000000000E-01  0.51099999109E-03 0.  1.
       22    1    1    2    0    0  0.55503341818E-03  0.42436390723E-03 -0.33585891413E-01  0.33593157768E-01  0.00000000000E+00 0.  1.
       22    1    1    2    0    0 -0.55503341818E-03 -0.42436390723E-03 -0.13251436501E-02  0.14980495701E-02  0.00000000000E+00 0. -1.
       22    1    1    2    0    0 -0.00000000000E+00  0.00000000000E+00  0.34911035063E-01  0.34908792662E-01  0.00000000000E+00 0.  1.
</event>
<event>
 5   0  0.4143600E+04  0.9118800E+02  0.7546771E-02  0.1180000E+00
      -11   -1    0    0    0    0  0.00000000000E+00  0.00000000000E+00  0.34996269501E-01  0.35000000000E-01  0.51099999109E-03 0.  1.
       11   -1    0    0    0    0 -0.00000000000E+00 -0.00000000000E+00 -0.34996269501E-01  0.35000000000E-01  0.51099999109E-03 0. -1.
       22    1    1    2    0    0  0.17780749938E-03  0.61654431772E-03 -0.16972550090E-02  0.18145018512E-02  0.00000000000E+00 0.  1.
       22    1    1    2    0    0 -0.86555168725E-02 -0.89130843178E-03 -0.32142211002E-01  0.33299161118E-01  0.00000000000E+00 0. -1.
       22    1    1    2    0    0  0.84777093731E-02  0.27476411407E-03  0.33839466011E-01  0.34886337031E-01  0.00000000000E+00 0.  1.
</event>
<event>
 5   0  0.4143600E+04  0.9118800E+02  0.7546771E-02  0.1180000E+00
      -11   -1    0    0    0    0  0.00000000000E+00  0.00000000000E+00  0.34996269501E-01  0.35000000000E-01  0.51099999109E-03 0. -1.
       11   -1    0    0    0    0 -0.00000000000E+00 -0.00000000000E+00 -0.34996269501E-01  0.35000000000E-01  0.51099999109E-03 0.  1.
       22    1    1    2    0    0 -0.11216529975E-01  0.12384016682E-01  0.10901320163E-01  0.19950268047E-01  0.00000000000E+00 0. -1.
       22    1    1    2    0    0 -0.70007874689E-05  0.39903391302E-03  0.17197887456E-01  0.17202517549E-01  0.00000000000E+00 0. -1.
       22    1    1    2    0    0  0.11223530763E-01 -0.12783050595E-01 -0.28099207619E-01  0.32847214404E-01  0.00000000000E+00 0.  1.
</event>
<event>
 5   0  0.4143600E+04  0.9118800E+02  0.7546771E-02  0.1180000E+00
      -11   -1    0    0    0    0  0.00000000000E+00  0.00000000000E+00  0.34996269501E-01  0.35000000000E-01  0.51099999109E-03 0. -1.
       11   -1    0    0    0    0 -0.00000000000E+00 -0.00000000000E+00 -0.34996269501E-01  0.35000000000E-01  0.51099999109E-03 0.  1.
       22    1    1    2    0    0  0.59032087334E-02  0.85796610994E-02  0.15570919972E-01  0.18732645481E-01  0.00000000000E+00 0. -1.
       22    1    1    2    0    0 -0.56407066207E-02  0.32116562004E-02  0.16160276727E-01  0.17415132805E-01  0.00000000000E+00 0. -1.
       22    1    1    2    0    0 -0.26250211267E-03 -0.11791317300E-01 -0.31731196699E-01  0.33852221714E-01  0.00000000000E+00 0.  1.
</event>
<event>
 5   0  0.4143600E+04  0.9118800E+02  0.7546771E-02  0.1180000E+00
      -11   -1    0    0    0    0  0.00000000000E+00  0.00000000000E+00  0.34996269501E-01  0.35000000000E-01  0.51099999109E-03 0.  1.
       11   -1    0    0    0    0 -0.00000000000E+00 -0.00000000000E+00 -0.34996269501E-01  0.35000000000E-01  0.51099999109E-03 0. -1.
       22    1    1    2    0    0  0.19500690943E-01  0.31848776316E-02  0.27217689633E-01  0.33633659059E-01  0.00000000000E+00 0.  1.
       22    1    1    2    0    0 -0.17965155208E-01 -0.21010928865E-02 -0.28732974927E-01  0.33952102160E-01  0.00000000000E+00 0. -1.
       22    1    1    2    0    0 -0.15355357346E-02 -0.10837847451E-02  0.15152852940E-02  0.24142387803E-02  0.00000000000E+00 0.  1.
</event>
<event>
 5   0  0.4143600E+04  0.9118800E+02  0.7546771E-02  0.1180000E+00
      -11   -1    0    0    0    0  0.00000000000E+00  0.00000000000E+00  0.34996269501E-01  0.35000000000E-01  0.51099999109E-03 0.  1.
       11   -1    0    0    0    0 -0.00000000000E+00 -0.00000000000E+00 -0.34996269501E-01  0.35000000000E-01  0.51099999109E-03 0. -1.
       22    1    1    2    0    0  0.37694895624E-03  0.17958054387E-03 -0.34706116529E-01  0.34708628095E-01  0.00000000000E+00 0. -1.
       22    1    1    2    0    0 -0.49401359287E-03 -0.18439848020E-03  0.34984949567E-01  0.34988923224E-01  0.00000000000E+00 0.  1.
       22    1    1    2    0    0  0.11706463662E-03  0.48179363351E-05 -0.27883303721E-03  0.30244868043E-03  0.00000000000E+00 0.  1.
</event>
<event>
 5   0  0.4143600E+04  0.9118800E+02  0.7546771E-02  0.1180000E+00
      -11   -1    0    0    0    0  0.00000000000E+00  0.00000000000E+00  0.34996269501E-01  0.35000000000E-01  0.51099999109E-03 0. -1.
       11   -1    0    0    0    0 -0.00000000000E+00 -0.00000000000E+00 -0.34996269501E-01  0.35000000000E-01  0.51099999109E-03 0.  1.
       22    1    1    2    0    0 -0.62295961534E-02 -0.13662992303E-01  0.30467912014E-01  0.33967320904E-01  0.00000000000E+00 0. -1.
       22    1    1    2    0    0  0.90340567069E-04  0.54796510799E-04  0.11040087553E-02  0.11090533835E-02  0.00000000000E+00 0.  1.
       22    1    1    2    0    0  0.61392555863E-02  0.13608195793E-01 -0.31571920769E-01  0.34923625713E-01  0.00000000000E+00 0.  1.
</event>
<event>
 5   0  0.4143600E+04  0.9118800E+02  0.7546771E-02  0.1180000E+00
      -11   -1    0    0    0    0  0.00000000000E+00  0.00000000000E+00  0.34996269501E-01  0.35000000000E-01  0.51099999109E-03 0. -1.
       11   -1    0    0    0    0 -0.00000000000E+00 -0.00000000000E+00 -0.34996269501E-01  0.35000000000E-01  0.51099999109E-03 0. -1.
       22    1    1    2    0    0  0.22166065451E-03 -0.22397865646E-03  0.34939287427E-01  0.34940708433E-01  0.00000000000E+00 0. -1.
       22    1    1    2    0    0  0.36953499660E-03  0.46644203550E-03 -0.33216356893E-01  0.33221687036E-01  0.00000000000E+00 0. -1.
       22    1    1    2    0    0 -0.59119565111E-03 -0.24246337905E-03 -0.17229305336E-02  0.18376045309E-02  0.00000000000E+00 0. -1.
</event>
<event>
 5   0  0.4143600E+04  0.9118800E+02  0.7546771E-02  0.1180000E+00
      -11   -1    0    0    0    0  0.00000000000E+00  0.00000000000E+00  0.34996269501E-01  0.35000000000E-01  0.51099999109E-03 0. -1.
       11   -1    0    0    0    0 -0.00000000000E+00 -0.00000000000E+00 -0.34996269501E-01  0.35000000000E-01  0.51099999109E-03 0.  1.
       22    1    1    2    0    0 -0.43382002698E-03 -0.62820980350E-03  0.20638126407E-02  0.22004931240E-02  0.00000000000E+00 0.  1.
       22    1    1    2    0    0  0.20315572745E-01  0.70942481081E-02 -0.27471434595E-01  0.34895996488E-01  0.00000000000E+00 0.  1.
       22    1    1    2    0    0 -0.19881752718E-01 -0.64660383046E-02  0.25407621954E-01  0.32903510388E-01  0.00000000000E+00 0. -1.
</event>
<event>
 5   0  0.4143600E+04  0.9118800E+02  0.7546771E-02  0.1180000E+00
      -11   -1    0    0    0    0  0.00000000000E+00  0.00000000000E+00  0.34996269501E-01  0.35000000000E-01  0.51099999109E-03 0.  1.
       11   -1    0    0    0    0 -0.00000000000E+00 -0.00000000000E+00 -0.34996269501E-01  0.35000000000E-01  0.51099999109E-03 0. -1.
       22    1    1    2    0    0 -0.19184206260E-01  0.60575562232E-02 -0.27478070950E-01  0.34055427472E-01  0.00000000000E+00 0. -1.
       22    1    1    2    0    0  0.20014368510E-01 -0.75516012040E-02  0.26118487413E-01  0.33760583709E-01  0.00000000000E+00 0.  1.
       22    1    1    2    0    0 -0.83016225070E-03  0.14940449808E-02  0.13595835370E-02  0.21839888189E-02  0.00000000000E+00 0. -1.
</event>
<event>
 5   0  0.4143600E+04  0.9118800E+02  0.7546771E-02  0.1180000E+00
      -11   -1    0    0    0    0  0.00000000000E+00  0.00000000000E+00  0.34996269501E-01  0.35000000000E-01  0.51099999109E-03 0.  1.
       11   -1    0    0    0    0 -0.00000000000E+00 -0.00000000000E+00 -0.34996269501E-01  0.35000000000E-01  0.51099999109E-03 0. -1.
       22    1    1    2    0    0  0.17737952466E-02  0.20536292343E-01  0.28236200633E-01  0.34959529158E-01  0.00000000000E+00 0.  1.
       22    1    1    2    0    0  0.48204299317E-04 -0.61392474958E-04 -0.56125775929E-03  0.56665947695E-03  0.00000000000E+00 0.  1.
       22    1    1    2    0    0 -0.18219995459E-02 -0.20474899868E-01 -0.27674942873E-01  0.34473811365E-01  0.00000000000E+00 0. -1.
</event>
<event>
 5   0  0.4143600E+04  0.9118800E+02  0.7546771E-02  0.1180000E+00
      -11   -1    0    0    0    0  0.00000000000E+00  0.00000000000E+00  0.34996269501E-01  0.35000000000E-01  0.51099999109E-03 0. -1.
       11   -1    0    0    0    0 -0.00000000000E+00 -0.00000000000E+00 -0.34996269501E-01  0.35000000000E-01  0.51099999109E-03 0.  1.
       22    1    1    2    0    0 -0.41314384470E-04 -0.59884186649E-03  0.20316282613E-03  0.63371412588E-03  0.00000000000E+00 0. -1.
       22    1    1    2    0    0 -0.23584641779E-02 -0.15154888487E-01 -0.31058423276E-01  0.34638975949E-01  0.00000000000E+00 0.  1.
       22    1    1    2    0    0  0.23997785624E-02  0.15753730354E-01  0.30855260450E-01  0.34727309926E-01  0.00000000000E+00 0. -1.
</event>
<event>
 5   0  0.4143600E+04  0.9118800E+02  0.7546771E-02  0.1180000E+00
      -11   -1    0    0    0    0  0.00000000000E+00  0.00000000000E+00  0.34996269501E-01  0.35000000000E-01  0.51099999109E-03 0.  1.
       11   -1    0    0    0    0 -0.00000000000E+00 -0.00000000000E+00 -0.34996269501E-01  0.35000000000E-01  0.51099999109E-03 0. -1.
       22    1    1    2    0    0  0.14405789549E-01  0.14337238014E-01 -0.13792982932E-01  0.24562767445E-01  0.00000000000E+00 0. -1.
       22    1    1    2    0    0  0.93982167880E-03  0.48953338820E-02 -0.10023099377E-01  0.11194198486E-01  0.00000000000E+00 0. -1.
       22    1    1    2    0    0 -0.15345611228E-01 -0.19232571896E-01  0.23816082309E-01  0.34243034069E-01  0.00000000000E+00 0.  1.
</event>
<event>
 5   0  0.4143600E+04  0.9118800E+02  0.7546771E-02  0.1180000E+00
      -11   -1    0    0    0    0  0.00000000000E+00  0.00000000000E+00  0.34996269501E-01  0.35000000000E-01  0.51099999109E-03 0.  1.
       11   -1    0    0    0    0 -0.00000000000E+00 -0.00000000000E+00 -0.34996269501E-01  0.35000000000E-01  0.51099999109E-03 0. -1.
       22    1    1    2    0    0  0.30789294814E-02 -0.40260371112E-02 -0.58709784053E-02  0.77561052731E-02  0.00000000000E+00 0. -1.
       22    1    1    2    0    0  0.13826361994E-01 -0.23743542618E-01  0.10483042839E-01  0.29407793001E-01  0.00000000000E+00 0.  1.
       22    1    1    2    0    0 -0.16905291475E-01  0.27769579729E-01 -0.46120644334E-02  0.32836101726E-01  0.00000000000E+00 0. -1.
</event>
<event>
 5   0  0.4143600E+04  0.9118800E+02  0.7546771E-02  0.1180000E+00
      -11   -1    0    0    0    0  0.00000000000E+00  0.00000000000E+00  0.34996269501E-01  0.35000000000E-01  0.51099999109E-03 0.  1.
       11   -1    0    0    0    0 -0.00000000000E+00 -0.00000000000E+00 -0.34996269501E-01  0.35000000000E-01  0.51099999109E-03 0. -1.
       22    1    1    2    0    0  0.50529080711E-02 -0.24087391594E-02 -0.34049064846E-01  0.34506125851E-01  0.00000000000E+00 0. -1.
       22    1    1    2    0    0 -0.48185976320E-02  0.25691022461E-02  0.34517138169E-01  0.34946416081E-01  0.00000000000E+00 0.  1.
       22    1    1    2    0    0 -0.23431043910E-03 -0.16036308667E-03 -0.46807332280E-03  0.54745806867E-03  0.00000000000E+00 0. -1.
</event>
<event>
 5   0  0.4143600E+04  0.9118800E+02  0.7546771E-02  0.1180000E+00
      -11   -1    0    0    0    0  0.00000000000E+00  0.00000000000E+00  0.34996269501E-01  0.35000000000E-01  0.51099999109E-03 0. -1.
       11   -1    0    0    0    0 -0.00000000000E+00 -0.00000000000E+00 -0.34996269501E-01  0.35000000000E-01  0.51099999109E-03 0.  1.
       22    1    1    2    0    0 -0.28697857441E-01 -0.88047743911E-02  0.17651328048E-01  0.34823274626E-01  0.00000000000E+00 0. -1.
       22    1    1    2    0    0  0.71127335597E-03  0.19358638821E-04 -0.15721728488E-02  0.17256917484E-02  0.00000000000E+00 0.  1.
       22    1    1    2    0    0  0.27986584085E-01  0.87854157522E-02 -0.16079155199E-01  0.33451033626E-01  0.00000000000E+00 0.  1.
</event>
<event>
 5   0  0.4143600E+04  0.9118800E+02  0.7546771E-02  0.1180000E+00
      -11   -1    0    0    0    0  0.00000000000E+00  0.00000000000E+00  0.34996269501E-01  0.35000000000E-01  0.51099999109E-03 0.  1.
       11   -1    0    0    0    0 -0.00000000000E+00 -0.00000000000E+00 -0.34996269501E-01  0.35000000000E-01  0.51099999109E-03 0. -1.
       22    1    1    2    0    0  0.13081782736E-01  0.61404706884E-02 -0.31851039921E-01  0.34976094177E-01  0.00000000000E+00 0. -1.
       22    1    1    2    0    0 -0.12701012359E-01 -0.56820443576E-02  0.29805032211E-01  0.32892875948E-01  0.00000000000E+00 0.  1.
       22    1    1    2    0    0 -0.38077037698E-03 -0.45842633080E-03  0.20460077098E-02  0.21310298753E-02  0.00000000000E+00 0. -1.
</event>
<event>
 5   0  0.4143600E+04  0.9118800E+02  0.7546771E-02  0.1180000E+00
      -11   -1    0    0    0    0  0.00000000000E+00  0.00000000000E+00  0.34996269501E-01  0.35000000000E-01  0.51099999109E-03 0. -1.
       11   -1    0    0    0    0 -0.00000000000E+00 -0.00000000000E+00 -0.34996269501E-01  0.35000000000E-01  0.51099999109E-03 0.  1.
       22    1    1    2    0    0  0.73580052175E-03 -0.20811281921E-02 -0.34595623002E-01  0.34665972190E-01  0.00000000000E+00 0.  1.
       22    1    1    2    0    0 -0.75077127262E-03  0.19610752419E-02  0.34922450895E-01  0.34985526295E-01  0.00000000000E+00 0. -1.
       22    1    1    2    0    0  0.14970750872E-04  0.12005295028E-03 -0.32682789294E-03  0.34850151486E-03  0.00000000000E+00 0.  1.
</event>
<event>
 5   0  0.4143600E+04  0.9118800E+02  0.7546771E-02  0.1180000E+00
      -11   -1    0    0    0    0  0.00000000000E+00  0.00000000000E+00  0.34996269501E-01  0.35000000000E-01  0.51099999109E-03 0. -1.
       11   -1    0    0    0    0 -0.00000000000E+00 -0.00000000000E+00 -0.34996269501E-01  0.35000000000E-01  0.51099999109E-03 0.  1.
       22    1    1    2    0    0 -0.15352666766E-01 -0.54453224740E-02  0.93579543512E-02  0.18786357372E-01  0.00000000000E+00 0. -1.
       22    1    1    2    0    0  0.23692885492E-01 -0.33533444572E-02  0.11912955100E-01  0.26730436607E-01  0.00000000000E+00 0.  1.
       22    1    1    2    0    0 -0.83402187257E-02  0.87986669312E-02 -0.21270909451E-01  0.24483206021E-01  0.00000000000E+00 0. -1.
</event>
<event>
 5   0  0.4143600E+04  0.9118800E+02  0.7546771E-02  0.1180000E+00
      -11   -1    0    0    0    0  0.00000000000E+00  0.00000000000E+00  0.34996269501E-01  0.35000000000E-01  0.51099999109E-03 0.  1.
       11   -1    0    0    0    0 -0.00000000000E+00 -0.00000000000E+00 -0.34996269501E-01  0.35000000000E-01  0.51099999109E-03 0. -1.
       22    1    1    2    0    0  0.10282666058E-01  0.50296710291E-02 -0.32644096852E-01  0.34592887581E-01  0.00000000000E+00 0. -1.
       22    1    1    2    0    0 -0.26059117824E-02 -0.19064125289E-02  0.23332062079E-02  0.39835958827E-02  0.00000000000E+00 0.  1.
       22    1    1    2    0    0 -0.76767542759E-02 -0.31232585001E-02  0.30310890644E-01  0.31423516536E-01  0.00000000000E+00 0.  1.
</event>
<event>
 5   0  0.4143600E+04  0.9118800E+02  0.7546771E-02  0.1180000E+00
      -11   -1    0    0    0    0  0.00000000000E+00  0.00000000000E+00  0.34996269501E-01  0.35000000000E-01  0.51099999109E-03 0.  1.
       11   -1    0    0    0    0 -0.00000000000E+00 -0.00000000000E+00 -0.34996269501E-01  0.35000000000E-01  0.51099999109E-03 0. -1.
       22    1    1    2    0    0  0.52800313905E-02 -0.29058776056E-02  0.34383608192E-01  0.34907812427E-01  0.00000000000E+00 0.  1.
       22    1    1    2    0    0 -0.40197824927E-02  0.28363075341E-02 -0.32170182413E-01  0.32544184245E-01  0.00000000000E+00 0. -1.
       22    1    1    2    0    0 -0.12602488978E-02  0.69570071480E-04 -0.22134257792E-02  0.25480033280E-02  0.00000000000E+00 0.  1.
</event>
<event>
 5   0  0.4143600E+04  0.9118800E+02  0.7546771E-02  0.1180000E+00
      -11   -1    0    0    0    0  0.00000000000E+00  0.00000000000E+00  0.34996269501E-01  0.35000000000E-01  0.51099999109E-03 0. -1.
       11   -1    0    0    0    0 -0.00000000000E+00 -0.00000000000E+00 -0.34996269501E-01  0.35000000000E-01  0.51099999109E-03 0.  1.
       22    1    1    2    0    0  0.10007524407E-01 -0.38201878304E-03 -0.13966112948E-01  0.17185714823E-01  0.00000000000E+00 0.  1.
       22    1    1    2    0    0 -0.10031297672E-01 -0.95623158666E-05 -0.18127675355E-01  0.20718099290E-01  0.00000000000E+00 0. -1.
       22    1    1    2    0    0  0.23773264877E-04  0.39158109891E-03  0.32093788302E-01  0.32096185887E-01  0.00000000000E+00 0. -1.
</event>
<event>
 5   0  0.4143600E+04  0.9118800E+02  0.7546771E-02  0.1180000E+00
      -11   -1    0    0    0    0  0.00000000000E+00  0.00000000000E+00  0.34996269501E-01  0.35000000000E-01  0.51099999109E-03 0.  1.
       11   -1    0    0    0    0 -0.00000000000E+00 -0.00000000000E+00 -0.34996269501E-01  0.35000000000E-01  0.51099999109E-03 0. -1.
       22    1    1    2    0    0  0.13780320967E-02  0.11833206476E-01 -0.32904381917E-01  0.34994600974E-01  0.00000000000E+00 0. -1.
       22    1    1    2    0    0  0.43392718128E-04 -0.96394018954E-04  0.51564706714E-03  0.52637119291E-03  0.00000000000E+00 0.  1.
       22    1    1    2    0    0 -0.14214248148E-02 -0.11736812457E-01  0.32388734850E-01  0.34479027833E-01  0.00000000000E+00 0.  1.
</event>
<event>
 5   0  0.4143600E+04  0.9118800E+02  0.7546771E-02  0.1180000E+00
      -11   -1    0    0    0    0  0.00000000000E+00  0.00000000000E+00  0.34996269501E-01  0.35000000000E-01  0.51099999109E-03 0.  1.
       11   -1    0    0    0    0 -0.00000000000E+00 -0.00000000000E+00 -0.34996269501E-01  0.35000000000E-01  0.51099999109E-03 0. -1.
       22    1    1    2    0    0 -0.50536434587E-02 -0.58603289803E-02 -0.30458755354E-01  0.31426398866E-01  0.00000000000E+00 0. -1.
       22    1    1    2    0    0  0.61640295402E-02  0.63246956930E-02  0.33845800128E-01  0.34979068342E-01  0.00000000000E+00 0.  1.
       22    1    1    2    0    0 -0.11103860815E-02 -0.46436671266E-03 -0.33870447736E-02  0.35945327919E-02  0.00000000000E+00 0.  1.
</event>
<event>
 5   0  0.4143600E+04  0.9118800E+02  0.7546771E-02  0.1180000E+00
      -11   -1    0    0    0    0  0.00000000000E+00  0.00000000000E+00  0.34996269501E-01  0.35000000000E-01  0.51099999109E-03 0. -1.
       11   -1    0    0    0    0 -0.00000000000E+00 -0.00000000000E+00 -0.34996269501E-01  0.35000000000E-01  0.51099999109E-03 0.  1.
       22    1    1    2    0    0  0.17139458187E-01 -0.54253717449E-02 -0.29159031922E-01  0.34255580978E-01  0.00000000000E+00 0.  1.
       22    1    1    2    0    0 -0.23014597824E-02  0.24309160862E-02  0.57060267481E-03  0.33958294364E-02  0.00000000000E+00 0. -1.
       22    1    1    2    0    0 -0.14837998405E-01  0.29944556586E-02  0.28588429247E-01  0.32348589586E-01  0.00000000000E+00 0. -1.
</event>
<event>
 5   0  0.4143600E+04  0.9118800E+02  0.7546771E-02  0.1180000E+00
      -11   -1    0    0    0    0  0.00000000000E+00  0.00000000000E+00  0.34996269501E-01  0.35000000000E-01  0.51099999109E-03 0. -1.
       11   -1    0    0    0    0 -0.00000000000E+00 -0.00000000000E+00 -0.34996269501E-01  0.35000000000E-01  0.51099999109E-03 0.  1.
       22    1    1    2    0    0  0.41860217026E-02 -0.47469030656E-02 -0.78866457252E-02  0.10112123773E-01  0.00000000000E+00 0. -1.
       22    1    1    2    0    0 -0.11488708577E-01 -0.25137024825E-01 -0.16305568680E-02  0.27686082380E-01  0.00000000000E+00 0.  1.
       22    1    1    2    0    0  0.73026868739E-02  0.29883927891E-01  0.95172025933E-02  0.32201793847E-01  0.00000000000E+00 0. -1.
</event>
<event>
 5   0  0.4143600E+04  0.9118800E+02  0.7546771E-02  0.1180000E+00
      -11   -1    0    0    0    0  0.00000000000E+00  0.00000000000E+00  0.34996269501E-01  0.35000000000E-01  0.51099999109E-03 0.  1.
       11   -1    0    0    0    0 -0.00000000000E+00 -0.00000000000E+00 -0.34996269501E-01  0.35000000000E-01  0.51099999109E-03 0. -1.
       22    1    1    2    0    0 -0.10942213490E-02 -0.11735441593E-01 -0.32373423497E-01  0.34452234451E-01  0.00000000000E+00 0. -1.
       22    1    1    2    0    0  0.33359522456E-03  0.12918225998E-01  0.30984317335E-01  0.33571115105E-01  0.00000000000E+00 0.  1.
       22    1    1    2    0    0  0.76062612444E-03 -0.11827844049E-02  0.13891061622E-02  0.19766504445E-02  0.00000000000E+00 0. -1.
</event>
<event>
 5   0  0.4143600E+04  0.9118800E+02  0.7546771E-02  0.1180000E+00
      -11   -1    0    0    0    0  0.00000000000E+00  0.00000000000E+00  0.34996269501E-01  0.35000000000E-01  0.51099999109E-03 0.  1.
       11   -1    0    0    0    0 -0.00000000000E+00 -0.00000000000E+00 -0.34996269501E-01  0.35000000000E-01  0.51099999109E-03 0. -1.
       22    1    1    2    0    0 -0.17361747531E-02  0.96181245297E-02  0.32994199531E-01  0.34411332798E-01  0.00000000000E+00 0.  1.
       22    1    1    2    0    0  0.39013100831E-02 -0.86673117950E-02 -0.17496123325E-01  0.19911224109E-01  0.00000000000E+00 0. -1.
       22    1    1    2    0    0 -0.21651353300E-02 -0.95081273473E-03 -0.15498076206E-01  0.15677443093E-01  0.00000000000E+00 0. -1.
</event>
<event>
 5   0  0.4143600E+04  0.9118800E+02  0.7546771E-02  0.1180000E+00
      -11   -1    0    0    0    0  0.00000000000E+00  0.00000000000E+00  0.34996269501E-01  0.35000000000E-01  0.51099999109E-03 0. -1.
       11   -1    0    0    0    0 -0.00000000000E+00 -0.00000000000E+00 -0.34996269501E-01  0.35000000000E-01  0.51099999109E-03 0.  1.
       22    1    1    2    0    0  0.24517959029E-02  0.11813322605E-01 -0.32034354358E-01  0.34231064156E-01  0.00000000000E+00 0.  1.
       22    1    1    2    0    0 -0.28061921825E-02 -0.13478909728E-01  0.30553365095E-01  0.33512144674E-01  0.00000000000E+00 0. -1.
       22    1    1    2    0    0  0.35439627961E-03  0.16655871230E-02  0.14809892633E-02  0.22567911701E-02  0.00000000000E+00 0.  1.
</event>
<event>
 5   0  0.4143600E+04  0.9118800E+02  0.7546771E-02  0.1180000E+00
      -11   -1    0    0    0    0  0.00000000000E+00  0.00000000000E+00  0.34996269501E-01  0.35000000000E-01  0.51099999109E-03 0. -1.
       11   -1    0    0    0    0 -0.00000000000E+00 -0.00000000000E+00 -0.34996269501E-01  0.35000000000E-01  0.51099999109E-03 0.  1.
       22    1    1    2    0    0  0.14004063433E-02  0.27609923202E-02 -0.38459008547E-02  0.49371216212E-02  0.00000000000E+00 0. -1.
       22    1    1    2    0    0 -0.21473629197E-01 -0.26324316865E-01  0.11469150275E-02  0.33991202147E-01  0.00000000000E+00 0.  1.
       22    1    1    2    0    0  0.20073222854E-01  0.23563324545E-01  0.26989858271E-02  0.31071676232E-01  0.00000000000E+00 0. -1.
</event>
<event>
 5   0  0.4143600E+04  0.9118800E+02  0.7546771E-02  0.1180000E+00
      -11   -1    0    0    0    0  0.00000000000E+00  0.00000000000E+00  0.34996269501E-01  0.35000000000E-01  0.51099999109E-03 0.  1.
       11   -1    0    0    0    0 -0.00000000000E+00 -0.00000000000E+00 -0.34996269501E-01  0.35000000000E-01  0.51099999109E-03 0. -1.
       22    1    1    2    0    0 -0.16552947454E-01  0.58566834990E-02  0.29759221754E-01  0.34553033013E-01  0.00000000000E+00 0.  1.
       22    1    1    2    0    0 -0.37778532205E-05  0.57720200947E-04  0.47176310233E-03  0.47529603248E-03  0.00000000000E+00 0. -1.
       22    1    1    2    0    0  0.16556725307E-01 -0.59144036999E-02 -0.30230984856E-01  0.34971670955E-01  0.00000000000E+00 0. -1.
</event>
<event>
 5   0  0.4143600E+04  0.9118800E+02  0.7546771E-02  0.1180000E+00
      -11   -1    0    0    0    0  0.00000000000E+00  0.00000000000E+00  0.34996269501E-01  0.35000000000E-01  0.51099999109E-03 0.  1.
       11   -1    0    0    0    0 -0.00000000000E+00 -0.00000000000E+00 -0.34996269501E-01  0.35000000000E-01  0.51099999109E-03 0. -1.
       22    1    1    2    0    0  0.51459123397E-03  0.17195839875E-02 -0.15044099047E-02  0.23420124657E-02  0.00000000000E+00 0. -1.
       22    1    1    2    0    0 -0.20928235052E-01 -0.26853918935E-02  0.27455103874E-01  0.34626363955E-01  0.00000000000E+00 0.  1.
       22    1    1    2    0    0  0.20413643818E-01  0.96580790593E-03 -0.25950693969E-01  0.33031623580E-01  0.00000000000E+00 0. -1.
</event>
<event>
 5   0  0.4143600E+04  0.9118800E+02  0.7546771E-02  0.1180000E+00
      -11   -1    0    0    0    0  0.00000000000E+00  0.00000000000E+00  0.34996269501E-01  0.35000000000E-01  0.51099999109E-03 0.  1.
       11   -1    0    0    0    0 -0.00000000000E+00 -0.00000000000E+00 -0.34996269501E-01  0.35000000000E-01  0.51099999109E-03 0. -1.
       22    1    1    2    0    0  0.16282008790E-02 -0.95707667020E-03 -0.44035285365E-02  0.47914608865E-02  0.00000000000E+00 0. -1.
       22    1    1    2    0    0 -0.12733383787E-01  0.18417617331E-02  0.32516170569E-01  0.34969021969E-01  0.00000000000E+00 0.  1.
       22    1    1    2    0    0  0.11105182908E-01 -0.88468506289E-03 -0.28112642033E-01  0.30239517145E-01  0.00000000000E+00 0. -1.
</event>
<event>
 5   0  0.4143600E+04  0.9118800E+02  0.7546771E-02  0.1180000E+00
      -11   -1    0    0    0    0  0.00000000000E+00  0.00000000000E+00  0.34996269501E-01  0.35000000000E-01  0.51099999109E-03 0. -1.
       11   -1    0    0    0    0 -0.00000000000E+00 -0.00000000000E+00 -0.34996269501E-01  0.35000000000E-01  0.51099999109E-03 0.  1.
       22    1    1    2    0    0  0.46576970913E-04  0.24842708440E-03 -0.30177107285E-03  0.39363842659E-03  0.00000000000E+00 0. -1.
       22    1    1    2    0    0 -0.27198532021E-01 -0.17538936990E-01 -0.12866670777E-01  0.34827082446E-01  0.00000000000E+00 0.  1.
       22    1    1    2    0    0  0.27151955050E-01  0.17290509906E-01  0.13168441850E-01  0.34779279127E-01  0.00000000000E+00 0. -1.
</event>
<event>
 5   0  0.4143600E+04  0.9118800E+02  0.7546771E-02  0.1180000E+00
      -11   -1    0    0    0    0  0.00000000000E+00  0.00000000000E+00  0.34996269501E-01  0.35000000000E-01  0.51099999109E-03 0. -1.
       11   -1    0    0    0    0 -0.00000000000E+00 -0.00000000000E+00 -0.34996269501E-01  0.35000000000E-01  0.51099999109E-03 0.  1.
       22    1    1    2    0    0  0.33838354778E-02  0.17633303783E-01  0.21632367684E-01  0.28113041040E-01  0.00000000000E+00 0. -1.
       22    1    1    2    0    0 -0.43618836240E-02 -0.16868505972E-01 -0.29316471846E-01  0.34103196976E-01  0.00000000000E+00 0.  1.
       22    1    1    2    0    0  0.97804814619E-03 -0.76479781160E-03  0.76841041616E-02  0.77837619847E-02  0.00000000000E+00 0. -1.
</event>
<event>
 5   0  0.4143600E+04  0.9118800E+02  0.7546771E-02  0.1180000E+00
      -11   -1    0    0    0    0  0.00000000000E+00  0.00000000000E+00  0.34996269501E-01  0.35000000000E-01  0.51099999109E-03 0.  1.
       11   -1    0    0    0    0 -0.00000000000E+00 -0.00000000000E+00 -0.34996269501E-01  0.35000000000E-01  0.51099999109E-03 0. -1.
       22    1    1    2    0    0 -0.44853996951E-02 -0.35607743693E-02 -0.22484185921E-01  0.23202080533E-01  0.00000000000E+00 0. -1.
       22    1    1    2    0    0  0.31862385554E-02 -0.44307468824E-02 -0.11037141591E-01  0.12312681615E-01  0.00000000000E+00 0.  1.
       22    1    1    2    0    0  0.12991611398E-02  0.79915212517E-02  0.33521327511E-01  0.34485237852E-01  0.00000000000E+00 0.  1.
</event>
<event>
 5   0  0.4143600E+04  0.9118800E+02  0.7546771E-02  0.1180000E+00
      -11   -1    0    0    0    0  0.00000000000E+00  0.00000000000E+00  0.34996269501E-01  0.35000000000E-01  0.51099999109E-03 0.  1.
       11   -1    0    0    0    0 -0.00000000000E+00 -0.00000000000E+00 -0.34996269501E-01  0.35000000000E-01  0.51099999109E-03 0. -1.
       22    1    1    2    0    0 -0.37715364001E-03 -0.48797898755E-03  0.16794336195E-03  0.63919741339E-03  0.00000000000E+00 0. -1.
       22    1    1    2    0    0  0.77930009046E-02 -0.22359353258E-01  0.25093828705E-01  0.34501764887E-01  0.00000000000E+00 0.  1.
       22    1    1    2    0    0 -0.74158472646E-02  0.22847332246E-01 -0.25261772067E-01  0.34859037700E-01  0.00000000000E+00 0. -1.
</event>
<event>
 5   0  0.4143600E+04  0.9118800E+02  0.7546771E-02  0.1180000E+00
      -11   -1    0    0    0    0  0.00000000000E+00  0.00000000000E+00  0.34996269501E-01  0.35000000000E-01  0.51099999109E-03 0. -1.
       11   -1    0    0    0    0 -0.00000000000E+00 -0.00000000000E+00 -0.34996269501E-01  0.35000000000E-01  0.51099999109E-03 0.  1.
       22    1    1    2    0    0  0.10106686541E-01 -0.14641695964E-01  0.28903164294E-01  0.33939906891E-01  0.00000000000E+00 0. -1.
       22    1    1    2    0    0  0.32378421584E-04 -0.57671109670E-05  0.11356830551E-02  0.11361591541E-02  0.00000000000E+00 0.  1.
       22    1    1    2    0    0 -0.10139064962E-01  0.14647463075E-01 -0.30038847349E-01  0.34923933955E-01  0.00000000000E+00 0.  1.
</event>
<event>
 5   0  0.4143600E+04  0.9118800E+02  0.7546771E-02  0.1180000E+00
      -11   -1    0    0    0    0  0.00000000000E+00  0.00000000000E+00  0.34996269501E-01  0.35000000000E-01  0.51099999109E-03 0.  1.
       11   -1    0    0    0    0 -0.00000000000E+00 -0.00000000000E+00 -0.34996269501E-01  0.35000000000E-01  0.51099999109E-03 0. -1.
       22    1    1    2    0    0 -0.63404538761E-02 -0.17653342151E-01  0.29505112947E-01  0.34962744950E-01  0.00000000000E+00 0.  1.
       22    1    1    2    0    0 -0.18990621808E-03  0.39434579350E-03 -0.56809291880E-03  0.71714889730E-03  0.00000000000E+00 0.  1.
       22    1    1    2    0    0  0.65303600942E-02  0.17258996358E-01 -0.28937020028E-01  0.34320106153E-01  0.00000000000E+00 0. -1.
</event>
<event>
 5   0  0.4143600E+04  0.9118800E+02  0.7546771E-02  0.1180000E+00
      -11   -1    0    0    0    0  0.00000000000E+00  0.00000000000E+00  0.34996269501E-01  0.35000000000E-01  0.51099999109E-03 0.  1.
       11   -1    0    0    0    0 -0.00000000000E+00 -0.00000000000E+00 -0.34996269501E-01  0.35000000000E-01  0.51099999109E-03 0. -1.
       22    1    1    2    0    0 -0.24881509653E-02 -0.65204452239E-02 -0.81753746958E-02  0.10749132642E-01  0.00000000000E+00 0. -1.
       22    1    1    2    0    0  0.93464251917E-03  0.97067647870E-02  0.32878766859E-01  0.34294433213E-01  0.00000000000E+00 0.  1.
       22    1    1    2    0    0  0.15535084461E-02 -0.31863195631E-02 -0.24703392163E-01  0.24956434144E-01  0.00000000000E+00 0. -1.
</event>
<event>
 5   0  0.4143600E+04  0.9118800E+02  0.7546771E-02  0.1180000E+00
      -11   -1    0    0    0    0  0.00000000000E+00  0.00000000000E+00  0.34996269501E-01  0.35000000000E-01  0.51099999109E-03 0.  1.
       11   -1    0    0    0    0 -0.00000000000E+00 -0.00000000000E+00 -0.34996269501E-01  0.35000000000E-01  0.51099999109E-03 0.  1.
       22    1    1    2    0    0  0.19884708595E-02  0.18850896728E-02 -0.30793167166E-01  0.30914830156E-01  0.00000000000E+00 0.  1.
       22    1    1    2    0    0 -0.15961163098E-02 -0.16163981765E-02 -0.38330830472E-02  0.44556543836E-02  0.00000000000E+00 0. -1.
       22    1    1    2    0    0 -0.39235454968E-03 -0.26869149635E-03  0.34626250213E-01  0.34629515461E-01  0.00000000000E+00 0.  1.
</event>
<event>
 5   0  0.4143600E+04  0.9118800E+02  0.7546771E-02  0.1180000E+00
      -11   -1    0    0    0    0  0.00000000000E+00  0.00000000000E+00  0.34996269501E-01  0.35000000000E-01  0.51099999109E-03 0. -1.
       11   -1    0    0    0    0 -0.00000000000E+00 -0.00000000000E+00 -0.34996269501E-01  0.35000000000E-01  0.51099999109E-03 0. -1.
       22    1    1    2    0    0  0.70933254089E-03  0.49565195138E-02 -0.56787050298E-02  0.75708605297E-02  0.00000000000E+00 0.  1.
       22    1    1    2    0    0 -0.60324385102E-03 -0.45700634252E-02 -0.28186806045E-01  0.28561257288E-01  0.00000000000E+00 0. -1.
       22    1    1    2    0    0 -0.10608868987E-03 -0.38645608859E-03  0.33865511075E-01  0.33867882182E-01  0.00000000000E+00 0. -1.
</event>
<event>
 5   0  0.4143600E+04  0.9118800E+02  0.7546771E-02  0.1180000E+00
      -11   -1    0    0    0    0  0.00000000000E+00  0.00000000000E+00  0.34996269501E-01  0.35000000000E-01  0.51099999109E-03 0.  1.
       11   -1    0    0    0    0 -0.00000000000E+00 -0.00000000000E+00 -0.34996269501E-01  0.35000000000E-01  0.51099999109E-03 0. -1.
       22    1    1    2    0    0  0.13638769440E-01 -0.96305461588E-02 -0.28785199408E-01  0.33276886215E-01  0.00000000000E+00 0. -1.
       22    1    1    2    0    0 -0.14186569008E-03 -0.13692131580E-03 -0.18447795113E-02  0.18552856293E-02  0.00000000000E+00 0. -1.
       22    1    1    2    0    0 -0.13496903750E-01  0.97674674746E-02  0.30629978920E-01  0.34867828156E-01  0.00000000000E+00 0.  1.
</event>
<event>
 5   0  0.4143600E+04  0.9118800E+02  0.7546771E-02  0.1180000E+00
      -11   -1    0    0    0    0  0.00000000000E+00  0.00000000000E+00  0.34996269501E-01  0.35000000000E-01  0.51099999109E-03 0.  1.
       11   -1    0    0    0    0 -0.00000000000E+00 -0.00000000000E+00 -0.34996269501E-01  0.35000000000E-01  0.51099999109E-03 0. -1.
       22    1    1    2    0    0  0.13214175160E-03 -0.51192938905E-03  0.12888555606E-01  0.12899395286E-01  0.00000000000E+00 0. -1.
       22    1    1    2    0    0  0.57175916406E-02 -0.13968470039E-01 -0.30214654760E-01  0.33774759387E-01  0.00000000000E+00 0. -1.
       22    1    1    2    0    0 -0.58497333922E-02  0.14480399428E-01  0.17326099154E-01  0.23325845327E-01  0.00000000000E+00 0.  1.
</event>
<event>
 5   0  0.4143600E+04  0.9118800E+02  0.7546771E-02  0.1180000E+00
      -11   -1    0    0    0    0  0.00000000000E+00  0.00000000000E+00  0.34996269501E-01  0.35000000000E-01  0.51099999109E-03 0.  1.
       11   -1    0    0    0    0 -0.00000000000E+00 -0.00000000000E+00 -0.34996269501E-01  0.35000000000E-01  0.51099999109E-03 0. -1.
       22    1    1    2    0    0  0.37037917654E-02  0.20363053145E-02  0.34722863643E-01  0.34979163403E-01  0.00000000000E+00 0.  1.
       22    1    1    2    0    0 -0.38028318326E-02 -0.21174345166E-02 -0.34387440665E-01  0.34661810893E-01  0.00000000000E+00 0. -1.
       22    1    1    2    0    0  0.99040067225E-04  0.81129202094E-04 -0.33542297772E-03  0.35902570428E-03  0.00000000000E+00 0.  1.
</event>
<event>
 5   0  0.4143600E+04  0.9118800E+02  0.7546771E-02  0.1180000E+00
      -11   -1    0    0    0    0  0.00000000000E+00  0.00000000000E+00  0.34996269501E-01  0.35000000000E-01  0.51099999109E-03 0. -1.
       11   -1    0    0    0    0 -0.00000000000E+00 -0.00000000000E+00 -0.34996269501E-01  0.35000000000E-01  0.51099999109E-03 0.  1.
       22    1    1    2    0    0 -0.48050590206E-03 -0.45769168374E-03 -0.90506026976E-02  0.90748981697E-02  0.00000000000E+00 0.  1.
       22    1    1    2    0    0  0.90705603763E-02 -0.31370411094E-02  0.33455001714E-01  0.34804500171E-01  0.00000000000E+00 0. -1.
       22    1    1    2    0    0 -0.85900544742E-02  0.35947327931E-02 -0.24404399016E-01  0.26120601660E-01  0.00000000000E+00 0.  1.
</event>
<event>
 5   0  0.4143600E+04  0.9118800E+02  0.7546771E-02  0.1180000E+00
      -11   -1    0    0    0    0  0.00000000000E+00  0.00000000000E+00  0.34996269501E-01  0.35000000000E-01  0.51099999109E-03 0. -1.
       11   -1    0    0    0    0 -0.00000000000E+00 -0.00000000000E+00 -0.34996269501E-01  0.35000000000E-01  0.51099999109E-03 0.  1.
       22    1    1    2    0    0 -0.12096329599E-01  0.17299873553E-01 -0.27650612182E-01  0.34787399569E-01  0.00000000000E+00 0.  1.
       22    1    1    2    0    0  0.54524937385E-04  0.31332744533E-04  0.19788913145E-02  0.19798902859E-02  0.00000000000E+00 0.  1.
       22    1    1    2    0    0  0.12041804662E-01 -0.17331206298E-01  0.25671720868E-01  0.33232710145E-01  0.00000000000E+00 0. -1.
</event>
<event>
 5   0  0.4143600E+04  0.9118800E+02  0.7546771E-02  0.1180000E+00
      -11   -1    0    0    0    0  0.00000000000E+00  0.00000000000E+00  0.34996269501E-01  0.35000000000E-01  0.51099999109E-03 0.  1.
       11   -1    0    0    0    0 -0.00000000000E+00 -0.00000000000E+00 -0.34996269501E-01  0.35000000000E-01  0.51099999109E-03 0. -1.
       22    1    1    2    0    0  0.72342042221E-08  0.59430140377E-04  0.57062601890E-03  0.57371246726E-03  0.00000000000E+00 0. -1.
       22    1    1    2    0    0 -0.17456460306E-01  0.32912826142E-02  0.29534556706E-01  0.34465208363E-01  0.00000000000E+00 0.  1.
       22    1    1    2    0    0  0.17456453072E-01 -0.33507127546E-02 -0.30105182725E-01  0.34961079170E-01  0.00000000000E+00 0. -1.
</event>
<event>
 5   0  0.4143600E+04  0.9118800E+02  0.7546771E-02  0.1180000E+00
      -11   -1    0    0    0    0  0.00000000000E+00  0.00000000000E+00  0.34996269501E-01  0.35000000000E-01  0.51099999109E-03 0.  1.
       11   -1    0    0    0    0 -0.00000000000E+00 -0.00000000000E+00 -0.34996269501E-01  0.35000000000E-01  0.51099999109E-03 0.  1.
       22    1    1    2    0    0 -0.31956868783E-03  0.51153197573E-04 -0.34264653800E-01  0.34266182175E-01  0.00000000000E+00 0.  1.
       22    1    1    2    0    0  0.31956868783E-03 -0.51153197573E-04 -0.70001541849E-03  0.77120839076E-03  0.00000000000E+00 0.  1.
       22    1    1    2    0    0 -0.00000000000E+00 -0.00000000000E+00  0.34964669219E-01  0.34962609434E-01  0.00000000000E+00 0.  1.
</event>
<event>
 5   0  0.4143600E+04  0.9118800E+02  0.7546771E-02  0.1180000E+00
      -11   -1    0    0    0    0  0.00000000000E+00  0.00000000000E+00  0.34996269501E-01  0.35000000000E-01  0.51099999109E-03 0.  1.
       11   -1    0    0    0    0 -0.00000000000E+00 -0.00000000000E+00 -0.34996269501E-01  0.35000000000E-01  0.51099999109E-03 0. -1.
       22    1    1    2    0    0 -0.67191988554E-03 -0.59042755583E-03 -0.27319487011E-01  0.27334126136E-01  0.00000000000E+00 0. -1.
       22    1    1    2    0    0  0.34140991115E-02  0.53691143221E-02  0.33665721782E-01  0.34261702883E-01  0.00000000000E+00 0.  1.
       22    1    1    2    0    0 -0.27421792259E-02 -0.47786867663E-02 -0.63462347707E-02  0.84041709813E-02  0.00000000000E+00 0. -1.
</event>
<event>
 5   0  0.4143600E+04  0.9118800E+02  0.7546771E-02  0.1180000E+00
      -11   -1    0    0    0    0  0.00000000000E+00  0.00000000000E+00  0.34996269501E-01  0.35000000000E-01  0.51099999109E-03 0. -1.
       11   -1    0    0    0    0 -0.00000000000E+00 -0.00000000000E+00 -0.34996269501E-01  0.35000000000E-01  0.51099999109E-03 0.  1.
       22    1    1    2    0    0  0.58963166768E-02  0.14056574534E-01  0.31206139146E-01  0.34730058428E-01  0.00000000000E+00 0. -1.
       22    1    1    2    0    0 -0.44802541432E-03  0.36017083227E-03 -0.36651740167E-02  0.37099798346E-02  0.00000000000E+00 0. -1.
       22    1    1    2    0    0 -0.54482912625E-02 -0.14416745366E-01 -0.27540965129E-01  0.31559961738E-01  0.00000000000E+00 0.  1.
</event>
<event>
 5   0  0.4143600E+04  0.9118800E+02  0.7546771E-02  0.1180000E+00
      -11   -1    0    0    0    0  0.00000000000E+00  0.00000000000E+00  0.34996269501E-01  0.35000000000E-01  0.51099999109E-03 0.  1.
       11   -1    0    0    0    0 -0.00000000000E+00 -0.00000000000E+00 -0.34996269501E-01  0.35000000000E-01  0.51099999109E-03 0.  1.
       22    1    1    2    0    0 -0.14651533802E-03  0.11631887588E-03 -0.38605523396E-03  0.42899355337E-03  0.00000000000E+00 0. -1.
       22    1    1    2    0    0  0.14142210425E-03  0.38380852907E-03 -0.34589478431E-01  0.34591896845E-01  0.00000000000E+00 0.  1.
       22    1    1    2    0    0  0.50932337696E-05 -0.50012740495E-03  0.34975533665E-01  0.34979109602E-01  0.00000000000E+00 0.  1.
</event>
<event>
 5   0  0.4143600E+04  0.9118800E+02  0.7546771E-02  0.1180000E+00
      -11   -1    0    0    0    0  0.00000000000E+00  0.00000000000E+00  0.34996269501E-01  0.35000000000E-01  0.51099999109E-03 0. -1.
       11   -1    0    0    0    0 -0.00000000000E+00 -0.00000000000E+00 -0.34996269501E-01  0.35000000000E-01  0.51099999109E-03 0.  1.
       22    1    1    2    0    0 -0.28629807277E-02 -0.27322360634E-03  0.34706757936E-01  0.34825714009E-01  0.00000000000E+00 0. -1.
       22    1    1    2    0    0 -0.76192905238E-03  0.30389087522E-04 -0.92973684689E-03  0.12024433384E-02  0.00000000000E+00 0.  1.
       22    1    1    2    0    0  0.36249097801E-02  0.24283451882E-03 -0.33777021090E-01  0.33971842652E-01  0.00000000000E+00 0.  1.
</event>
<event>
 5   0  0.4143600E+04  0.9118800E+02  0.7546771E-02  0.1180000E+00
      -11   -1    0    0    0    0  0.00000000000E+00  0.00000000000E+00  0.34996269501E-01  0.35000000000E-01  0.51099999109E-03 0.  1.
       11   -1    0    0    0    0 -0.00000000000E+00 -0.00000000000E+00 -0.34996269501E-01  0.35000000000E-01  0.51099999109E-03 0.  1.
       22    1    1    2    0    0 -0.11782720205E-03 -0.93912143009E-04  0.34902188930E-01  0.34902514163E-01  0.00000000000E+00 0.  1.
       22    1    1    2    0    0  0.69156590557E-03 -0.25148149217E-03 -0.13411640170E-02  0.15297801355E-02  0.00000000000E+00 0. -1.
       22    1    1    2    0    0 -0.57373870352E-03  0.34539363517E-03 -0.33561024913E-01  0.33567705702E-01  0.00000000000E+00 0.  1.
</event>
<event>
 5   0  0.4143600E+04  0.9118800E+02  0.7546771E-02  0.1180000E+00
      -11   -1    0    0    0    0  0.00000000000E+00  0.00000000000E+00  0.34996269501E-01  0.35000000000E-01  0.51099999109E-03 0. -1.
       11   -1    0    0    0    0 -0.00000000000E+00 -0.00000000000E+00 -0.34996269501E-01  0.35000000000E-01  0.51099999109E-03 0.  1.
       22    1    1    2    0    0  0.18572528487E-01  0.13710531795E-01 -0.25395450703E-01  0.34319767087E-01  0.00000000000E+00 0.  1.
       22    1    1    2    0    0 -0.73741890865E-03 -0.10879361994E-03 -0.86680612081E-03  0.11432303135E-02  0.00000000000E+00 0. -1.
       22    1    1    2    0    0 -0.17835109578E-01 -0.13601738175E-01  0.26262256824E-01  0.34537002599E-01  0.00000000000E+00 0. -1.
</event>
<event>
 5   0  0.4143600E+04  0.9118800E+02  0.7546771E-02  0.1180000E+00
      -11   -1    0    0    0    0  0.00000000000E+00  0.00000000000E+00  0.34996269501E-01  0.35000000000E-01  0.51099999109E-03 0.  1.
       11   -1    0    0    0    0 -0.00000000000E+00 -0.00000000000E+00 -0.34996269501E-01  0.35000000000E-01  0.51099999109E-03 0. -1.
       22    1    1    2    0    0 -0.43945114631E-02  0.66447973296E-02  0.32957347542E-01  0.33906515887E-01  0.00000000000E+00 0.  1.
       22    1    1    2    0    0 -0.14299972416E-02 -0.42165415828E-03 -0.22734687921E-01  0.22783518588E-01  0.00000000000E+00 0. -1.
       22    1    1    2    0    0  0.58245087048E-02 -0.62231431713E-02 -0.10222659621E-01  0.13309965526E-01  0.00000000000E+00 0. -1.
</event>
<event>
 5   0  0.4143600E+04  0.9118800E+02  0.7546771E-02  0.1180000E+00
      -11   -1    0    0    0    0  0.00000000000E+00  0.00000000000E+00  0.34996269501E-01  0.35000000000E-01  0.51099999109E-03 0. -1.
       11   -1    0    0    0    0 -0.00000000000E+00 -0.00000000000E+00 -0.34996269501E-01  0.35000000000E-01  0.51099999109E-03 0.  1.
       22    1    1    2    0    0  0.50899464495E-02 -0.23159137189E-01  0.24748835138E-01  0.34274743338E-01  0.00000000000E+00 0. -1.
       22    1    1    2    0    0 -0.16100026775E-03 -0.10237715561E-02 -0.14707745993E-02  0.17992240570E-02  0.00000000000E+00 0. -1.
       22    1    1    2    0    0 -0.49289461817E-02  0.24182908745E-01 -0.23278060539E-01  0.33926032605E-01  0.00000000000E+00 0.  1.
</event>
<event>
 5   0  0.4143600E+04  0.9118800E+02  0.7546771E-02  0.1180000E+00
      -11   -1    0    0    0    0  0.00000000000E+00  0.00000000000E+00  0.34996269501E-01  0.35000000000E-01  0.51099999109E-03 0.  1.
       11   -1    0    0    0    0 -0.00000000000E+00 -0.00000000000E+00 -0.34996269501E-01  0.35000000000E-01  0.51099999109E-03 0. -1.
       22    1    1    2    0    0  0.79249013960E-03  0.21019209357E-02 -0.25775302493E-01  0.25873003901E-01  0.00000000000E+00 0. -1.
       22    1    1    2    0    0 -0.32638323014E-02 -0.18390939182E-02 -0.87469184954E-02  0.95154322496E-02  0.00000000000E+00 0. -1.
       22    1    1    2    0    0  0.24713421619E-02 -0.26282701753E-03  0.34522220989E-01  0.34611563849E-01  0.00000000000E+00 0.  1.
</event>
<event>
 5   0  0.4143600E+04  0.9118800E+02  0.7546771E-02  0.1180000E+00
      -11   -1    0    0    0    0  0.00000000000E+00  0.00000000000E+00  0.34996269501E-01  0.35000000000E-01  0.51099999109E-03 0.  1.
       11   -1    0    0    0    0 -0.00000000000E+00 -0.00000000000E+00 -0.34996269501E-01  0.35000000000E-01  0.51099999109E-03 0. -1.
       22    1    1    2    0    0  0.24836377442E-02  0.75950126072E-02  0.30135573304E-01  0.31177001961E-01  0.00000000000E+00 0.  1.
       22    1    1    2    0    0 -0.11934811270E-01 -0.82222825286E-02 -0.14232215770E-01  0.20312597464E-01  0.00000000000E+00 0. -1.
       22    1    1    2    0    0  0.94511735256E-02  0.62726992142E-03 -0.15903357534E-01  0.18510400574E-01  0.00000000000E+00 0. -1.
</event>
<event>
 5   0  0.4143600E+04  0.9118800E+02  0.7546771E-02  0.1180000E+00
      -11   -1    0    0    0    0  0.00000000000E+00  0.00000000000E+00  0.34996269501E-01  0.35000000000E-01  0.51099999109E-03 0. -1.
       11   -1    0    0    0    0 -0.00000000000E+00 -0.00000000000E+00 -0.34996269501E-01  0.35000000000E-01  0.51099999109E-03 0.  1.
       22    1    1    2    0    0 -0.22100901774E-04 -0.85014462231E-04  0.48143793255E-03  0.48938572879E-03  0.00000000000E+00 0.  1.
       22    1    1    2    0    0  0.12651511772E-01  0.11903220956E-02  0.32113887724E-01  0.34536638539E-01  0.00000000000E+00 0. -1.
       22    1    1    2    0    0 -0.12629410870E-01 -0.11053076333E-02 -0.32595325657E-01  0.34973975733E-01  0.00000000000E+00 0.  1.
</event>
<event>
 5   0  0.4143600E+04  0.9118800E+02  0.7546771E-02  0.1180000E+00
      -11   -1    0    0    0    0  0.00000000000E+00  0.00000000000E+00  0.34996269501E-01  0.35000000000E-01  0.51099999109E-03 0. -1.
       11   -1    0    0    0    0 -0.00000000000E+00 -0.00000000000E+00 -0.34996269501E-01  0.35000000000E-01  0.51099999109E-03 0.  1.
       22    1    1    2    0    0 -0.20532511280E-03 -0.30480122659E-03 -0.41800329452E-02  0.41961574818E-02  0.00000000000E+00 0.  1.
       22    1    1    2    0    0 -0.94257213930E-03 -0.11957730625E-01  0.32650256741E-01  0.34783832871E-01  0.00000000000E+00 0. -1.
       22    1    1    2    0    0  0.11478972521E-02  0.12262531851E-01 -0.28470223796E-01  0.31020009647E-01  0.00000000000E+00 0.  1.
</event>
<event>
 5   0  0.4143600E+04  0.9118800E+02  0.7546771E-02  0.1180000E+00
      -11   -1    0    0    0    0  0.00000000000E+00  0.00000000000E+00  0.34996269501E-01  0.35000000000E-01  0.51099999109E-03 0.  1.
       11   -1    0    0    0    0 -0.00000000000E+00 -0.00000000000E+00 -0.34996269501E-01  0.35000000000E-01  0.51099999109E-03 0. -1.
       22    1    1    2    0    0 -0.10567801583E-02 -0.93417552736E-02  0.32407962267E-01  0.33744054205E-01  0.00000000000E+00 0.  1.
       22    1    1    2    0    0 -0.91412293549E-03  0.12221577835E-01 -0.20877043000E-01  0.24208542086E-01  0.00000000000E+00 0. -1.
       22    1    1    2    0    0  0.19709030938E-02 -0.28798225614E-02 -0.11530919267E-01  0.12047403709E-01  0.00000000000E+00 0.  1.
</event>
<event>
 5   0  0.4143600E+04  0.9118800E+02  0.7546771E-02  0.1180000E+00
      -11   -1    0    0    0    0  0.00000000000E+00  0.00000000000E+00  0.34996269501E-01  0.35000000000E-01  0.51099999109E-03 0.  1.
       11   -1    0    0    0    0 -0.00000000000E+00 -0.00000000000E+00 -0.34996269501E-01  0.35000000000E-01  0.51099999109E-03 0. -1.
       22    1    1    2    0    0 -0.71023398725E-02 -0.95448481051E-02  0.32524866824E-01  0.34632561541E-01  0.00000000000E+00 0.  1.
       22    1    1    2    0    0  0.70920725763E-02  0.96097831014E-02 -0.32892620254E-01  0.34993855059E-01  0.00000000000E+00 0. -1.
       22    1    1    2    0    0  0.10267296146E-04 -0.64934996373E-04  0.36775343066E-03  0.37358340018E-03  0.00000000000E+00 0. -1.
</event>
<event>
 5   0  0.4143600E+04  0.9118800E+02  0.7546771E-02  0.1180000E+00
      -11   -1    0    0    0    0  0.00000000000E+00  0.00000000000E+00  0.34996269501E-01  0.35000000000E-01  0.51099999109E-03 0.  1.
       11   -1    0    0    0    0 -0.00000000000E+00 -0.00000000000E+00 -0.34996269501E-01  0.35000000000E-01  0.51099999109E-03 0. -1.
       22    1    1    2    0    0 -0.11745166315E-02 -0.48267069123E-03  0.28278980104E-02  0.30999141071E-02  0.00000000000E+00 0. -1.
       22    1    1    2    0    0  0.22863967813E-01 -0.92987803149E-02 -0.24455599793E-01  0.34746290460E-01  0.00000000000E+00 0. -1.
       22    1    1    2    0    0 -0.21689451181E-01  0.97814510061E-02  0.21627701783E-01  0.32153795433E-01  0.00000000000E+00 0.  1.
</event>
<event>
 5   0  0.4143600E+04  0.9118800E+02  0.7546771E-02  0.1180000E+00
      -11   -1    0    0    0    0  0.00000000000E+00  0.00000000000E+00  0.34996269501E-01  0.35000000000E-01  0.51099999109E-03 0. -1.
       11   -1    0    0    0    0 -0.00000000000E+00 -0.00000000000E+00 -0.34996269501E-01  0.35000000000E-01  0.51099999109E-03 0.  1.
       22    1    1    2    0    0  0.25513446719E-02 -0.31947000661E-02  0.10037365564E-01  0.10838089112E-01  0.00000000000E+00 0. -1.
       22    1    1    2    0    0  0.18636724260E-01  0.13486835902E-01 -0.22784641212E-01  0.32378420421E-01  0.00000000000E+00 0.  1.
       22    1    1    2    0    0 -0.21188068932E-01 -0.10292135836E-01  0.12747275649E-01  0.26783490467E-01  0.00000000000E+00 0. -1.
</event>
<event>
 5   0  0.4143600E+04  0.9118800E+02  0.7546771E-02  0.1180000E+00
      -11   -1    0    0    0    0  0.00000000000E+00  0.00000000000E+00  0.34996269501E-01  0.35000000000E-01  0.51099999109E-03 0.  1.
       11   -1    0    0    0    0 -0.00000000000E+00 -0.00000000000E+00 -0.34996269501E-01  0.35000000000E-01  0.51099999109E-03 0. -1.
       22    1    1    2    0    0 -0.89545881275E-03 -0.55727761975E-02 -0.32870352430E-01  0.33351428004E-01  0.00000000000E+00 0. -1.
       22    1    1    2    0    0  0.17234785960E-02  0.57809499545E-02  0.34384849693E-01  0.34909993544E-01  0.00000000000E+00 0.  1.
       22    1    1    2    0    0 -0.82801978329E-03 -0.20817375703E-03 -0.15144972632E-02  0.17385784524E-02  0.00000000000E+00 0.  1.
</event>
<event>
 5   0  0.4143600E+04  0.9118800E+02  0.7546771E-02  0.1180000E+00
      -11   -1    0    0    0    0  0.00000000000E+00  0.00000000000E+00  0.34996269501E-01  0.35000000000E-01  0.51099999109E-03 0. -1.
       11   -1    0    0    0    0 -0.00000000000E+00 -0.00000000000E+00 -0.34996269501E-01  0.35000000000E-01  0.51099999109E-03 0.  1.
       22    1    1    2    0    0 -0.14699743201E-02  0.98484275694E-04 -0.13706796591E-01  0.13785746133E-01  0.00000000000E+00 0. -1.
       22    1    1    2    0    0 -0.12537019110E-02 -0.97783844730E-02  0.33009016797E-01  0.34449728030E-01  0.00000000000E+00 0. -1.
       22    1    1    2    0    0  0.27236762311E-02  0.96799001973E-02 -0.19302220207E-01  0.21764525838E-01  0.00000000000E+00 0.  1.
</event>
<event>
 5   0  0.4143600E+04  0.9118800E+02  0.7546771E-02  0.1180000E+00
      -11   -1    0    0    0    0  0.00000000000E+00  0.00000000000E+00  0.34996269501E-01  0.35000000000E-01  0.51099999109E-03 0. -1.
       11   -1    0    0    0    0 -0.00000000000E+00 -0.00000000000E+00 -0.34996269501E-01  0.35000000000E-01  0.51099999109E-03 0.  1.
       22    1    1    2    0    0 -0.27872408082E-02 -0.11404631459E-01 -0.16417896102E-01  0.20183697443E-01  0.00000000000E+00 0.  1.
       22    1    1    2    0    0  0.25389932388E-02  0.10759045762E-01  0.32186796086E-01  0.34032240518E-01  0.00000000000E+00 0. -1.
       22    1    1    2    0    0  0.24824756935E-03  0.64558569685E-03 -0.15768899984E-01  0.15784062039E-01  0.00000000000E+00 0.  1.
</event>
<event>
 5   0  0.4143600E+04  0.9118800E+02  0.7546771E-02  0.1180000E+00
      -11   -1    0    0    0    0  0.00000000000E+00  0.00000000000E+00  0.34996269501E-01  0.35000000000E-01  0.51099999109E-03 0.  1.
       11   -1    0    0    0    0 -0.00000000000E+00 -0.00000000000E+00 -0.34996269501E-01  0.35000000000E-01  0.51099999109E-03 0. -1.
       22    1    1    2    0    0 -0.16264730303E-02 -0.43962118748E-02  0.34211758843E-01  0.34531384805E-01  0.00000000000E+00 0.  1.
       22    1    1    2    0    0 -0.24254230237E-03  0.33337772860E-03 -0.26862233857E-01  0.26865397359E-01  0.00000000000E+00 0. -1.
       22    1    1    2    0    0  0.18690153326E-02  0.40628341462E-02 -0.73495249863E-02  0.86032178362E-02  0.00000000000E+00 0. -1.
</event>
<event>
 5   0  0.4143600E+04  0.9118800E+02  0.7546771E-02  0.1180000E+00
      -11   -1    0    0    0    0  0.00000000000E+00  0.00000000000E+00  0.34996269501E-01  0.35000000000E-01  0.51099999109E-03 0.  1.
       11   -1    0    0    0    0 -0.00000000000E+00 -0.00000000000E+00 -0.34996269501E-01  0.35000000000E-01  0.51099999109E-03 0. -1.
       22    1    1    2    0    0 -0.10318942778E-01  0.30150743818E-01 -0.77538274383E-02  0.32797404970E-01  0.00000000000E+00 0. -1.
       22    1    1    2    0    0  0.82747687772E-02 -0.28763431896E-01  0.12035542955E-01  0.32259279393E-01  0.00000000000E+00 0.  1.
       22    1    1    2    0    0  0.20441740012E-02 -0.13873119221E-02 -0.42817155171E-02  0.49433156369E-02  0.00000000000E+00 0.  1.
</event>
<event>
 5   0  0.4143600E+04  0.9118800E+02  0.7546771E-02  0.1180000E+00
      -11   -1    0    0    0    0  0.00000000000E+00  0.00000000000E+00  0.34996269501E-01  0.35000000000E-01  0.51099999109E-03 0.  1.
       11   -1    0    0    0    0 -0.00000000000E+00 -0.00000000000E+00 -0.34996269501E-01  0.35000000000E-01  0.51099999109E-03 0. -1.
       22    1    1    2    0    0  0.66067386404E-02 -0.74989611990E-02  0.33263810116E-01  0.34732757996E-01  0.00000000000E+00 0.  1.
       22    1    1    2    0    0 -0.63629540474E-02  0.72584258399E-02 -0.22316369991E-01  0.24314446312E-01  0.00000000000E+00 0. -1.
       22    1    1    2    0    0 -0.24378459302E-03  0.24053535908E-03 -0.10947440125E-01  0.10952795692E-01  0.00000000000E+00 0. -1.
</event>
<event>
 5   0  0.4143600E+04  0.9118800E+02  0.7546771E-02  0.1180000E+00
      -11   -1    0    0    0    0  0.00000000000E+00  0.00000000000E+00  0.34996269501E-01  0.35000000000E-01  0.51099999109E-03 0. -1.
       11   -1    0    0    0    0 -0.00000000000E+00 -0.00000000000E+00 -0.34996269501E-01  0.35000000000E-01  0.51099999109E-03 0.  1.
       22    1    1    2    0    0 -0.27120805013E-02  0.28570821594E-02 -0.31251384183E-01  0.31498687472E-01  0.00000000000E+00 0.  1.
       22    1    1    2    0    0  0.40214706831E-02 -0.22688424673E-02  0.34574481127E-01  0.34881436579E-01  0.00000000000E+00 0. -1.
       22    1    1    2    0    0 -0.13093901819E-02 -0.58823969208E-03 -0.33230969447E-02  0.36198759492E-02  0.00000000000E+00 0. -1.
</event>
<event>
 5   0  0.4143600E+04  0.9118800E+02  0.7546771E-02  0.1180000E+00
      -11   -1    0    0    0    0  0.00000000000E+00  0.00000000000E+00  0.34996269501E-01  0.35000000000E-01  0.51099999109E-03 0.  1.
       11   -1    0    0    0    0 -0.00000000000E+00 -0.00000000000E+00 -0.34996269501E-01  0.35000000000E-01  0.51099999109E-03 0.  1.
       22    1    1    2    0    0  0.14920386694E-02 -0.26741762802E-02 -0.27499400924E-01  0.27669377466E-01  0.00000000000E+00 0.  1.
       22    1    1    2    0    0 -0.21302832668E-02  0.28563256752E-02 -0.69841931939E-02  0.78406414106E-02  0.00000000000E+00 0. -1.
       22    1    1    2    0    0  0.63824459748E-03 -0.18214939499E-03  0.34483594118E-01  0.34489981123E-01  0.00000000000E+00 0.  1.
</event>
<event>
 5   0  0.4143600E+04  0.9118800E+02  0.7546771E-02  0.1180000E+00
      -11   -1    0    0    0    0  0.00000000000E+00  0.00000000000E+00  0.34996269501E-01  0.35000000000E-01  0.51099999109E-03 0. -1.
       11   -1    0    0    0    0 -0.00000000000E+00 -0.00000000000E+00 -0.34996269501E-01  0.35000000000E-01  0.51099999109E-03 0.  1.
       22    1    1    2    0    0  0.22423760616E-02 -0.19073113117E-01  0.23448005906E-01  0.30308759054E-01  0.00000000000E+00 0. -1.
       22    1    1    2    0    0 -0.31456501480E-02  0.49988424440E-02  0.51297658627E-02  0.78229175146E-02  0.00000000000E+00 0.  1.
       22    1    1    2    0    0  0.90327408635E-03  0.14074270673E-01 -0.28577771769E-01  0.31868323432E-01  0.00000000000E+00 0.  1.
</event>
<event>
 5   0  0.4143600E+04  0.9118800E+02  0.7546771E-02  0.1180000E+00
      -11   -1    0    0    0    0  0.00000000000E+00  0.00000000000E+00  0.34996269501E-01  0.35000000000E-01  0.51099999109E-03 0.  1.
       11   -1    0    0    0    0 -0.00000000000E+00 -0.00000000000E+00 -0.34996269501E-01  0.35000000000E-01  0.51099999109E-03 0. -1.
       22    1    1    2    0    0 -0.19558933891E-01 -0.12047663329E-01  0.26268523514E-01  0.34896037229E-01  0.00000000000E+00 0.  1.
       22    1    1    2    0    0  0.18991054558E-01  0.12184697063E-01 -0.24827044698E-01  0.33548608677E-01  0.00000000000E+00 0. -1.
       22    1    1    2    0    0  0.56787933361E-03 -0.13703373410E-03 -0.14414788157E-02  0.15553540941E-02  0.00000000000E+00 0. -1.
</event>
<event>
 5   0  0.4143600E+04  0.9118800E+02  0.7546771E-02  0.1180000E+00
      -11   -1    0    0    0    0  0.00000000000E+00  0.00000000000E+00  0.34996269501E-01  0.35000000000E-01  0.51099999109E-03 0.  1.
       11   -1    0    0    0    0 -0.00000000000E+00 -0.00000000000E+00 -0.34996269501E-01  0.35000000000E-01  0.51099999109E-03 0.  1.
       22    1    1    2    0    0  0.54423699131E-03 -0.64081232372E-03 -0.96359701434E-03  0.12788094240E-02  0.00000000000E+00 0. -1.
       22    1    1    2    0    0 -0.21312355152E-02  0.17001495526E-02 -0.33797742582E-01  0.33907522424E-01  0.00000000000E+00 0.  1.
       22    1    1    2    0    0  0.15869985239E-02 -0.10593372289E-02  0.34761339596E-01  0.34813668152E-01  0.00000000000E+00 0.  1.
</event>
<event>
 5   0  0.4143600E+04  0.9118800E+02  0.7546771E-02  0.1180000E+00
      -11   -1    0    0    0    0  0.00000000000E+00  0.00000000000E+00  0.34996269501E-01  0.35000000000E-01  0.51099999109E-03 0.  1.
       11   -1    0    0    0    0 -0.00000000000E+00 -0.00000000000E+00 -0.34996269501E-01  0.35000000000E-01  0.51099999109E-03 0. -1.
       22    1    1    2    0    0 -0.92824881601E-03  0.52111831393E-03  0.97304508256E-03  0.14422298341E-02  0.00000000000E+00 0.  1.
       22    1    1    2    0    0  0.18037913752E-01 -0.13438539364E-01  0.25819863844E-01  0.34243627753E-01  0.00000000000E+00 0.  1.
       22    1    1    2    0    0 -0.17109664936E-01  0.12917421050E-01 -0.26792908926E-01  0.34314142413E-01  0.00000000000E+00 0. -1.
</event>
<event>
 5   0  0.4143600E+04  0.9118800E+02  0.7546771E-02  0.1180000E+00
      -11   -1    0    0    0    0  0.00000000000E+00  0.00000000000E+00  0.34996269501E-01  0.35000000000E-01  0.51099999109E-03 0.  1.
       11   -1    0    0    0    0 -0.00000000000E+00 -0.00000000000E+00 -0.34996269501E-01  0.35000000000E-01  0.51099999109E-03 0. -1.
       22    1    1    2    0    0 -0.99563127560E-02  0.10266859146E-01 -0.21238394001E-01  0.25604803068E-01  0.00000000000E+00 0. -1.
       22    1    1    2    0    0  0.20195601041E-02 -0.66949438695E-02 -0.98677645377E-02  0.12094365358E-01  0.00000000000E+00 0. -1.
       22    1    1    2    0    0  0.79367526519E-02 -0.35719152763E-02  0.31106158538E-01  0.32300831575E-01  0.00000000000E+00 0.  1.
</event>
<event>
 5   0  0.4143600E+04  0.9118800E+02  0.7546771E-02  0.1180000E+00
      -11   -1    0    0    0    0  0.00000000000E+00  0.00000000000E+00  0.34996269501E-01  0.35000000000E-01  0.51099999109E-03 0. -1.
       11   -1    0    0    0    0 -0.00000000000E+00 -0.00000000000E+00 -0.34996269501E-01  0.35000000000E-01  0.51099999109E-03 0.  1.
       22    1    1    2    0    0  0.68450791102E-04  0.16662662670E-03 -0.68897551558E-02  0.68921096952E-02  0.00000000000E+00 0.  1.
       22    1    1    2    0    0 -0.10339900856E-01  0.13281424637E-01 -0.23154494940E-01  0.28625869873E-01  0.00000000000E+00 0.  1.
       22    1    1    2    0    0  0.10271450065E-01 -0.13448051263E-01  0.30044250096E-01  0.34482020431E-01  0.00000000000E+00 0. -1.
</event>
<event>
 5   0  0.4143600E+04  0.9118800E+02  0.7546771E-02  0.1180000E+00
      -11   -1    0    0    0    0  0.00000000000E+00  0.00000000000E+00  0.34996269501E-01  0.35000000000E-01  0.51099999109E-03 0.  1.
       11   -1    0    0    0    0 -0.00000000000E+00 -0.00000000000E+00 -0.34996269501E-01  0.35000000000E-01  0.51099999109E-03 0. -1.
       22    1    1    2    0    0  0.13371791183E-01 -0.12816174588E-01 -0.19231911056E-01  0.26700665411E-01  0.00000000000E+00 0. -1.
       22    1    1    2    0    0 -0.12423998440E-01 -0.84416618246E-02  0.15702188259E-01  0.21729613612E-01  0.00000000000E+00 0.  1.
       22    1    1    2    0    0 -0.94779274355E-03  0.21257836412E-01  0.35297227972E-02  0.21569720977E-01  0.00000000000E+00 0. -1.
</event>
<event>
 5   0  0.4143600E+04  0.9118800E+02  0.7546771E-02  0.1180000E+00
      -11   -1    0    0    0    0  0.00000000000E+00  0.00000000000E+00  0.34996269501E-01  0.35000000000E-01  0.51099999109E-03 0. -1.
       11   -1    0    0    0    0 -0.00000000000E+00 -0.00000000000E+00 -0.34996269501E-01  0.35000000000E-01  0.51099999109E-03 0. -1.
       22    1    1    2    0    0  0.00000000000E+00  0.00000000000E+00  0.34739286534E-01  0.34739189190E-01  0.00000000000E+00 0. -1.
       22    1    1    2    0    0 -0.60988783734E-03 -0.17699621567E-02 -0.35324018293E-02  0.39978233946E-02  0.00000000000E+00 0.  1.
       22    1    1    2    0    0  0.60988783734E-03  0.17699621567E-02 -0.31206884704E-01  0.31262987416E-01  0.00000000000E+00 0. -1.
</event>
<event>
 5   0  0.4143600E+04  0.9118800E+02  0.7546771E-02  0.1180000E+00
      -11   -1    0    0    0    0  0.00000000000E+00  0.00000000000E+00  0.34996269501E-01  0.35000000000E-01  0.51099999109E-03 0.  1.
       11   -1    0    0    0    0 -0.00000000000E+00 -0.00000000000E+00 -0.34996269501E-01  0.35000000000E-01  0.51099999109E-03 0. -1.
       22    1    1    2    0    0 -0.41936666565E-02 -0.13908676483E-02 -0.33467566499E-01  0.33757952547E-01  0.00000000000E+00 0. -1.
       22    1    1    2    0    0  0.48040665512E-03 -0.44222889210E-03 -0.11796115419E-02  0.13482730944E-02  0.00000000000E+00 0.  1.
       22    1    1    2    0    0  0.37132600014E-02  0.18330965404E-02  0.34647178041E-01  0.34893774358E-01  0.00000000000E+00 0.  1.
</event>
<event>
 5   0  0.4143600E+04  0.9118800E+02  0.7546771E-02  0.1180000E+00
      -11   -1    0    0    0    0  0.00000000000E+00  0.00000000000E+00  0.34996269501E-01  0.35000000000E-01  0.51099999109E-03 0. -1.
       11   -1    0    0    0    0 -0.00000000000E+00 -0.00000000000E+00 -0.34996269501E-01  0.35000000000E-01  0.51099999109E-03 0.  1.
       22    1    1    2    0    0  0.24628409370E-01 -0.20312305894E-02 -0.21832520367E-01  0.32974890316E-01  0.00000000000E+00 0.  1.
       22    1    1    2    0    0 -0.25078389327E-01  0.29067573861E-02  0.23881461368E-01  0.34751964647E-01  0.00000000000E+00 0. -1.
       22    1    1    2    0    0  0.44997995691E-03 -0.87552679677E-03 -0.20489410011E-02  0.22731450370E-02  0.00000000000E+00 0.  1.
</event>
<event>
 5   0  0.4143600E+04  0.9118800E+02  0.7546771E-02  0.1180000E+00
      -11   -1    0    0    0    0  0.00000000000E+00  0.00000000000E+00  0.34996269501E-01  0.35000000000E-01  0.51099999109E-03 0. -1.
       11   -1    0    0    0    0 -0.00000000000E+00 -0.00000000000E+00 -0.34996269501E-01  0.35000000000E-01  0.51099999109E-03 0. -1.
       22    1    1    2    0    0 -0.66554647462E-04 -0.32252763577E-03  0.34948716572E-01  0.34950268148E-01  0.00000000000E+00 0. -1.
       22    1    1    2    0    0 -0.17711490125E-03  0.42810639473E-03 -0.10234943370E-02  0.11234702628E-02  0.00000000000E+00 0.  1.
       22    1    1    2    0    0  0.24366954871E-03 -0.10557875897E-03 -0.33925222235E-01  0.33926261589E-01  0.00000000000E+00 0. -1.
</event>
<event>
 5   0  0.4143600E+04  0.9118800E+02  0.7546771E-02  0.1180000E+00
      -11   -1    0    0    0    0  0.00000000000E+00  0.00000000000E+00  0.34996269501E-01  0.35000000000E-01  0.51099999109E-03 0.  1.
       11   -1    0    0    0    0 -0.00000000000E+00 -0.00000000000E+00 -0.34996269501E-01  0.35000000000E-01  0.51099999109E-03 0. -1.
       22    1    1    2    0    0  0.49702066062E-03  0.11474974321E-03 -0.13318981867E-02  0.14262362428E-02  0.00000000000E+00 0. -1.
       22    1    1    2    0    0 -0.14355864166E-01 -0.12498335038E-01  0.29332113837E-01  0.34966728712E-01  0.00000000000E+00 0. -1.
       22    1    1    2    0    0  0.13858843506E-01  0.12383585295E-01 -0.28000215650E-01  0.33607035045E-01  0.00000000000E+00 0.  1.
</event>
<event>
 5   0  0.4143600E+04  0.9118800E+02  0.7546771E-02  0.1180000E+00
      -11   -1    0    0    0    0  0.00000000000E+00  0.00000000000E+00  0.34996269501E-01  0.35000000000E-01  0.51099999109E-03 0. -1.
       11   -1    0    0    0    0 -0.00000000000E+00 -0.00000000000E+00 -0.34996269501E-01  0.35000000000E-01  0.51099999109E-03 0. -1.
       22    1    1    2    0    0 -0.29049152559E-03  0.87263139938E-03 -0.30974617928E-01  0.30988269178E-01  0.00000000000E+00 0. -1.
       22    1    1    2    0    0  0.30759953444E-02 -0.16217926737E-02  0.34376293832E-01  0.34551722627E-01  0.00000000000E+00 0. -1.
       22    1    1    2    0    0 -0.27855038188E-02  0.74916127430E-03 -0.34016759044E-02  0.44600081948E-02  0.00000000000E+00 0.  1.
</event>
<event>
 5   0  0.4143600E+04  0.9118800E+02  0.7546771E-02  0.1180000E+00
      -11   -1    0    0    0    0  0.00000000000E+00  0.00000000000E+00  0.34996269501E-01  0.35000000000E-01  0.51099999109E-03 0. -1.
       11   -1    0    0    0    0 -0.00000000000E+00 -0.00000000000E+00 -0.34996269501E-01  0.35000000000E-01  0.51099999109E-03 0.  1.
       22    1    1    2    0    0  0.24673540063E-02  0.87523618676E-02 -0.20251421577E-01  0.22199363729E-01  0.00000000000E+00 0.  1.
       22    1    1    2    0    0 -0.13569731176E-02 -0.12602990173E-01  0.32515220620E-01  0.34898657701E-01  0.00000000000E+00 0. -1.
       22    1    1    2    0    0 -0.11103808888E-02  0.38506283059E-02 -0.12263799043E-01  0.12901978570E-01  0.00000000000E+00 0.  1.
</event>
<event>
 5   0  0.4143600E+04  0.9118800E+02  0.7546771E-02  0.1180000E+00
      -11   -1    0    0    0    0  0.00000000000E+00  0.00000000000E+00  0.34996269501E-01  0.35000000000E-01  0.51099999109E-03 0. -1.
       11   -1    0    0    0    0 -0.00000000000E+00 -0.00000000000E+00 -0.34996269501E-01  0.35000000000E-01  0.51099999109E-03 0.  1.
       22    1    1    2    0    0  0.44039891849E-02 -0.17801015499E-01  0.25417273637E-01  0.31341810297E-01  0.00000000000E+00 0. -1.
       22    1    1    2    0    0  0.30060663419E-03  0.90754484534E-03  0.41625122822E-02  0.42708910656E-02  0.00000000000E+00 0.  1.
       22    1    1    2    0    0 -0.47045958191E-02  0.16893470654E-01 -0.29579785919E-01  0.34387298637E-01  0.00000000000E+00 0.  1.
</event>
<event>
 5   0  0.4143600E+04  0.9118800E+02  0.7546771E-02  0.1180000E+00
      -11   -1    0    0    0    0  0.00000000000E+00  0.00000000000E+00  0.34996269501E-01  0.35000000000E-01  0.51099999109E-03 0. -1.
       11   -1    0    0    0    0 -0.00000000000E+00 -0.00000000000E+00 -0.34996269501E-01  0.35000000000E-01  0.51099999109E-03 0.  1.
       22    1    1    2    0    0  0.18920074136E-01  0.67636616047E-03 -0.22484556452E-01  0.29393569966E-01  0.00000000000E+00 0.  1.
       22    1    1    2    0    0  0.14618520429E-02  0.21648037407E-02 -0.53716809073E-02  0.59731350563E-02  0.00000000000E+00 0.  1.
       22    1    1    2    0    0 -0.20381926179E-01 -0.28411699012E-02  0.27856237360E-01  0.34633294978E-01  0.00000000000E+00 0. -1.
</event>
<event>
 5   0  0.4143600E+04  0.9118800E+02  0.7546771E-02  0.1180000E+00
      -11   -1    0    0    0    0  0.00000000000E+00  0.00000000000E+00  0.34996269501E-01  0.35000000000E-01  0.51099999109E-03 0. -1.
       11   -1    0    0    0    0 -0.00000000000E+00 -0.00000000000E+00 -0.34996269501E-01  0.35000000000E-01  0.51099999109E-03 0.  1.
       22    1    1    2    0    0 -0.16485423620E-01 -0.11209795234E-01 -0.27344694535E-01  0.33840227841E-01  0.00000000000E+00 0.  1.
       22    1    1    2    0    0 -0.71425285243E-05 -0.10244887254E-03  0.90636564237E-02  0.90642382225E-02  0.00000000000E+00 0.  1.
       22    1    1    2    0    0  0.16492566148E-01  0.11312244107E-01  0.18281038111E-01  0.27095533937E-01  0.00000000000E+00 0. -1.
</event>
<event>
 5   0  0.4143600E+04  0.9118800E+02  0.7546771E-02  0.1180000E+00
      -11   -1    0    0    0    0  0.00000000000E+00  0.00000000000E+00  0.34996269501E-01  0.35000000000E-01  0.51099999109E-03 0. -1.
       11   -1    0    0    0    0 -0.00000000000E+00 -0.00000000000E+00 -0.34996269501E-01  0.35000000000E-01  0.51099999109E-03 0.  1.
       22    1    1    2    0    0 -0.53237615498E-02 -0.12714325074E-01 -0.21136049495E-01  0.25233491383E-01  0.00000000000E+00 0.  1.
       22    1    1    2    0    0 -0.12426321884E-02  0.11105643939E-02  0.29158546076E-01  0.29206134584E-01  0.00000000000E+00 0. -1.
       22    1    1    2    0    0  0.65663937382E-02  0.11603760680E-01 -0.80224965817E-02  0.15560374033E-01  0.00000000000E+00 0. -1.
</event>
<event>
 5   0  0.4143600E+04  0.9118800E+02  0.7546771E-02  0.1180000E+00
      -11   -1    0    0    0    0  0.00000000000E+00  0.00000000000E+00  0.34996269501E-01  0.35000000000E-01  0.51099999109E-03 0. -1.
       11   -1    0    0    0    0 -0.00000000000E+00 -0.00000000000E+00 -0.34996269501E-01  0.35000000000E-01  0.51099999109E-03 0.  1.
       22    1    1    2    0    0 -0.15444622215E-01  0.18688235927E-01  0.23432961369E-01  0.33717802359E-01  0.00000000000E+00 0. -1.
       22    1    1    2    0    0  0.15994520969E-01 -0.18467549690E-01 -0.24787538707E-01  0.34803694743E-01  0.00000000000E+00 0.  1.
       22    1    1    2    0    0 -0.54989875438E-03 -0.22068623629E-03  0.13545773383E-02  0.14785028984E-02  0.00000000000E+00 0.  1.
</event>
<event>
 5   0  0.4143600E+04  0.9118800E+02  0.7546771E-02  0.1180000E+00
      -11   -1    0    0    0    0  0.00000000000E+00  0.00000000000E+00  0.34996269501E-01  0.35000000000E-01  0.51099999109E-03 0.  1.
       11   -1    0    0    0    0 -0.00000000000E+00 -0.00000000000E+00 -0.34996269501E-01  0.35000000000E-01  0.51099999109E-03 0.  1.
       22    1    1    2    0    0 -0.18085836349E-01 -0.27281462773E-02 -0.22762665913E-01  0.29200671534E-01  0.00000000000E+00 0.  1.
       22    1    1    2    0    0  0.18085836349E-01  0.27281462773E-02  0.25479180984E-03  0.18292216307E-01  0.00000000000E+00 0. -1.
       22    1    1    2    0    0 -0.00000000000E+00  0.00000000000E+00  0.22507874103E-01  0.22507112160E-01  0.00000000000E+00 0.  1.
</event>
<event>
 5   0  0.4143600E+04  0.9118800E+02  0.7546771E-02  0.1180000E+00
      -11   -1    0    0    0    0  0.00000000000E+00  0.00000000000E+00  0.34996269501E-01  0.35000000000E-01  0.51099999109E-03 0. -1.
       11   -1    0    0    0    0 -0.00000000000E+00 -0.00000000000E+00 -0.34996269501E-01  0.35000000000E-01  0.51099999109E-03 0.  1.
       22    1    1    2    0    0 -0.52430706373E-03  0.58875942835E-05  0.34845580482E-01  0.34849525272E-01  0.00000000000E+00 0. -1.
       22    1    1    2    0    0  0.14376560724E-02  0.47232131455E-03 -0.33014064397E-01  0.33048727516E-01  0.00000000000E+00 0.  1.
       22    1    1    2    0    0 -0.91334900863E-03 -0.47820890883E-03 -0.18315160847E-02  0.21017472114E-02  0.00000000000E+00 0.  1.
</event>
<event>
 5   0  0.4143600E+04  0.9118800E+02  0.7546771E-02  0.1180000E+00
      -11   -1    0    0    0    0  0.00000000000E+00  0.00000000000E+00  0.34996269501E-01  0.35000000000E-01  0.51099999109E-03 0.  1.
       11   -1    0    0    0    0 -0.00000000000E+00 -0.00000000000E+00 -0.34996269501E-01  0.35000000000E-01  0.51099999109E-03 0. -1.
       22    1    1    2    0    0 -0.23457827841E-01 -0.18684782916E-02  0.25859430130E-01  0.34963853117E-01  0.00000000000E+00 0.  1.
       22    1    1    2    0    0  0.23411335181E-01  0.18878747034E-02 -0.25481569480E-01  0.34654942923E-01  0.00000000000E+00 0. -1.
       22    1    1    2    0    0  0.46492660291E-04 -0.19396411732E-04 -0.37786065000E-03  0.38120395993E-03  0.00000000000E+00 0. -1.
</event>
<event>
 5   0  0.4143600E+04  0.9118800E+02  0.7546771E-02  0.1180000E+00
      -11   -1    0    0    0    0  0.00000000000E+00  0.00000000000E+00  0.34996269501E-01  0.35000000000E-01  0.51099999109E-03 0. -1.
       11   -1    0    0    0    0 -0.00000000000E+00 -0.00000000000E+00 -0.34996269501E-01  0.35000000000E-01  0.51099999109E-03 0.  1.
       22    1    1    2    0    0  0.10885494208E-03 -0.47275170393E-03 -0.98250701063E-02  0.98370395021E-02  0.00000000000E+00 0.  1.
       22    1    1    2    0    0  0.11666635001E-01  0.39289430115E-02 -0.22466417646E-01  0.25618096871E-01  0.00000000000E+00 0.  1.
       22    1    1    2    0    0 -0.11775489943E-01 -0.34561913075E-02  0.32291487752E-01  0.34544863627E-01  0.00000000000E+00 0. -1.
</event>
<event>
 5   0  0.4143600E+04  0.9118800E+02  0.7546771E-02  0.1180000E+00
      -11   -1    0    0    0    0  0.00000000000E+00  0.00000000000E+00  0.34996269501E-01  0.35000000000E-01  0.51099999109E-03 0. -1.
       11   -1    0    0    0    0 -0.00000000000E+00 -0.00000000000E+00 -0.34996269501E-01  0.35000000000E-01  0.51099999109E-03 0.  1.
       22    1    1    2    0    0 -0.15719390087E-01 -0.86193021775E-02 -0.93015609674E-02  0.20196797547E-01  0.00000000000E+00 0.  1.
       22    1    1    2    0    0  0.16500110331E-01  0.15874274475E-01  0.24137711430E-01  0.33269736159E-01  0.00000000000E+00 0. -1.
       22    1    1    2    0    0 -0.78072024390E-03 -0.72549722979E-02 -0.14836150462E-01  0.16533466294E-01  0.00000000000E+00 0. -1.
</event>
<event>
 5   0  0.4143600E+04  0.9118800E+02  0.7546771E-02  0.1180000E+00
      -11   -1    0    0    0    0  0.00000000000E+00  0.00000000000E+00  0.34996269501E-01  0.35000000000E-01  0.51099999109E-03 0.  1.
       11   -1    0    0    0    0 -0.00000000000E+00 -0.00000000000E+00 -0.34996269501E-01  0.35000000000E-01  0.51099999109E-03 0. -1.
       22    1    1    2    0    0 -0.77120784874E-03  0.89267280632E-03  0.16141168300E-01  0.16184218868E-01  0.00000000000E+00 0. -1.
       22    1    1    2    0    0 -0.21174074786E-03 -0.11995913781E-01  0.15884124596E-01  0.19906084390E-01  0.00000000000E+00 0.  1.
       22    1    1    2    0    0  0.98294859660E-03  0.11103240975E-01 -0.32025292895E-01  0.33909696742E-01  0.00000000000E+00 0. -1.
</event>
<event>
 5   0  0.4143600E+04  0.9118800E+02  0.7546771E-02  0.1180000E+00
      -11   -1    0    0    0    0  0.00000000000E+00  0.00000000000E+00  0.34996269501E-01  0.35000000000E-01  0.51099999109E-03 0.  1.
       11   -1    0    0    0    0 -0.00000000000E+00 -0.00000000000E+00 -0.34996269501E-01  0.35000000000E-01  0.51099999109E-03 0. -1.
       22    1    1    2    0    0  0.13889905659E-02  0.51385694516E-03 -0.15791088530E-02  0.21649315282E-02  0.00000000000E+00 0.  1.
       22    1    1    2    0    0 -0.17754241952E-01  0.15149118848E-01  0.25719597248E-01  0.34730485049E-01  0.00000000000E+00 0.  1.
       22    1    1    2    0    0  0.16365251387E-01 -0.15662975793E-01 -0.24140488395E-01  0.33104583422E-01  0.00000000000E+00 0. -1.
</event>
<event>
 5   0  0.4143600E+04  0.9118800E+02  0.7546771E-02  0.1180000E+00
      -11   -1    0    0    0    0  0.00000000000E+00  0.00000000000E+00  0.34996269501E-01  0.35000000000E-01  0.51099999109E-03 0. -1.
       11   -1    0    0    0    0 -0.00000000000E+00 -0.00000000000E+00 -0.34996269501E-01  0.35000000000E-01  0.51099999109E-03 0.  1.
       22    1    1    2    0    0 -0.19256318796E-02 -0.48749509861E-03 -0.25291602726E-02  0.32159541806E-02  0.00000000000E+00 0.  1.
       22    1    1    2    0    0 -0.70883550066E-03  0.41017274966E-03 -0.32072099328E-01  0.32082553588E-01  0.00000000000E+00 0.  1.
       22    1    1    2    0    0  0.26344673803E-02  0.77322348957E-04  0.34601259600E-01  0.34701492231E-01  0.00000000000E+00 0. -1.
</event>
<event>
 5   0  0.4143600E+04  0.9118800E+02  0.7546771E-02  0.1180000E+00
      -11   -1    0    0    0    0  0.00000000000E+00  0.00000000000E+00  0.34996269501E-01  0.35000000000E-01  0.51099999109E-03 0. -1.
       11   -1    0    0    0    0 -0.00000000000E+00 -0.00000000000E+00 -0.34996269501E-01  0.35000000000E-01  0.51099999109E-03 0.  1.
       22    1    1    2    0    0 -0.16321642435E-01  0.87996786976E-03  0.30828632347E-01  0.34893766315E-01  0.00000000000E+00 0. -1.
       22    1    1    2    0    0  0.16257562640E-01 -0.10618877417E-02 -0.28964796925E-01  0.33232445132E-01  0.00000000000E+00 0.  1.
       22    1    1    2    0    0  0.64079794626E-04  0.18191987197E-03 -0.18638354222E-02  0.18737885529E-02  0.00000000000E+00 0. -1.
</event>
<event>
 5   0  0.4143600E+04  0.9118800E+02  0.7546771E-02  0.1180000E+00
      -11   -1    0    0    0    0  0.00000000000E+00  0.00000000000E+00  0.34996269501E-01  0.35000000000E-01  0.51099999109E-03 0. -1.
       11   -1    0    0    0    0 -0.00000000000E+00 -0.00000000000E+00 -0.34996269501E-01  0.35000000000E-01  0.51099999109E-03 0. -1.
       22    1    1    2    0    0  0.60299178481E-03 -0.39625567213E-03  0.34681969619E-01  0.34689474402E-01  0.00000000000E+00 0. -1.
       22    1    1    2    0    0  0.10417004993E-02  0.22352314726E-02 -0.55371821874E-02  0.60615003293E-02  0.00000000000E+00 0.  1.
       22    1    1    2    0    0 -0.16446922841E-02 -0.18389758005E-02 -0.29144787432E-01  0.29249025268E-01  0.00000000000E+00 0. -1.
</event>
<event>
 5   0  0.4143600E+04  0.9118800E+02  0.7546771E-02  0.1180000E+00
      -11   -1    0    0    0    0  0.00000000000E+00  0.00000000000E+00  0.34996269501E-01  0.35000000000E-01  0.51099999109E-03 0.  1.
       11   -1    0    0    0    0 -0.00000000000E+00 -0.00000000000E+00 -0.34996269501E-01  0.35000000000E-01  0.51099999109E-03 0. -1.
       22    1    1    2    0    0  0.11501894518E-02  0.14141393980E-02 -0.86781235164E-03  0.20188670807E-02  0.00000000000E+00 0.  1.
       22    1    1    2    0    0  0.12504752607E-01  0.88438051675E-02  0.30300937058E-01  0.33951855828E-01  0.00000000000E+00 0.  1.
       22    1    1    2    0    0 -0.13654942059E-01 -0.10257944566E-01 -0.29433124706E-01  0.34029277091E-01  0.00000000000E+00 0. -1.
</event>
<event>
 5   0  0.4143600E+04  0.9118800E+02  0.7546771E-02  0.1180000E+00
      -11   -1    0    0    0    0  0.00000000000E+00  0.00000000000E+00  0.34996269501E-01  0.35000000000E-01  0.51099999109E-03 0. -1.
       11   -1    0    0    0    0 -0.00000000000E+00 -0.00000000000E+00 -0.34996269501E-01  0.35000000000E-01  0.51099999109E-03 0.  1.
       22    1    1    2    0    0 -0.10518190914E-02 -0.11476370263E-03  0.30864603191E-01  0.30882733432E-01  0.00000000000E+00 0. -1.
       22    1    1    2    0    0 -0.71407794731E-02 -0.61911131709E-02 -0.38735077502E-02  0.10213945177E-01  0.00000000000E+00 0. -1.
       22    1    1    2    0    0  0.81925985645E-02  0.63058768735E-02 -0.26991095440E-01  0.28903321392E-01  0.00000000000E+00 0.  1.
</event>
<event>
 5   0  0.4143600E+04  0.9118800E+02  0.7546771E-02  0.1180000E+00
      -11   -1    0    0    0    0  0.00000000000E+00  0.00000000000E+00  0.34996269501E-01  0.35000000000E-01  0.51099999109E-03 0. -1.
       11   -1    0    0    0    0 -0.00000000000E+00 -0.00000000000E+00 -0.34996269501E-01  0.35000000000E-01  0.51099999109E-03 0.  1.
       22    1    1    2    0    0 -0.17027612094E-01 -0.22501428494E-01  0.10799002585E-01  0.30213776903E-01  0.00000000000E+00 0.  1.
       22    1    1    2    0    0 -0.37042869922E-02  0.53675481449E-03 -0.87455763134E-02  0.95128835221E-02  0.00000000000E+00 0.  1.
       22    1    1    2    0    0  0.20731899086E-01  0.21964673680E-01 -0.20534262720E-02  0.30273339575E-01  0.00000000000E+00 0. -1.
</event>
<event>
 5   0  0.4143600E+04  0.9118800E+02  0.7546771E-02  0.1180000E+00
      -11   -1    0    0    0    0  0.00000000000E+00  0.00000000000E+00  0.34996269501E-01  0.35000000000E-01  0.51099999109E-03 0.  1.
       11   -1    0    0    0    0 -0.00000000000E+00 -0.00000000000E+00 -0.34996269501E-01  0.35000000000E-01  0.51099999109E-03 0. -1.
       22    1    1    2    0    0  0.12151595929E-02 -0.88316124378E-06 -0.49628153457E-02  0.51094177527E-02  0.00000000000E+00 0.  1.
       22    1    1    2    0    0  0.70770421323E-02  0.13858290720E-01  0.30750658713E-01  0.34463600484E-01  0.00000000000E+00 0.  1.
       22    1    1    2    0    0 -0.82922017251E-02 -0.13857407559E-01 -0.25787843367E-01  0.30426981763E-01  0.00000000000E+00 0. -1.
</event>
<event>
 5   0  0.4143600E+04  0.9118800E+02  0.7546771E-02  0.1180000E+00
      -11   -1    0    0    0    0  0.00000000000E+00  0.00000000000E+00  0.34996269501E-01  0.35000000000E-01  0.51099999109E-03 0.  1.
       11   -1    0    0    0    0 -0.00000000000E+00 -0.00000000000E+00 -0.34996269501E-01  0.35000000000E-01  0.51099999109E-03 0. -1.
       22    1    1    2    0    0  0.13781122599E-03 -0.43009768053E-02  0.60111483558E-02  0.73926516197E-02  0.00000000000E+00 0.  1.
       22    1    1    2    0    0  0.82441060083E-02 -0.10238315642E-01  0.24489582655E-01  0.27794388817E-01  0.00000000000E+00 0.  1.
       22    1    1    2    0    0 -0.83819172343E-02  0.14539292447E-01 -0.30500731011E-01  0.34812959564E-01  0.00000000000E+00 0. -1.
</event>
<event>
 5   0  0.4143600E+04  0.9118800E+02  0.7546771E-02  0.1180000E+00
      -11   -1    0    0    0    0  0.00000000000E+00  0.00000000000E+00  0.34996269501E-01  0.35000000000E-01  0.51099999109E-03 0. -1.
       11   -1    0    0    0    0 -0.00000000000E+00 -0.00000000000E+00 -0.34996269501E-01  0.35000000000E-01  0.51099999109E-03 0.  1.
       22    1    1    2    0    0  0.57852782527E-03 -0.26076749588E-03 -0.16352709432E-02  0.17540824351E-02  0.00000000000E+00 0.  1.
       22    1    1    2    0    0  0.34208412010E-02  0.72490445435E-03  0.34730797241E-01  0.34906387925E-01  0.00000000000E+00 0. -1.
       22    1    1    2    0    0 -0.39993690263E-02 -0.46413695847E-03 -0.33095526297E-01  0.33339529640E-01  0.00000000000E+00 0.  1.
</event>
<event>
 5   0  0.4143600E+04  0.9118800E+02  0.7546771E-02  0.1180000E+00
      -11   -1    0    0    0    0  0.00000000000E+00  0.00000000000E+00  0.34996269501E-01  0.35000000000E-01  0.51099999109E-03 0.  1.
       11   -1    0    0    0    0 -0.00000000000E+00 -0.00000000000E+00 -0.34996269501E-01  0.35000000000E-01  0.51099999109E-03 0. -1.
       22    1    1    2    0    0 -0.94588223472E-04 -0.82909291137E-04 -0.28490964638E-03  0.31143922228E-03  0.00000000000E+00 0.  1.
       22    1    1    2    0    0  0.14577571939E-02  0.46276268560E-02  0.34654761156E-01  0.34992748636E-01  0.00000000000E+00 0.  1.
       22    1    1    2    0    0 -0.13631689705E-02 -0.45447175649E-02 -0.34369851509E-01  0.34695812142E-01  0.00000000000E+00 0. -1.
</event>
<event>
 5   0  0.4143600E+04  0.9118800E+02  0.7546771E-02  0.1180000E+00
      -11   -1    0    0    0    0  0.00000000000E+00  0.00000000000E+00  0.34996269501E-01  0.35000000000E-01  0.51099999109E-03 0. -1.
       11   -1    0    0    0    0 -0.00000000000E+00 -0.00000000000E+00 -0.34996269501E-01  0.35000000000E-01  0.51099999109E-03 0. -1.
       22    1    1    2    0    0  0.71016731195E-04 -0.15648063013E-02  0.34702259047E-01  0.34737594118E-01  0.00000000000E+00 0. -1.
       22    1    1    2    0    0  0.14239624037E-03  0.16848866991E-02 -0.22767250743E-02  0.28359472742E-02  0.00000000000E+00 0.  1.
       22    1    1    2    0    0 -0.21341297156E-03 -0.12008039785E-03 -0.32425533973E-01  0.32426458608E-01  0.00000000000E+00 0. -1.
</event>
<event>
 5   0  0.4143600E+04  0.9118800E+02  0.7546771E-02  0.1180000E+00
      -11   -1    0    0    0    0  0.00000000000E+00  0.00000000000E+00  0.34996269501E-01  0.35000000000E-01  0.51099999109E-03 0. -1.
       11   -1    0    0    0    0 -0.00000000000E+00 -0.00000000000E+00 -0.34996269501E-01  0.35000000000E-01  0.51099999109E-03 0.  1.
       22    1    1    2    0    0 -0.21979649526E-02  0.62349954572E-02 -0.33844119900E-01  0.34483774012E-01  0.00000000000E+00 0.  1.
       22    1    1    2    0    0 -0.24804823854E-03 -0.31126180622E-04 -0.48486635811E-03  0.54552007570E-03  0.00000000000E+00 0. -1.
       22    1    1    2    0    0  0.24460131911E-02 -0.62038692766E-02  0.34328986258E-01  0.34970705913E-01  0.00000000000E+00 0. -1.
</event>
<event>
 5   0  0.4143600E+04  0.9118800E+02  0.7546771E-02  0.1180000E+00
      -11   -1    0    0    0    0  0.00000000000E+00  0.00000000000E+00  0.34996269501E-01  0.35000000000E-01  0.51099999109E-03 0.  1.
       11   -1    0    0    0    0 -0.00000000000E+00 -0.00000000000E+00 -0.34996269501E-01  0.35000000000E-01  0.51099999109E-03 0. -1.
       22    1    1    2    0    0 -0.94300305526E-02  0.31268359812E-02  0.29051743767E-01  0.30703524152E-01  0.00000000000E+00 0.  1.
       22    1    1    2    0    0  0.71992446999E-02 -0.11646637060E-01 -0.26970331293E-01  0.30246851888E-01  0.00000000000E+00 0. -1.
       22    1    1    2    0    0  0.22307858528E-02  0.85198010784E-02 -0.20814124735E-02  0.90496239602E-02  0.00000000000E+00 0.  1.
</event>
<event>
 5   0  0.4143600E+04  0.9118800E+02  0.7546771E-02  0.1180000E+00
      -11   -1    0    0    0    0  0.00000000000E+00  0.00000000000E+00  0.34996269501E-01  0.35000000000E-01  0.51099999109E-03 0. -1.
       11   -1    0    0    0    0 -0.00000000000E+00 -0.00000000000E+00 -0.34996269501E-01  0.35000000000E-01  0.51099999109E-03 0.  1.
       22    1    1    2    0    0  0.39074126537E-02 -0.19643065879E-02  0.34609751521E-01  0.34884972042E-01  0.00000000000E+00 0. -1.
       22    1    1    2    0    0 -0.51108468255E-03 -0.57954731094E-03 -0.11390567432E-02  0.13764203219E-02  0.00000000000E+00 0. -1.
       22    1    1    2    0    0 -0.33963279712E-02  0.25438538988E-02 -0.33470694778E-01  0.33738607636E-01  0.00000000000E+00 0.  1.
</event>
<event>
 5   0  0.4143600E+04  0.9118800E+02  0.7546771E-02  0.1180000E+00
      -11   -1    0    0    0    0  0.00000000000E+00  0.00000000000E+00  0.34996269501E-01  0.35000000000E-01  0.51099999109E-03 0.  1.
       11   -1    0    0    0    0 -0.00000000000E+00 -0.00000000000E+00 -0.34996269501E-01  0.35000000000E-01  0.51099999109E-03 0. -1.
       22    1    1    2    0    0  0.15118798436E-03  0.59442136288E-02 -0.21163034590E-01  0.21982505920E-01  0.00000000000E+00 0. -1.
       22    1    1    2    0    0 -0.60570333119E-02 -0.41252750086E-02  0.33461062836E-01  0.34254171608E-01  0.00000000000E+00 0.  1.
       22    1    1    2    0    0  0.59058453276E-02 -0.18189386202E-02 -0.12298028246E-01  0.13763322472E-01  0.00000000000E+00 0. -1.
</event>
<event>
 5   0  0.4143600E+04  0.9118800E+02  0.7546771E-02  0.1180000E+00
      -11   -1    0    0    0    0  0.00000000000E+00  0.00000000000E+00  0.34996269501E-01  0.35000000000E-01  0.51099999109E-03 0. -1.
       11   -1    0    0    0    0 -0.00000000000E+00 -0.00000000000E+00 -0.34996269501E-01  0.35000000000E-01  0.51099999109E-03 0.  1.
       22    1    1    2    0    0  0.41917937700E-04 -0.18009003672E-02  0.13770736204E-01  0.13888058714E-01  0.00000000000E+00 0. -1.
       22    1    1    2    0    0 -0.78059187075E-02 -0.13135895529E-01 -0.29404673782E-01  0.33137878002E-01  0.00000000000E+00 0.  1.
       22    1    1    2    0    0  0.77640007698E-02  0.14936795896E-01  0.15633937579E-01  0.22974063285E-01  0.00000000000E+00 0. -1.
</event>
<event>
 5   0  0.4143600E+04  0.9118800E+02  0.7546771E-02  0.1180000E+00
      -11   -1    0    0    0    0  0.00000000000E+00  0.00000000000E+00  0.34996269501E-01  0.35000000000E-01  0.51099999109E-03 0. -1.
       11   -1    0    0    0    0 -0.00000000000E+00 -0.00000000000E+00 -0.34996269501E-01  0.35000000000E-01  0.51099999109E-03 0.  1.
       22    1    1    2    0    0  0.10993605961E-01  0.31825543223E-01 -0.83287831268E-02  0.34685633940E-01  0.00000000000E+00 0. -1.
       22    1    1    2    0    0  0.77011568833E-04  0.12064917878E-03 -0.37551353084E-03  0.40186741335E-03  0.00000000000E+00 0.  1.
       22    1    1    2    0    0 -0.11070617530E-01 -0.31946192401E-01  0.87042966576E-02  0.34912498647E-01  0.00000000000E+00 0.  1.
</event>
<event>
 5   0  0.4143600E+04  0.9118800E+02  0.7546771E-02  0.1180000E+00
      -11   -1    0    0    0    0  0.00000000000E+00  0.00000000000E+00  0.34996269501E-01  0.35000000000E-01  0.51099999109E-03 0. -1.
       11   -1    0    0    0    0 -0.00000000000E+00 -0.00000000000E+00 -0.34996269501E-01  0.35000000000E-01  0.51099999109E-03 0.  1.
       22    1    1    2    0    0  0.91685024249E-02 -0.26461416189E-02  0.33327398975E-01  0.34666684650E-01  0.00000000000E+00 0. -1.
       22    1    1    2    0    0 -0.21060614759E-02  0.18427813497E-02 -0.20308532142E-01  0.20500434527E-01  0.00000000000E+00 0.  1.
       22    1    1    2    0    0 -0.70624409490E-02  0.80336026921E-03 -0.13018866833E-01  0.14832880822E-01  0.00000000000E+00 0.  1.
</event>
<event>
 5   0  0.4143600E+04  0.9118800E+02  0.7546771E-02  0.1180000E+00
      -11   -1    0    0    0    0  0.00000000000E+00  0.00000000000E+00  0.34996269501E-01  0.35000000000E-01  0.51099999109E-03 0. -1.
       11   -1    0    0    0    0 -0.00000000000E+00 -0.00000000000E+00 -0.34996269501E-01  0.35000000000E-01  0.51099999109E-03 0. -1.
       22    1    1    2    0    0  0.24710995884E-02  0.59170984905E-02 -0.14135510398E-01  0.15521953548E-01  0.00000000000E+00 0. -1.
       22    1    1    2    0    0  0.00000000000E+00  0.00000000000E+00  0.33797170073E-01  0.33797155541E-01  0.00000000000E+00 0. -1.
       22    1    1    2    0    0 -0.24710995884E-02 -0.59170984905E-02 -0.19661659675E-01  0.20680890911E-01  0.00000000000E+00 0.  1.
</event>
<event>
 5   0  0.4143600E+04  0.9118800E+02  0.7546771E-02  0.1180000E+00
      -11   -1    0    0    0    0  0.00000000000E+00  0.00000000000E+00  0.34996269501E-01  0.35000000000E-01  0.51099999109E-03 0.  1.
       11   -1    0    0    0    0 -0.00000000000E+00 -0.00000000000E+00 -0.34996269501E-01  0.35000000000E-01  0.51099999109E-03 0. -1.
       22    1    1    2    0    0 -0.35335735247E-02  0.24995505925E-02  0.33909075995E-01  0.34184197078E-01  0.00000000000E+00 0.  1.
       22    1    1    2    0    0 -0.24245776185E-02 -0.40166227796E-02 -0.88866110921E-02  0.10049064229E-01  0.00000000000E+00 0.  1.
       22    1    1    2    0    0  0.59581511433E-02  0.15170721871E-02 -0.25022464903E-01  0.25766738693E-01  0.00000000000E+00 0. -1.
</event>
<event>
 5   0  0.4143600E+04  0.9118800E+02  0.7546771E-02  0.1180000E+00
      -11   -1    0    0    0    0  0.00000000000E+00  0.00000000000E+00  0.34996269501E-01  0.35000000000E-01  0.51099999109E-03 0.  1.
       11   -1    0    0    0    0 -0.00000000000E+00 -0.00000000000E+00 -0.34996269501E-01  0.35000000000E-01  0.51099999109E-03 0. -1.
       22    1    1    2    0    0  0.10017123653E-02  0.21720127657E-03 -0.13159970228E-01  0.13199826532E-01  0.00000000000E+00 0. -1.
       22    1    1    2    0    0 -0.56435746337E-02  0.63715003483E-02  0.33688018303E-01  0.34746633341E-01  0.00000000000E+00 0.  1.
       22    1    1    2    0    0  0.46418622683E-02 -0.65887016249E-02 -0.20528048074E-01  0.22053540128E-01  0.00000000000E+00 0. -1.
</event>
<event>
 5   0  0.4143600E+04  0.9118800E+02  0.7546771E-02  0.1180000E+00
      -11   -1    0    0    0    0  0.00000000000E+00  0.00000000000E+00  0.34996269501E-01  0.35000000000E-01  0.51099999109E-03 0. -1.
       11   -1    0    0    0    0 -0.00000000000E+00 -0.00000000000E+00 -0.34996269501E-01  0.35000000000E-01  0.51099999109E-03 0.  1.
       22    1    1    2    0    0 -0.29344364969E-02  0.23202125315E-02  0.19853424791E-01  0.20202791383E-01  0.00000000000E+00 0. -1.
       22    1    1    2    0    0 -0.37344717164E-02  0.83512249266E-02  0.12265366839E-01  0.15301256826E-01  0.00000000000E+00 0. -1.
       22    1    1    2    0    0  0.66689082133E-02 -0.10671437458E-01 -0.32118791630E-01  0.34495951790E-01  0.00000000000E+00 0.  1.
</event>
<event>
 5   0  0.4143600E+04  0.9118800E+02  0.7546771E-02  0.1180000E+00
      -11   -1    0    0    0    0  0.00000000000E+00  0.00000000000E+00  0.34996269501E-01  0.35000000000E-01  0.51099999109E-03 0.  1.
       11   -1    0    0    0    0 -0.00000000000E+00 -0.00000000000E+00 -0.34996269501E-01  0.35000000000E-01  0.51099999109E-03 0. -1.
       22    1    1    2    0    0 -0.14118427288E-01  0.66433768832E-02 -0.16426250099E-01  0.22655819072E-01  0.00000000000E+00 0. -1.
       22    1    1    2    0    0  0.93696907401E-02 -0.82835787408E-02 -0.12678618109E-01  0.17808878080E-01  0.00000000000E+00 0.  1.
       22    1    1    2    0    0  0.47487365477E-02  0.16402018576E-02  0.29104868208E-01  0.29535302848E-01  0.00000000000E+00 0.  1.
</event>
<event>
 5   0  0.4143600E+04  0.9118800E+02  0.7546771E-02  0.1180000E+00
      -11   -1    0    0    0    0  0.00000000000E+00  0.00000000000E+00  0.34996269501E-01  0.35000000000E-01  0.51099999109E-03 0. -1.
       11   -1    0    0    0    0 -0.00000000000E+00 -0.00000000000E+00 -0.34996269501E-01  0.35000000000E-01  0.51099999109E-03 0.  1.
       22    1    1    2    0    0 -0.17201619654E-02 -0.18209740204E-02 -0.34447750016E-01  0.34538708498E-01  0.00000000000E+00 0.  1.
       22    1    1    2    0    0  0.17789730987E-02  0.16510612500E-02  0.34894972743E-01  0.34979277740E-01  0.00000000000E+00 0. -1.
       22    1    1    2    0    0 -0.58811133279E-04  0.16991277033E-03 -0.44722272684E-03  0.48201376155E-03  0.00000000000E+00 0. -1.
</event>
<event>
 5   0  0.4143600E+04  0.9118800E+02  0.7546771E-02  0.1180000E+00
      -11   -1    0    0    0    0  0.00000000000E+00  0.00000000000E+00  0.34996269501E-01  0.35000000000E-01  0.51099999109E-03 0.  1.
       11   -1    0    0    0    0 -0.00000000000E+00 -0.00000000000E+00 -0.34996269501E-01  0.35000000000E-01  0.51099999109E-03 0. -1.
       22    1    1    2    0    0 -0.15964915045E-01  0.94549767348E-02 -0.29601612961E-01  0.34936092903E-01  0.00000000000E+00 0. -1.
       22    1    1    2    0    0  0.15969111487E-01 -0.94575089162E-02  0.28799379657E-01  0.34261658822E-01  0.00000000000E+00 0.  1.
       22    1    1    2    0    0 -0.41964418095E-05  0.25321814209E-05  0.80223330341E-03  0.80224827527E-03  0.00000000000E+00 0. -1.
</event>
<event>
 5   0  0.4143600E+04  0.9118800E+02  0.7546771E-02  0.1180000E+00
      -11   -1    0    0    0    0  0.00000000000E+00  0.00000000000E+00  0.34996269501E-01  0.35000000000E-01  0.51099999109E-03 0. -1.
       11   -1    0    0    0    0 -0.00000000000E+00 -0.00000000000E+00 -0.34996269501E-01  0.35000000000E-01  0.51099999109E-03 0.  1.
       22    1    1    2    0    0 -0.36492483010E-02  0.84903637468E-02 -0.33163255991E-01  0.34426804058E-01  0.00000000000E+00 0.  1.
       22    1    1    2    0    0  0.62662703185E-04  0.22206907777E-03 -0.53497456481E-03  0.58261400144E-03  0.00000000000E+00 0. -1.
       22    1    1    2    0    0  0.35865855978E-02 -0.87124328245E-02  0.33698230556E-01  0.34990581941E-01  0.00000000000E+00 0. -1.
</event>
<event>
 5   0  0.4143600E+04  0.9118800E+02  0.7546771E-02  0.1180000E+00
      -11   -1    0    0    0    0  0.00000000000E+00  0.00000000000E+00  0.34996269501E-01  0.35000000000E-01  0.51099999109E-03 0. -1.
       11   -1    0    0    0    0 -0.00000000000E+00 -0.00000000000E+00 -0.34996269501E-01  0.35000000000E-01  0.51099999109E-03 0.  1.
       22    1    1    2    0    0 -0.36415966694E-02 -0.56222496587E-02 -0.31504173320E-01  0.32208443833E-01  0.00000000000E+00 0.  1.
       22    1    1    2    0    0  0.24154365147E-02  0.45357018477E-02  0.34228752281E-01  0.34612344727E-01  0.00000000000E+00 0. -1.
       22    1    1    2    0    0  0.12261601547E-02  0.10865478110E-02 -0.27245789605E-02  0.31792114403E-02  0.00000000000E+00 0. -1.
</event>
<event>
 5   0  0.4143600E+04  0.9118800E+02  0.7546771E-02  0.1180000E+00
      -11   -1    0    0    0    0  0.00000000000E+00  0.00000000000E+00  0.34996269501E-01  0.35000000000E-01  0.51099999109E-03 0.  1.
       11   -1    0    0    0    0 -0.00000000000E+00 -0.00000000000E+00 -0.34996269501E-01  0.35000000000E-01  0.51099999109E-03 0. -1.
       22    1    1    2    0    0 -0.11039931826E-02 -0.31767450230E-03 -0.19394400645E-02  0.22541397030E-02  0.00000000000E+00 0. -1.
       22    1    1    2    0    0  0.23156702284E-01 -0.17050564839E-01  0.19398868796E-01  0.34688192985E-01  0.00000000000E+00 0.  1.
       22    1    1    2    0    0 -0.22052709101E-01  0.17368239341E-01 -0.17459428731E-01  0.33057667312E-01  0.00000000000E+00 0. -1.
</event>
<event>
 5   0  0.4143600E+04  0.9118800E+02  0.7546771E-02  0.1180000E+00
      -11   -1    0    0    0    0  0.00000000000E+00  0.00000000000E+00  0.34996269501E-01  0.35000000000E-01  0.51099999109E-03 0.  1.
       11   -1    0    0    0    0 -0.00000000000E+00 -0.00000000000E+00 -0.34996269501E-01  0.35000000000E-01  0.51099999109E-03 0. -1.
       22    1    1    2    0    0 -0.98570264963E-04  0.51049913882E-04  0.49172675230E-03  0.50410057505E-03  0.00000000000E+00 0. -1.
       22    1    1    2    0    0  0.85280406215E-02  0.83808313797E-02  0.32386191446E-01  0.34522908450E-01  0.00000000000E+00 0.  1.
       22    1    1    2    0    0 -0.84294703565E-02 -0.84318812936E-02 -0.32877918199E-01  0.34972990975E-01  0.00000000000E+00 0. -1.
</event>
<event>
 5   0  0.4143600E+04  0.9118800E+02  0.7546771E-02  0.1180000E+00
      -11   -1    0    0    0    0  0.00000000000E+00  0.00000000000E+00  0.34996269501E-01  0.35000000000E-01  0.51099999109E-03 0. -1.
       11   -1    0    0    0    0 -0.00000000000E+00 -0.00000000000E+00 -0.34996269501E-01  0.35000000000E-01  0.51099999109E-03 0.  1.
       22    1    1    2    0    0  0.15195074790E-03  0.23133071091E-03 -0.27645396169E-02  0.27783596277E-02  0.00000000000E+00 0. -1.
       22    1    1    2    0    0  0.76320708510E-02  0.11721408862E-01  0.31872546812E-01  0.34806596666E-01  0.00000000000E+00 0. -1.
       22    1    1    2    0    0 -0.77840215989E-02 -0.11952739573E-01 -0.29108007196E-01  0.32415043706E-01  0.00000000000E+00 0.  1.
</event>
<event>
 5   0  0.4143600E+04  0.9118800E+02  0.7546771E-02  0.1180000E+00
      -11   -1    0    0    0    0  0.00000000000E+00  0.00000000000E+00  0.34996269501E-01  0.35000000000E-01  0.51099999109E-03 0. -1.
       11   -1    0    0    0    0 -0.00000000000E+00 -0.00000000000E+00 -0.34996269501E-01  0.35000000000E-01  0.51099999109E-03 0.  1.
       22    1    1    2    0    0 -0.28401298192E-04  0.10119690596E-03  0.20166190932E-02  0.20193563367E-02  0.00000000000E+00 0. -1.
       22    1    1    2    0    0  0.15120766339E-01  0.11151134715E-01 -0.29315962799E-01  0.34819693493E-01  0.00000000000E+00 0.  1.
       22    1    1    2    0    0 -0.15092365041E-01 -0.11252331621E-01  0.27299343706E-01  0.33160950170E-01  0.00000000000E+00 0. -1.
</event>
<event>
 5   0  0.4143600E+04  0.9118800E+02  0.7546771E-02  0.1180000E+00
      -11   -1    0    0    0    0  0.00000000000E+00  0.00000000000E+00  0.34996269501E-01  0.35000000000E-01  0.51099999109E-03 0.  1.
       11   -1    0    0    0    0 -0.00000000000E+00 -0.00000000000E+00 -0.34996269501E-01  0.35000000000E-01  0.51099999109E-03 0.  1.
       22    1    1    2    0    0 -0.26530432890E-04 -0.97717004993E-03 -0.20155854223E-02  0.22401227120E-02  0.00000000000E+00 0. -1.
       22    1    1    2    0    0 -0.00000000000E+00  0.00000000000E+00  0.34881406397E-01  0.34879522158E-01  0.00000000000E+00 0.  1.
       22    1    1    2    0    0  0.26530432890E-04  0.97717004993E-03 -0.32865820974E-01  0.32880355130E-01  0.00000000000E+00 0.  1.
</event>
<event>
 5   0  0.4143600E+04  0.9118800E+02  0.7546771E-02  0.1180000E+00
      -11   -1    0    0    0    0  0.00000000000E+00  0.00000000000E+00  0.34996269501E-01  0.35000000000E-01  0.51099999109E-03 0. -1.
       11   -1    0    0    0    0 -0.00000000000E+00 -0.00000000000E+00 -0.34996269501E-01  0.35000000000E-01  0.51099999109E-03 0.  1.
       22    1    1    2    0    0  0.11017049024E-02 -0.52085024488E-04 -0.27440492634E-02  0.29574098298E-02  0.00000000000E+00 0.  1.
       22    1    1    2    0    0  0.12064346981E-02  0.52816190611E-03 -0.32095957083E-01  0.32122965317E-01  0.00000000000E+00 0.  1.
       22    1    1    2    0    0 -0.23081396005E-02 -0.47607688163E-03  0.34840006347E-01  0.34919624853E-01  0.00000000000E+00 0. -1.
</event>
<event>
 5   0  0.4143600E+04  0.9118800E+02  0.7546771E-02  0.1180000E+00
      -11   -1    0    0    0    0  0.00000000000E+00  0.00000000000E+00  0.34996269501E-01  0.35000000000E-01  0.51099999109E-03 0. -1.
       11   -1    0    0    0    0 -0.00000000000E+00 -0.00000000000E+00 -0.34996269501E-01  0.35000000000E-01  0.51099999109E-03 0.  1.
       22    1    1    2    0    0  0.31001359409E-02 -0.78422981572E-02 -0.22557162964E-01  0.24081903667E-01  0.00000000000E+00 0.  1.
       22    1    1    2    0    0  0.95060363790E-02 -0.12699709714E-01  0.80796089096E-02  0.17802455858E-01  0.00000000000E+00 0.  1.
       22    1    1    2    0    0 -0.12606172320E-01  0.20542007871E-01  0.14477554054E-01  0.28115640475E-01  0.00000000000E+00 0. -1.
</event>
<event>
 5   0  0.4143600E+04  0.9118800E+02  0.7546771E-02  0.1180000E+00
      -11   -1    0    0    0    0  0.00000000000E+00  0.00000000000E+00  0.34996269501E-01  0.35000000000E-01  0.51099999109E-03 0. -1.
       11   -1    0    0    0    0 -0.00000000000E+00 -0.00000000000E+00 -0.34996269501E-01  0.35000000000E-01  0.51099999109E-03 0.  1.
       22    1    1    2    0    0  0.91912397655E-04  0.10485717817E-03 -0.31652091459E-03  0.34587339595E-03  0.00000000000E+00 0.  1.
       22    1    1    2    0    0  0.35323305494E-02 -0.17345389697E-02 -0.34443563433E-01  0.34667636875E-01  0.00000000000E+00 0.  1.
       22    1    1    2    0    0 -0.36242429470E-02  0.16296817915E-02  0.34760084348E-01  0.34986489729E-01  0.00000000000E+00 0. -1.
</event>
<event>
 5   0  0.4143600E+04  0.9118800E+02  0.7546771E-02  0.1180000E+00
      -11   -1    0    0    0    0  0.00000000000E+00  0.00000000000E+00  0.34996269501E-01  0.35000000000E-01  0.51099999109E-03 0.  1.
       11   -1    0    0    0    0 -0.00000000000E+00 -0.00000000000E+00 -0.34996269501E-01  0.35000000000E-01  0.51099999109E-03 0. -1.
       22    1    1    2    0    0 -0.42949355741E-03  0.85816853480E-02 -0.18114632679E-01  0.20049182158E-01  0.00000000000E+00 0. -1.
       22    1    1    2    0    0  0.16867498648E-02  0.34325874606E-02 -0.14591886156E-01  0.15084791127E-01  0.00000000000E+00 0. -1.
       22    1    1    2    0    0 -0.12572563074E-02 -0.12014272809E-01  0.32706518835E-01  0.34866026714E-01  0.00000000000E+00 0.  1.
</event>
<event>
 5   0  0.4143600E+04  0.9118800E+02  0.7546771E-02  0.1180000E+00
      -11   -1    0    0    0    0  0.00000000000E+00  0.00000000000E+00  0.34996269501E-01  0.35000000000E-01  0.51099999109E-03 0.  1.
       11   -1    0    0    0    0 -0.00000000000E+00 -0.00000000000E+00 -0.34996269501E-01  0.35000000000E-01  0.51099999109E-03 0.  1.
       22    1    1    2    0    0 -0.22055303750E-03  0.24924643214E-04 -0.34388731277E-01  0.34389447563E-01  0.00000000000E+00 0.  1.
       22    1    1    2    0    0  0.00000000000E+00 -0.00000000000E+00  0.34980236991E-01  0.34978774081E-01  0.00000000000E+00 0.  1.
       22    1    1    2    0    0  0.22055303750E-03 -0.24924643214E-04 -0.59150571499E-03  0.63177835595E-03  0.00000000000E+00 0. -1.
</event>
<event>
 5   0  0.4143600E+04  0.9118800E+02  0.7546771E-02  0.1180000E+00
      -11   -1    0    0    0    0  0.00000000000E+00  0.00000000000E+00  0.34996269501E-01  0.35000000000E-01  0.51099999109E-03 0.  1.
       11   -1    0    0    0    0 -0.00000000000E+00 -0.00000000000E+00 -0.34996269501E-01  0.35000000000E-01  0.51099999109E-03 0. -1.
       22    1    1    2    0    0 -0.42226252570E-04  0.25889966204E-04  0.13531551019E-02  0.13540613268E-02  0.00000000000E+00 0.  1.
       22    1    1    2    0    0 -0.68112232260E-02 -0.21040318618E-01 -0.26926305251E-01  0.34844134138E-01  0.00000000000E+00 0. -1.
       22    1    1    2    0    0  0.68534494786E-02  0.21014428651E-01  0.25573150149E-01  0.33801804535E-01  0.00000000000E+00 0.  1.
</event>
<event>
 5   0  0.4143600E+04  0.9118800E+02  0.7546771E-02  0.1180000E+00
      -11   -1    0    0    0    0  0.00000000000E+00  0.00000000000E+00  0.34996269501E-01  0.35000000000E-01  0.51099999109E-03 0.  1.
       11   -1    0    0    0    0 -0.00000000000E+00 -0.00000000000E+00 -0.34996269501E-01  0.35000000000E-01  0.51099999109E-03 0. -1.
       22    1    1    2    0    0 -0.42312134228E-02  0.50202167303E-03 -0.34136135153E-01  0.34401030740E-01  0.00000000000E+00 0. -1.
       22    1    1    2    0    0  0.34647007063E-03  0.81921753898E-04 -0.56954585927E-03  0.67166596565E-03  0.00000000000E+00 0. -1.
       22    1    1    2    0    0  0.38847433522E-02 -0.58394342693E-03  0.34705681013E-01  0.34927303294E-01  0.00000000000E+00 0.  1.
</event>
<event>
 5   0  0.4143600E+04  0.9118800E+02  0.7546771E-02  0.1180000E+00
      -11   -1    0    0    0    0  0.00000000000E+00  0.00000000000E+00  0.34996269501E-01  0.35000000000E-01  0.51099999109E-03 0. -1.
       11   -1    0    0    0    0 -0.00000000000E+00 -0.00000000000E+00 -0.34996269501E-01  0.35000000000E-01  0.51099999109E-03 0.  1.
       22    1    1    2    0    0 -0.10454955498E-01  0.15563994293E-01 -0.27929440428E-01  0.33639227926E-01  0.00000000000E+00 0.  1.
       22    1    1    2    0    0  0.10533621794E-01 -0.15600074574E-01  0.29388088038E-01  0.34899559214E-01  0.00000000000E+00 0. -1.
       22    1    1    2    0    0 -0.78666295785E-04  0.36080280507E-04 -0.14586476101E-02  0.14612128604E-02  0.00000000000E+00 0. -1.
</event>
<event>
 5   0  0.4143600E+04  0.9118800E+02  0.7546771E-02  0.1180000E+00
      -11   -1    0    0    0    0  0.00000000000E+00  0.00000000000E+00  0.34996269501E-01  0.35000000000E-01  0.51099999109E-03 0.  1.
       11   -1    0    0    0    0 -0.00000000000E+00 -0.00000000000E+00 -0.34996269501E-01  0.35000000000E-01  0.51099999109E-03 0. -1.
       22    1    1    2    0    0 -0.98695345118E-02  0.11010525516E-01 -0.31128007179E-01  0.34461459844E-01  0.00000000000E+00 0. -1.
       22    1    1    2    0    0 -0.13164543357E-03  0.10313162997E-04 -0.53572823270E-03  0.55176228652E-03  0.00000000000E+00 0. -1.
       22    1    1    2    0    0  0.10001179945E-01 -0.11020838679E-01  0.31663735412E-01  0.34986777870E-01  0.00000000000E+00 0.  1.
</event>
<event>
 5   0  0.4143600E+04  0.9118800E+02  0.7546771E-02  0.1180000E+00
      -11   -1    0    0    0    0  0.00000000000E+00  0.00000000000E+00  0.34996269501E-01  0.35000000000E-01  0.51099999109E-03 0. -1.
       11   -1    0    0    0    0 -0.00000000000E+00 -0.00000000000E+00 -0.34996269501E-01  0.35000000000E-01  0.51099999109E-03 0.  1.
       22    1    1    2    0    0 -0.21226123474E-01  0.78166897580E-02  0.26380436929E-01  0.34750200129E-01  0.00000000000E+00 0. -1.
       22    1    1    2    0    0  0.20939867457E-01 -0.80731208633E-02 -0.26603716014E-01  0.34805330559E-01  0.00000000000E+00 0.  1.
       22    1    1    2    0    0  0.28625601641E-03  0.25643110535E-03  0.22327908524E-03  0.44446931123E-03  0.00000000000E+00 0. -1.
</event>
<event>
 5   0  0.4143600E+04  0.9118800E+02  0.7546771E-02  0.1180000E+00
      -11   -1    0    0    0    0  0.00000000000E+00  0.00000000000E+00  0.34996269501E-01  0.35000000000E-01  0.51099999109E-03 0. -1.
       11   -1    0    0    0    0 -0.00000000000E+00 -0.00000000000E+00 -0.34996269501E-01  0.35000000000E-01  0.51099999109E-03 0.  1.
       22    1    1    2    0    0 -0.21686332908E-01  0.24849057000E-01  0.95639412605E-02  0.34340087962E-01  0.00000000000E+00 0. -1.
       22    1    1    2    0    0  0.20820946818E-01 -0.25522795738E-01 -0.82638928450E-02  0.33959046713E-01  0.00000000000E+00 0.  1.
       22    1    1    2    0    0  0.86538609053E-03  0.67373873850E-03 -0.13000484155E-02  0.17008653257E-02  0.00000000000E+00 0.  1.
</event>
<event>
 5   0  0.4143600E+04  0.9118800E+02  0.7546771E-02  0.1180000E+00
      -11   -1    0    0    0    0  0.00000000000E+00  0.00000000000E+00  0.34996269501E-01  0.35000000000E-01  0.51099999109E-03 0. -1.
       11   -1    0    0    0    0 -0.00000000000E+00 -0.00000000000E+00 -0.34996269501E-01  0.35000000000E-01  0.51099999109E-03 0.  1.
       22    1    1    2    0    0 -0.12595253969E-02  0.13913765793E-03 -0.18097411655E-02  0.22092819194E-02  0.00000000000E+00 0.  1.
       22    1    1    2    0    0 -0.17197058991E-02  0.26645315879E-02  0.34600609143E-01  0.34745636705E-01  0.00000000000E+00 0. -1.
       22    1    1    2    0    0  0.29792312960E-02 -0.28036692458E-02 -0.32790867978E-01  0.33045081375E-01  0.00000000000E+00 0.  1.
</event>
<event>
 5   0  0.4143600E+04  0.9118800E+02  0.7546771E-02  0.1180000E+00
      -11   -1    0    0    0    0  0.00000000000E+00  0.00000000000E+00  0.34996269501E-01  0.35000000000E-01  0.51099999109E-03 0.  1.
       11   -1    0    0    0    0 -0.00000000000E+00 -0.00000000000E+00 -0.34996269501E-01  0.35000000000E-01  0.51099999109E-03 0. -1.
       22    1    1    2    0    0 -0.87403736539E-02  0.12436648920E-01 -0.30943805668E-01  0.34475839035E-01  0.00000000000E+00 0. -1.
       22    1    1    2    0    0  0.92019442079E-02 -0.59980981213E-02  0.18931410354E-01  0.21887239576E-01  0.00000000000E+00 0. -1.
       22    1    1    2    0    0 -0.46157055395E-03 -0.64385507990E-02  0.12012395315E-01  0.13636921389E-01  0.00000000000E+00 0.  1.
</event>
<event>
 5   0  0.4143600E+04  0.9118800E+02  0.7546771E-02  0.1180000E+00
      -11   -1    0    0    0    0  0.00000000000E+00  0.00000000000E+00  0.34996269501E-01  0.35000000000E-01  0.51099999109E-03 0.  1.
       11   -1    0    0    0    0 -0.00000000000E+00 -0.00000000000E+00 -0.34996269501E-01  0.35000000000E-01  0.51099999109E-03 0. -1.
       22    1    1    2    0    0  0.95771749463E-02  0.43357190143E-02 -0.27942353611E-01  0.29854578621E-01  0.00000000000E+00 0. -1.
       22    1    1    2    0    0 -0.13259374436E-01 -0.85738258769E-02  0.30212267792E-01  0.34089626365E-01  0.00000000000E+00 0.  1.
       22    1    1    2    0    0  0.36821994893E-02  0.42381068627E-02 -0.22699141805E-02  0.60557950134E-02  0.00000000000E+00 0.  1.
</event>
<event>
 5   0  0.4143600E+04  0.9118800E+02  0.7546771E-02  0.1180000E+00
      -11   -1    0    0    0    0  0.00000000000E+00  0.00000000000E+00  0.34996269501E-01  0.35000000000E-01  0.51099999109E-03 0.  1.
       11   -1    0    0    0    0 -0.00000000000E+00 -0.00000000000E+00 -0.34996269501E-01  0.35000000000E-01  0.51099999109E-03 0. -1.
       22    1    1    2    0    0 -0.82321586573E-02 -0.19403975502E-01 -0.22812140406E-01  0.31059240998E-01  0.00000000000E+00 0. -1.
       22    1    1    2    0    0  0.66957921254E-02  0.16076934446E-01  0.16835726315E-02  0.17496738844E-01  0.00000000000E+00 0. -1.
       22    1    1    2    0    0  0.15363665320E-02  0.33270410558E-02  0.21128567775E-01  0.21444020158E-01  0.00000000000E+00 0.  1.
</event>
<event>
 5   0  0.4143600E+04  0.9118800E+02  0.7546771E-02  0.1180000E+00
      -11   -1    0    0    0    0  0.00000000000E+00  0.00000000000E+00  0.34996269501E-01  0.35000000000E-01  0.51099999109E-03 0. -1.
       11   -1    0    0    0    0 -0.00000000000E+00 -0.00000000000E+00 -0.34996269501E-01  0.35000000000E-01  0.51099999109E-03 0.  1.
       22    1    1    2    0    0 -0.44671530438E-04 -0.43728158076E-05  0.15577492602E-02  0.15583957857E-02  0.00000000000E+00 0. -1.
       22    1    1    2    0    0 -0.18810857043E-01  0.11068054157E-01  0.25559062679E-01  0.33609758264E-01  0.00000000000E+00 0.  1.
       22    1    1    2    0    0  0.18855528573E-01 -0.11063681342E-01 -0.27116811939E-01  0.34831845951E-01  0.00000000000E+00 0. -1.
</event>
<event>
 5   0  0.4143600E+04  0.9118800E+02  0.7546771E-02  0.1180000E+00
      -11   -1    0    0    0    0  0.00000000000E+00  0.00000000000E+00  0.34996269501E-01  0.35000000000E-01  0.51099999109E-03 0. -1.
       11   -1    0    0    0    0 -0.00000000000E+00 -0.00000000000E+00 -0.34996269501E-01  0.35000000000E-01  0.51099999109E-03 0.  1.
       22    1    1    2    0    0 -0.19706459078E-01 -0.91733934214E-02  0.13481137811E-01  0.25578052173E-01  0.00000000000E+00 0. -1.
       22    1    1    2    0    0  0.16259689252E-01  0.99832372731E-02 -0.25525258466E-01  0.31868186971E-01  0.00000000000E+00 0.  1.
       22    1    1    2    0    0  0.34467698262E-02 -0.80984385168E-03  0.12044120655E-01  0.12553760857E-01  0.00000000000E+00 0. -1.
</event>
<event>
 5   0  0.4143600E+04  0.9118800E+02  0.7546771E-02  0.1180000E+00
      -11   -1    0    0    0    0  0.00000000000E+00  0.00000000000E+00  0.34996269501E-01  0.35000000000E-01  0.51099999109E-03 0.  1.
       11   -1    0    0    0    0 -0.00000000000E+00 -0.00000000000E+00 -0.34996269501E-01  0.35000000000E-01  0.51099999109E-03 0. -1.
       22    1    1    2    0    0  0.51722811928E-02 -0.10507663944E-01 -0.32105992017E-01  0.34175403695E-01  0.00000000000E+00 0. -1.
       22    1    1    2    0    0 -0.40964221374E-03  0.36779054593E-02  0.13144712321E-02  0.39271656358E-02  0.00000000000E+00 0.  1.
       22    1    1    2    0    0 -0.47626389790E-02  0.68297584851E-02  0.30791520785E-01  0.31897430669E-01  0.00000000000E+00 0.  1.
</event>
<event>
 5   0  0.4143600E+04  0.9118800E+02  0.7546771E-02  0.1180000E+00
      -11   -1    0    0    0    0  0.00000000000E+00  0.00000000000E+00  0.34996269501E-01  0.35000000000E-01  0.51099999109E-03 0. -1.
       11   -1    0    0    0    0 -0.00000000000E+00 -0.00000000000E+00 -0.34996269501E-01  0.35000000000E-01  0.51099999109E-03 0.  1.
       22    1    1    2    0    0  0.72346326420E-04 -0.90477942537E-04  0.58485940769E-02  0.58497412700E-02  0.00000000000E+00 0. -1.
       22    1    1    2    0    0  0.16779249944E-01 -0.38093584301E-02 -0.29916502222E-01  0.34511614647E-01  0.00000000000E+00 0.  1.
       22    1    1    2    0    0 -0.16851596271E-01  0.38998363727E-02  0.24067908145E-01  0.29638644083E-01  0.00000000000E+00 0. -1.
</event>
<event>
 5   0  0.4143600E+04  0.9118800E+02  0.7546771E-02  0.1180000E+00
      -11   -1    0    0    0    0  0.00000000000E+00  0.00000000000E+00  0.34996269501E-01  0.35000000000E-01  0.51099999109E-03 0.  1.
       11   -1    0    0    0    0 -0.00000000000E+00 -0.00000000000E+00 -0.34996269501E-01  0.35000000000E-01  0.51099999109E-03 0. -1.
       22    1    1    2    0    0  0.45303938857E-02 -0.14040723116E-01  0.30396786733E-01  0.33788030692E-01  0.00000000000E+00 0.  1.
       22    1    1    2    0    0 -0.47450271807E-02  0.13854304610E-01 -0.15541804942E-01  0.21354267490E-01  0.00000000000E+00 0. -1.
       22    1    1    2    0    0  0.21463329498E-03  0.18641850642E-03 -0.14854981791E-01  0.14857701818E-01  0.00000000000E+00 0. -1.
</event>
<event>
 5   0  0.4143600E+04  0.9118800E+02  0.7546771E-02  0.1180000E+00
      -11   -1    0    0    0    0  0.00000000000E+00  0.00000000000E+00  0.34996269501E-01  0.35000000000E-01  0.51099999109E-03 0. -1.
       11   -1    0    0    0    0 -0.00000000000E+00 -0.00000000000E+00 -0.34996269501E-01  0.35000000000E-01  0.51099999109E-03 0.  1.
       22    1    1    2    0    0 -0.73686347015E-02  0.53059355825E-02 -0.33141791717E-01  0.34363179247E-01  0.00000000000E+00 0.  1.
       22    1    1    2    0    0  0.73733283988E-02 -0.55893044426E-02  0.33734243115E-01  0.34980072246E-01  0.00000000000E+00 0. -1.
       22    1    1    2    0    0 -0.46936973484E-05  0.28336886017E-03 -0.59245139784E-03  0.65674850629E-03  0.00000000000E+00 0. -1.
</event>
<event>
 5   0  0.4143600E+04  0.9118800E+02  0.7546771E-02  0.1180000E+00
      -11   -1    0    0    0    0  0.00000000000E+00  0.00000000000E+00  0.34996269501E-01  0.35000000000E-01  0.51099999109E-03 0.  1.
       11   -1    0    0    0    0 -0.00000000000E+00 -0.00000000000E+00 -0.34996269501E-01  0.35000000000E-01  0.51099999109E-03 0. -1.
       22    1    1    2    0    0  0.86902670038E-03  0.11616680427E-03 -0.24572251653E-01  0.24587888348E-01  0.00000000000E+00 0. -1.
       22    1    1    2    0    0 -0.56203386547E-02  0.30323464329E-02  0.33891532941E-01  0.34487959299E-01  0.00000000000E+00 0.  1.
       22    1    1    2    0    0  0.47513119543E-02 -0.31485132372E-02 -0.93192812883E-02  0.10924152353E-01  0.00000000000E+00 0. -1.
</event>
<event>
 5   0  0.4143600E+04  0.9118800E+02  0.7546771E-02  0.1180000E+00
      -11   -1    0    0    0    0  0.00000000000E+00  0.00000000000E+00  0.34996269501E-01  0.35000000000E-01  0.51099999109E-03 0. -1.
       11   -1    0    0    0    0 -0.00000000000E+00 -0.00000000000E+00 -0.34996269501E-01  0.35000000000E-01  0.51099999109E-03 0.  1.
       22    1    1    2    0    0 -0.16291908778E-01  0.17405999202E-03  0.30210962123E-01  0.34324318215E-01  0.00000000000E+00 0. -1.
       22    1    1    2    0    0  0.16014357202E-01 -0.35945846716E-04 -0.20757171894E-01  0.26216809755E-01  0.00000000000E+00 0.  1.
       22    1    1    2    0    0  0.27755157651E-03 -0.13811414530E-03 -0.94537902293E-02  0.94588720307E-02  0.00000000000E+00 0.  1.
</event>
<event>
 5   0  0.4143600E+04  0.9118800E+02  0.7546771E-02  0.1180000E+00
      -11   -1    0    0    0    0  0.00000000000E+00  0.00000000000E+00  0.34996269501E-01  0.35000000000E-01  0.51099999109E-03 0. -1.
       11   -1    0    0    0    0 -0.00000000000E+00 -0.00000000000E+00 -0.34996269501E-01  0.35000000000E-01  0.51099999109E-03 0.  1.
       22    1    1    2    0    0  0.64449982182E-03 -0.29470244563E-04  0.12696800123E-01  0.12713181423E-01  0.00000000000E+00 0. -1.
       22    1    1    2    0    0  0.15682521461E-01 -0.77102243273E-02 -0.28401421389E-01  0.33347110452E-01  0.00000000000E+00 0.  1.
       22    1    1    2    0    0 -0.16327021283E-01  0.77396945718E-02  0.15704621266E-01  0.23939708126E-01  0.00000000000E+00 0. -1.
</event>
<event>
 5   0  0.4143600E+04  0.9118800E+02  0.7546771E-02  0.1180000E+00
      -11   -1    0    0    0    0  0.00000000000E+00  0.00000000000E+00  0.34996269501E-01  0.35000000000E-01  0.51099999109E-03 0. -1.
       11   -1    0    0    0    0 -0.00000000000E+00 -0.00000000000E+00 -0.34996269501E-01  0.35000000000E-01  0.51099999109E-03 0.  1.
       22    1    1    2    0    0 -0.19260761601E-01 -0.11597069019E-01  0.60988687576E-02  0.23295174337E-01  0.00000000000E+00 0. -1.
       22    1    1    2    0    0  0.12676404403E-01  0.59005513602E-02  0.17004703627E-01  0.22015169325E-01  0.00000000000E+00 0. -1.
       22    1    1    2    0    0  0.65843571973E-02  0.56965176593E-02 -0.23103572385E-01  0.24689656338E-01  0.00000000000E+00 0.  1.
</event>
<event>
 5   0  0.4143600E+04  0.9118800E+02  0.7546771E-02  0.1180000E+00
      -11   -1    0    0    0    0  0.00000000000E+00  0.00000000000E+00  0.34996269501E-01  0.35000000000E-01  0.51099999109E-03 0.  1.
       11   -1    0    0    0    0 -0.00000000000E+00 -0.00000000000E+00 -0.34996269501E-01  0.35000000000E-01  0.51099999109E-03 0.  1.
       22    1    1    2    0    0 -0.00000000000E+00 -0.00000000000E+00  0.34884029480E-01  0.34883323383E-01  0.00000000000E+00 0.  1.
       22    1    1    2    0    0  0.60442279822E-03 -0.96375479881E-03 -0.29403403257E-02  0.31527371381E-02  0.00000000000E+00 0. -1.
       22    1    1    2    0    0 -0.60442279822E-03  0.96375479881E-03 -0.31943689154E-01  0.31963939479E-01  0.00000000000E+00 0.  1.
</event>
<event>
 5   0  0.4143600E+04  0.9118800E+02  0.7546771E-02  0.1180000E+00
      -11   -1    0    0    0    0  0.00000000000E+00  0.00000000000E+00  0.34996269501E-01  0.35000000000E-01  0.51099999109E-03 0.  1.
       11   -1    0    0    0    0 -0.00000000000E+00 -0.00000000000E+00 -0.34996269501E-01  0.35000000000E-01  0.51099999109E-03 0. -1.
       22    1    1    2    0    0  0.21469659487E-01 -0.56100492423E-02 -0.26483213096E-01  0.34551114408E-01  0.00000000000E+00 0. -1.
       22    1    1    2    0    0  0.61425069575E-03  0.19368566566E-03  0.16848360339E-02  0.18037434727E-02  0.00000000000E+00 0.  1.
       22    1    1    2    0    0 -0.22083910182E-01  0.54163635766E-02  0.24798377062E-01  0.33645142119E-01  0.00000000000E+00 0.  1.
</event>
<event>
 5   0  0.4143600E+04  0.9118800E+02  0.7546771E-02  0.1180000E+00
      -11   -1    0    0    0    0  0.00000000000E+00  0.00000000000E+00  0.34996269501E-01  0.35000000000E-01  0.51099999109E-03 0.  1.
       11   -1    0    0    0    0 -0.00000000000E+00 -0.00000000000E+00 -0.34996269501E-01  0.35000000000E-01  0.51099999109E-03 0. -1.
       22    1    1    2    0    0  0.95810982028E-02  0.18870503089E-01 -0.27846603321E-01  0.34976086775E-01  0.00000000000E+00 0. -1.
       22    1    1    2    0    0  0.79283203112E-04 -0.14705213797E-03  0.30591786252E-03  0.34856261444E-03  0.00000000000E+00 0.  1.
       22    1    1    2    0    0 -0.96603814060E-02 -0.18723450951E-01  0.27540685458E-01  0.34675350610E-01  0.00000000000E+00 0.  1.
</event>
<event>
 5   0  0.4143600E+04  0.9118800E+02  0.7546771E-02  0.1180000E+00
      -11   -1    0    0    0    0  0.00000000000E+00  0.00000000000E+00  0.34996269501E-01  0.35000000000E-01  0.51099999109E-03 0. -1.
       11   -1    0    0    0    0 -0.00000000000E+00 -0.00000000000E+00 -0.34996269501E-01  0.35000000000E-01  0.51099999109E-03 0.  1.
       22    1    1    2    0    0 -0.12843645498E-01 -0.68824299792E-02  0.30347057950E-01  0.33664090635E-01  0.00000000000E+00 0. -1.
       22    1    1    2    0    0  0.13710497872E-01  0.79496843599E-02 -0.30998103739E-01  0.34814618607E-01  0.00000000000E+00 0.  1.
       22    1    1    2    0    0 -0.86685237362E-03 -0.10672543807E-02  0.65104578910E-03  0.15212907580E-02  0.00000000000E+00 0.  1.
</event>
<event>
 5   0  0.4143600E+04  0.9118800E+02  0.7546771E-02  0.1180000E+00
      -11   -1    0    0    0    0  0.00000000000E+00  0.00000000000E+00  0.34996269501E-01  0.35000000000E-01  0.51099999109E-03 0. -1.
       11   -1    0    0    0    0 -0.00000000000E+00 -0.00000000000E+00 -0.34996269501E-01  0.35000000000E-01  0.51099999109E-03 0.  1.
       22    1    1    2    0    0  0.67071577025E-02  0.11058164871E-01  0.17922844194E-01  0.22101975449E-01  0.00000000000E+00 0. -1.
       22    1    1    2    0    0 -0.47270696941E-02  0.11308490935E-02  0.13386411946E-01  0.14241489822E-01  0.00000000000E+00 0. -1.
       22    1    1    2    0    0 -0.19800880084E-02 -0.12189013965E-01 -0.31309256139E-01  0.33656534729E-01  0.00000000000E+00 0.  1.
</event>
<event>
 5   0  0.4143600E+04  0.9118800E+02  0.7546771E-02  0.1180000E+00
      -11   -1    0    0    0    0  0.00000000000E+00  0.00000000000E+00  0.34996269501E-01  0.35000000000E-01  0.51099999109E-03 0.  1.
       11   -1    0    0    0    0 -0.00000000000E+00 -0.00000000000E+00 -0.34996269501E-01  0.35000000000E-01  0.51099999109E-03 0. -1.
       22    1    1    2    0    0  0.44621754738E-04 -0.73556331927E-04  0.10642266291E-02  0.10676984373E-02  0.00000000000E+00 0.  1.
       22    1    1    2    0    0 -0.12721043824E-01 -0.77545157606E-02  0.30546799007E-01  0.33986238395E-01  0.00000000000E+00 0.  1.
       22    1    1    2    0    0  0.12676422069E-01  0.78280720925E-02 -0.31611025636E-01  0.34946063168E-01  0.00000000000E+00 0. -1.
</event>
<event>
 5   0  0.4143600E+04  0.9118800E+02  0.7546771E-02  0.1180000E+00
      -11   -1    0    0    0    0  0.00000000000E+00  0.00000000000E+00  0.34996269501E-01  0.35000000000E-01  0.51099999109E-03 0.  1.
       11   -1    0    0    0    0 -0.00000000000E+00 -0.00000000000E+00 -0.34996269501E-01  0.35000000000E-01  0.51099999109E-03 0. -1.
       22    1    1    2    0    0 -0.14596335266E-02  0.72453583400E-03  0.34813517409E-01  0.34851635207E-01  0.00000000000E+00 0.  1.
       22    1    1    2    0    0  0.46082519935E-03 -0.69311217213E-03 -0.33437030286E-01  0.33447387921E-01  0.00000000000E+00 0. -1.
       22    1    1    2    0    0  0.99880832725E-03 -0.31423661864E-04 -0.13764871226E-02  0.17009768722E-02  0.00000000000E+00 0. -1.
</event>
<event>
 5   0  0.4143600E+04  0.9118800E+02  0.7546771E-02  0.1180000E+00
      -11   -1    0    0    0    0  0.00000000000E+00  0.00000000000E+00  0.34996269501E-01  0.35000000000E-01  0.51099999109E-03 0.  1.
       11   -1    0    0    0    0 -0.00000000000E+00 -0.00000000000E+00 -0.34996269501E-01  0.35000000000E-01  0.51099999109E-03 0. -1.
       22    1    1    2    0    0  0.16037201411E-01 -0.33177710763E-02 -0.30005376447E-01  0.34183651791E-01  0.00000000000E+00 0. -1.
       22    1    1    2    0    0 -0.15748007659E-01  0.31795917712E-02  0.30921338963E-01  0.34845928776E-01  0.00000000000E+00 0.  1.
       22    1    1    2    0    0 -0.28919375184E-03  0.13817930505E-03 -0.91596251540E-03  0.97041943306E-03  0.00000000000E+00 0. -1.
</event>
<event>
 5   0  0.4143600E+04  0.9118800E+02  0.7546771E-02  0.1180000E+00
      -11   -1    0    0    0    0  0.00000000000E+00  0.00000000000E+00  0.34996269501E-01  0.35000000000E-01  0.51099999109E-03 0. -1.
       11   -1    0    0    0    0 -0.00000000000E+00 -0.00000000000E+00 -0.34996269501E-01  0.35000000000E-01  0.51099999109E-03 0.  1.
       22    1    1    2    0    0  0.11979767559E-01 -0.74542459665E-02  0.31677151319E-01  0.34677406613E-01  0.00000000000E+00 0. -1.
       22    1    1    2    0    0 -0.12084855229E-01  0.74994807340E-02 -0.31979331484E-01  0.34999479701E-01  0.00000000000E+00 0.  1.
       22    1    1    2    0    0  0.10508767024E-03 -0.45234767431E-04  0.30218016472E-03  0.32311368676E-03  0.00000000000E+00 0. -1.
</event>
<event>
 5   0  0.4143600E+04  0.9118800E+02  0.7546771E-02  0.1180000E+00
      -11   -1    0    0    0    0  0.00000000000E+00  0.00000000000E+00  0.34996269501E-01  0.35000000000E-01  0.51099999109E-03 0.  1.
       11   -1    0    0    0    0 -0.00000000000E+00 -0.00000000000E+00 -0.34996269501E-01  0.35000000000E-01  0.51099999109E-03 0. -1.
       22    1    1    2    0    0  0.70598829424E-03 -0.11951146342E-03  0.29887594462E-01  0.29896170410E-01  0.00000000000E+00 0.  1.
       22    1    1    2    0    0  0.12559329266E-01 -0.17908014273E-02 -0.18952490540E-01  0.22806591570E-01  0.00000000000E+00 0.  1.
       22    1    1    2    0    0 -0.13265317561E-01  0.19103128907E-02 -0.10935103922E-01  0.17297238020E-01  0.00000000000E+00 0. -1.
</event>
<event>
 5   0  0.4143600E+04  0.9118800E+02  0.7546771E-02  0.1180000E+00
      -11   -1    0    0    0    0  0.00000000000E+00  0.00000000000E+00  0.34996269501E-01  0.35000000000E-01  0.51099999109E-03 0.  1.
       11   -1    0    0    0    0 -0.00000000000E+00 -0.00000000000E+00 -0.34996269501E-01  0.35000000000E-01  0.51099999109E-03 0. -1.
       22    1    1    2    0    0 -0.46896851795E-02  0.21659151400E-02  0.33960627531E-01  0.34351252638E-01  0.00000000000E+00 0.  1.
       22    1    1    2    0    0 -0.27972834221E-02 -0.16195268688E-02 -0.81161541135E-02  0.87361100850E-02  0.00000000000E+00 0. -1.
       22    1    1    2    0    0  0.74869686016E-02 -0.54638827120E-03 -0.25844473418E-01  0.26912637277E-01  0.00000000000E+00 0. -1.
</event>
<event>
 5   0  0.4143600E+04  0.9118800E+02  0.7546771E-02  0.1180000E+00
      -11   -1    0    0    0    0  0.00000000000E+00  0.00000000000E+00  0.34996269501E-01  0.35000000000E-01  0.51099999109E-03 0.  1.
       11   -1    0    0    0    0 -0.00000000000E+00 -0.00000000000E+00 -0.34996269501E-01  0.35000000000E-01  0.51099999109E-03 0. -1.
       22    1    1    2    0    0 -0.23435958576E-03  0.24731463471E-03 -0.26769113282E-04  0.34176823931E-03  0.00000000000E+00 0.  1.
       22    1    1    2    0    0  0.23046174284E-01 -0.53302424030E-02 -0.25680936776E-01  0.34914869997E-01  0.00000000000E+00 0. -1.
       22    1    1    2    0    0 -0.22811814698E-01  0.50829277683E-02  0.25707705890E-01  0.34743361764E-01  0.00000000000E+00 0.  1.
</event>
<event>
 5   0  0.4143600E+04  0.9118800E+02  0.7546771E-02  0.1180000E+00
      -11   -1    0    0    0    0  0.00000000000E+00  0.00000000000E+00  0.34996269501E-01  0.35000000000E-01  0.51099999109E-03 0.  1.
       11   -1    0    0    0    0 -0.00000000000E+00 -0.00000000000E+00 -0.34996269501E-01  0.35000000000E-01  0.51099999109E-03 0. -1.
       22    1    1    2    0    0 -0.16841053373E-02  0.43459240049E-03 -0.34426790050E-01  0.34470697041E-01  0.00000000000E+00 0. -1.
       22    1    1    2    0    0  0.17903521972E-02 -0.20263143816E-03  0.34924003523E-01  0.34970450992E-01  0.00000000000E+00 0.  1.
       22    1    1    2    0    0 -0.10624685989E-03 -0.23196096233E-03 -0.49721347355E-03  0.55885196748E-03  0.00000000000E+00 0.  1.
</event>
<event>
 5   0  0.4143600E+04  0.9118800E+02  0.7546771E-02  0.1180000E+00
      -11   -1    0    0    0    0  0.00000000000E+00  0.00000000000E+00  0.34996269501E-01  0.35000000000E-01  0.51099999109E-03 0.  1.
       11   -1    0    0    0    0 -0.00000000000E+00 -0.00000000000E+00 -0.34996269501E-01  0.35000000000E-01  0.51099999109E-03 0. -1.
       22    1    1    2    0    0  0.70324609620E-02  0.34338268391E-02  0.33984682520E-01  0.34874135400E-01  0.00000000000E+00 0.  1.
       22    1    1    2    0    0 -0.60174777545E-02 -0.19964075971E-02 -0.31155991982E-01  0.31794520254E-01  0.00000000000E+00 0. -1.
       22    1    1    2    0    0 -0.10149832075E-02 -0.14374192420E-02 -0.28286905379E-02  0.33313443454E-02  0.00000000000E+00 0.  1.
</event>
<event>
 5   0  0.4143600E+04  0.9118800E+02  0.7546771E-02  0.1180000E+00
      -11   -1    0    0    0    0  0.00000000000E+00  0.00000000000E+00  0.34996269501E-01  0.35000000000E-01  0.51099999109E-03 0.  1.
       11   -1    0    0    0    0 -0.00000000000E+00 -0.00000000000E+00 -0.34996269501E-01  0.35000000000E-01  0.51099999109E-03 0. -1.
       22    1    1    2    0    0 -0.64948756884E-03  0.95225532867E-03  0.34387632754E-01  0.34406945676E-01  0.00000000000E+00 0.  1.
       22    1    1    2    0    0 -0.12919870842E-02 -0.32547086054E-02 -0.30373537183E-01  0.30574730084E-01  0.00000000000E+00 0. -1.
       22    1    1    2    0    0  0.19414746531E-02  0.23024532768E-02 -0.40140955716E-02  0.50183242400E-02  0.00000000000E+00 0.  1.
</event>
<event>
 5   0  0.4143600E+04  0.9118800E+02  0.7546771E-02  0.1180000E+00
      -11   -1    0    0    0    0  0.00000000000E+00  0.00000000000E+00  0.34996269501E-01  0.35000000000E-01  0.51099999109E-03 0. -1.
       11   -1    0    0    0    0 -0.00000000000E+00 -0.00000000000E+00 -0.34996269501E-01  0.35000000000E-01  0.51099999109E-03 0.  1.
       22    1    1    2    0    0 -0.75026783874E-05  0.40981342606E-04  0.45959963304E-03  0.46148410949E-03  0.00000000000E+00 0. -1.
       22    1    1    2    0    0  0.16031888841E-01  0.96326339333E-02  0.29075542939E-01  0.34571611092E-01  0.00000000000E+00 0. -1.
       22    1    1    2    0    0 -0.16024386162E-01 -0.96736152759E-02 -0.29535142573E-01  0.34966904798E-01  0.00000000000E+00 0.  1.
</event>
<event>
 5   0  0.4143600E+04  0.9118800E+02  0.7546771E-02  0.1180000E+00
      -11   -1    0    0    0    0  0.00000000000E+00  0.00000000000E+00  0.34996269501E-01  0.35000000000E-01  0.51099999109E-03 0. -1.
       11   -1    0    0    0    0 -0.00000000000E+00 -0.00000000000E+00 -0.34996269501E-01  0.35000000000E-01  0.51099999109E-03 0.  1.
       22    1    1    2    0    0 -0.10844618830E-01 -0.15899724600E-02 -0.29528165516E-01  0.31496766957E-01  0.00000000000E+00 0.  1.
       22    1    1    2    0    0  0.98560601146E-02  0.35586256755E-02  0.32870421151E-01  0.34500294554E-01  0.00000000000E+00 0. -1.
       22    1    1    2    0    0  0.98855871495E-03 -0.19686532155E-02 -0.33422556350E-02  0.40029384888E-02  0.00000000000E+00 0. -1.
</event>
<event>
 5   0  0.4143600E+04  0.9118800E+02  0.7546771E-02  0.1180000E+00
      -11   -1    0    0    0    0  0.00000000000E+00  0.00000000000E+00  0.34996269501E-01  0.35000000000E-01  0.51099999109E-03 0. -1.
       11   -1    0    0    0    0 -0.00000000000E+00 -0.00000000000E+00 -0.34996269501E-01  0.35000000000E-01  0.51099999109E-03 0.  1.
       22    1    1    2    0    0 -0.29950581030E-05 -0.78394561792E-04  0.69414934451E-03  0.69856852933E-03  0.00000000000E+00 0. -1.
       22    1    1    2    0    0 -0.36399895661E-02  0.14606795865E-01  0.30880519482E-01  0.34354249998E-01  0.00000000000E+00 0. -1.
       22    1    1    2    0    0  0.36429846242E-02 -0.14528401303E-01 -0.31574668826E-01  0.34947181473E-01  0.00000000000E+00 0.  1.
</event>
<event>
 5   0  0.4143600E+04  0.9118800E+02  0.7546771E-02  0.1180000E+00
      -11   -1    0    0    0    0  0.00000000000E+00  0.00000000000E+00  0.34996269501E-01  0.35000000000E-01  0.51099999109E-03 0.  1.
       11   -1    0    0    0    0 -0.00000000000E+00 -0.00000000000E+00 -0.34996269501E-01  0.35000000000E-01  0.51099999109E-03 0. -1.
       22    1    1    2    0    0 -0.62110495787E-02 -0.13393912398E-01  0.29819719937E-02  0.15062077651E-01  0.00000000000E+00 0.  1.
       22    1    1    2    0    0  0.14343157742E-01  0.15174722781E-01 -0.24307836735E-01  0.32044801641E-01  0.00000000000E+00 0. -1.
       22    1    1    2    0    0 -0.81321081632E-02 -0.17808103827E-02  0.21325864741E-01  0.22893120708E-01  0.00000000000E+00 0.  1.
</event>
<event>
 5   0  0.4143600E+04  0.9118800E+02  0.7546771E-02  0.1180000E+00
      -11   -1    0    0    0    0  0.00000000000E+00  0.00000000000E+00  0.34996269501E-01  0.35000000000E-01  0.51099999109E-03 0.  1.
       11   -1    0    0    0    0 -0.00000000000E+00 -0.00000000000E+00 -0.34996269501E-01  0.35000000000E-01  0.51099999109E-03 0. -1.
       22    1    1    2    0    0  0.13013165542E-01  0.12140084460E-01 -0.22340523553E-01  0.28562617540E-01  0.00000000000E+00 0. -1.
       22    1    1    2    0    0 -0.93538631761E-04 -0.39026425774E-03 -0.71514673953E-02  0.71627188674E-02  0.00000000000E+00 0.  1.
       22    1    1    2    0    0 -0.12919626910E-01 -0.11749820203E-01  0.29491990948E-01  0.34274663593E-01  0.00000000000E+00 0.  1.
</event>
<event>
 5   0  0.4143600E+04  0.9118800E+02  0.7546771E-02  0.1180000E+00
      -11   -1    0    0    0    0  0.00000000000E+00  0.00000000000E+00  0.34996269501E-01  0.35000000000E-01  0.51099999109E-03 0.  1.
       11   -1    0    0    0    0 -0.00000000000E+00 -0.00000000000E+00 -0.34996269501E-01  0.35000000000E-01  0.51099999109E-03 0. -1.
       22    1    1    2    0    0  0.73026990017E-02  0.14670256134E-01  0.30819893116E-01  0.34905753672E-01  0.00000000000E+00 0.  1.
       22    1    1    2    0    0 -0.72897818358E-02 -0.14882774466E-01 -0.30432960858E-01  0.34652604542E-01  0.00000000000E+00 0. -1.
       22    1    1    2    0    0 -0.12917165866E-04  0.21251833207E-03 -0.38693225805E-03  0.44164178579E-03  0.00000000000E+00 0. -1.
</event>
<event>
 5   0  0.4143600E+04  0.9118800E+02  0.7546771E-02  0.1180000E+00
      -11   -1    0    0    0    0  0.00000000000E+00  0.00000000000E+00  0.34996269501E-01  0.35000000000E-01  0.51099999109E-03 0.  1.
       11   -1    0    0    0    0 -0.00000000000E+00 -0.00000000000E+00 -0.34996269501E-01  0.35000000000E-01  0.51099999109E-03 0. -1.
       22    1    1    2    0    0  0.10919801990E-04 -0.47539290933E-04  0.30712470189E-03  0.31097396799E-03  0.00000000000E+00 0. -1.
       22    1    1    2    0    0  0.14183292861E-01 -0.14581152586E-01  0.28122048460E-01  0.34707714081E-01  0.00000000000E+00 0.  1.
       22    1    1    2    0    0 -0.14194212663E-01  0.14628691877E-01 -0.28429173162E-01  0.34981311951E-01  0.00000000000E+00 0. -1.
</event>
<event>
 5   0  0.4143600E+04  0.9118800E+02  0.7546771E-02  0.1180000E+00
      -11   -1    0    0    0    0  0.00000000000E+00  0.00000000000E+00  0.34996269501E-01  0.35000000000E-01  0.51099999109E-03 0. -1.
       11   -1    0    0    0    0 -0.00000000000E+00 -0.00000000000E+00 -0.34996269501E-01  0.35000000000E-01  0.51099999109E-03 0.  1.
       22    1    1    2    0    0 -0.31577472640E-02 -0.77544428652E-04 -0.24367407475E-02  0.39893716788E-02  0.00000000000E+00 0. -1.
       22    1    1    2    0    0 -0.15955043064E-01  0.48213854173E-02  0.28697329730E-01  0.33186531758E-01  0.00000000000E+00 0. -1.
       22    1    1    2    0    0  0.19112790328E-01 -0.47438409887E-02 -0.26260588983E-01  0.32824096563E-01  0.00000000000E+00 0.  1.
</event>
<event>
 5   0  0.4143600E+04  0.9118800E+02  0.7546771E-02  0.1180000E+00
      -11   -1    0    0    0    0  0.00000000000E+00  0.00000000000E+00  0.34996269501E-01  0.35000000000E-01  0.51099999109E-03 0.  1.
       11   -1    0    0    0    0 -0.00000000000E+00 -0.00000000000E+00 -0.34996269501E-01  0.35000000000E-01  0.51099999109E-03 0. -1.
       22    1    1    2    0    0  0.71659072143E-05 -0.10337292890E-03 -0.29318418470E-03  0.31095703693E-03  0.00000000000E+00 0.  1.
       22    1    1    2    0    0 -0.14839592272E-01  0.66400575290E-02 -0.30685480813E-01  0.34726108269E-01  0.00000000000E+00 0. -1.
       22    1    1    2    0    0  0.14832426365E-01 -0.65366846001E-02  0.30978664997E-01  0.34962934694E-01  0.00000000000E+00 0.  1.
</event>
<event>
 5   0  0.4143600E+04  0.9118800E+02  0.7546771E-02  0.1180000E+00
      -11   -1    0    0    0    0  0.00000000000E+00  0.00000000000E+00  0.34996269501E-01  0.35000000000E-01  0.51099999109E-03 0.  1.
       11   -1    0    0    0    0 -0.00000000000E+00 -0.00000000000E+00 -0.34996269501E-01  0.35000000000E-01  0.51099999109E-03 0. -1.
       22    1    1    2    0    0  0.69388936716E-02  0.94683843267E-02  0.32144670021E-01  0.34221022163E-01  0.00000000000E+00 0.  1.
       22    1    1    2    0    0  0.31374624678E-04 -0.14867672460E-04  0.80126167661E-03  0.80201352180E-03  0.00000000000E+00 0. -1.
       22    1    1    2    0    0 -0.69702682962E-02 -0.94535166543E-02 -0.32945931698E-01  0.34976964315E-01  0.00000000000E+00 0. -1.
</event>
<event>
 5   0  0.4143600E+04  0.9118800E+02  0.7546771E-02  0.1180000E+00
      -11   -1    0    0    0    0  0.00000000000E+00  0.00000000000E+00  0.34996269501E-01  0.35000000000E-01  0.51099999109E-03 0. -1.
       11   -1    0    0    0    0 -0.00000000000E+00 -0.00000000000E+00 -0.34996269501E-01  0.35000000000E-01  0.51099999109E-03 0.  1.
       22    1    1    2    0    0 -0.11099718246E-01  0.82384673702E-02  0.32136233986E-01  0.34983047674E-01  0.00000000000E+00 0. -1.
       22    1    1    2    0    0  0.21107881708E-03  0.39446925069E-04 -0.74262784417E-03  0.77305009013E-03  0.00000000000E+00 0. -1.
       22    1    1    2    0    0  0.10888639429E-01 -0.82779142953E-02 -0.31393606142E-01  0.34243902235E-01  0.00000000000E+00 0.  1.
</event>
<event>
 5   0  0.4143600E+04  0.9118800E+02  0.7546771E-02  0.1180000E+00
      -11   -1    0    0    0    0  0.00000000000E+00  0.00000000000E+00  0.34996269501E-01  0.35000000000E-01  0.51099999109E-03 0. -1.
       11   -1    0    0    0    0 -0.00000000000E+00 -0.00000000000E+00 -0.34996269501E-01  0.35000000000E-01  0.51099999109E-03 0.  1.
       22    1    1    2    0    0 -0.20445997691E-02 -0.11327187499E-01 -0.22214793747E-01  0.25019644803E-01  0.00000000000E+00 0.  1.
       22    1    1    2    0    0  0.15189764576E-02  0.64081408504E-02 -0.10226744888E-01  0.12163793391E-01  0.00000000000E+00 0. -1.
       22    1    1    2    0    0  0.52562331148E-03  0.49190466489E-02  0.32441538635E-01  0.32816561807E-01  0.00000000000E+00 0. -1.
</event>
<event>
 5   0  0.4143600E+04  0.9118800E+02  0.7546771E-02  0.1180000E+00
      -11   -1    0    0    0    0  0.00000000000E+00  0.00000000000E+00  0.34996269501E-01  0.35000000000E-01  0.51099999109E-03 0. -1.
       11   -1    0    0    0    0 -0.00000000000E+00 -0.00000000000E+00 -0.34996269501E-01  0.35000000000E-01  0.51099999109E-03 0.  1.
       22    1    1    2    0    0  0.71933597145E-02  0.71749343610E-02 -0.18560193842E-01  0.21159038317E-01  0.00000000000E+00 0.  1.
       22    1    1    2    0    0 -0.64480371608E-02 -0.43670136898E-02  0.33105100678E-01  0.34008758911E-01  0.00000000000E+00 0. -1.
       22    1    1    2    0    0 -0.74532255375E-03 -0.28079206712E-02 -0.14544906836E-01  0.14832202772E-01  0.00000000000E+00 0.  1.
</event>
<event>
 5   0  0.4143600E+04  0.9118800E+02  0.7546771E-02  0.1180000E+00
      -11   -1    0    0    0    0  0.00000000000E+00  0.00000000000E+00  0.34996269501E-01  0.35000000000E-01  0.51099999109E-03 0. -1.
       11   -1    0    0    0    0 -0.00000000000E+00 -0.00000000000E+00 -0.34996269501E-01  0.35000000000E-01  0.51099999109E-03 0.  1.
       22    1    1    2    0    0  0.12486458538E-02  0.82231397859E-04 -0.21438425193E-01  0.21474914510E-01  0.00000000000E+00 0.  1.
       22    1    1    2    0    0 -0.46050426391E-03 -0.45992083252E-02 -0.12992491471E-01  0.13790199999E-01  0.00000000000E+00 0.  1.
       22    1    1    2    0    0 -0.78814158988E-03  0.45169769273E-02  0.34430916664E-01  0.34734885491E-01  0.00000000000E+00 0. -1.
</event>
<event>
 5   0  0.4143600E+04  0.9118800E+02  0.7546771E-02  0.1180000E+00
      -11   -1    0    0    0    0  0.00000000000E+00  0.00000000000E+00  0.34996269501E-01  0.35000000000E-01  0.51099999109E-03 0.  1.
       11   -1    0    0    0    0 -0.00000000000E+00 -0.00000000000E+00 -0.34996269501E-01  0.35000000000E-01  0.51099999109E-03 0. -1.
       22    1    1    2    0    0  0.71449482763E-02  0.13351763370E-01 -0.31331033167E-01  0.34798757309E-01  0.00000000000E+00 0. -1.
       22    1    1    2    0    0  0.80947517964E-03 -0.60798593664E-03  0.23257279440E-02  0.25365148206E-02  0.00000000000E+00 0. -1.
       22    1    1    2    0    0 -0.79544234560E-02 -0.12743777434E-01  0.29005305223E-01  0.32664727870E-01  0.00000000000E+00 0.  1.
</event>
<event>
 5   0  0.4143600E+04  0.9118800E+02  0.7546771E-02  0.1180000E+00
      -11   -1    0    0    0    0  0.00000000000E+00  0.00000000000E+00  0.34996269501E-01  0.35000000000E-01  0.51099999109E-03 0.  1.
       11   -1    0    0    0    0 -0.00000000000E+00 -0.00000000000E+00 -0.34996269501E-01  0.35000000000E-01  0.51099999109E-03 0. -1.
       22    1    1    2    0    0  0.66316493383E-02  0.93872868700E-02 -0.31057400891E-01  0.33115888601E-01  0.00000000000E+00 0. -1.
       22    1    1    2    0    0  0.12133907872E-03  0.21546974126E-04 -0.19242351056E-02  0.19281774259E-02  0.00000000000E+00 0.  1.
       22    1    1    2    0    0 -0.67529884170E-02 -0.94088338441E-02  0.32981635997E-01  0.34955933973E-01  0.00000000000E+00 0.  1.
</event>
<event>
 5   0  0.4143600E+04  0.9118800E+02  0.7546771E-02  0.1180000E+00
      -11   -1    0    0    0    0  0.00000000000E+00  0.00000000000E+00  0.34996269501E-01  0.35000000000E-01  0.51099999109E-03 0.  1.
       11   -1    0    0    0    0 -0.00000000000E+00 -0.00000000000E+00 -0.34996269501E-01  0.35000000000E-01  0.51099999109E-03 0. -1.
       22    1    1    2    0    0 -0.19905006665E-01 -0.13063915271E-01  0.25524124038E-01  0.34904957821E-01  0.00000000000E+00 0.  1.
       22    1    1    2    0    0  0.15062877154E-04  0.77018978701E-04 -0.81780053705E-03  0.82155738189E-03  0.00000000000E+00 0.  1.
       22    1    1    2    0    0  0.19889943788E-01  0.12986896292E-01 -0.24706323501E-01  0.34273484797E-01  0.00000000000E+00 0. -1.
</event>
<event>
 5   0  0.4143600E+04  0.9118800E+02  0.7546771E-02  0.1180000E+00
      -11   -1    0    0    0    0  0.00000000000E+00  0.00000000000E+00  0.34996269501E-01  0.35000000000E-01  0.51099999109E-03 0.  1.
       11   -1    0    0    0    0 -0.00000000000E+00 -0.00000000000E+00 -0.34996269501E-01  0.35000000000E-01  0.51099999109E-03 0. -1.
       22    1    1    2    0    0 -0.17302644161E-02  0.78898754180E-02 -0.35800312672E-02  0.88351894680E-02  0.00000000000E+00 0. -1.
       22    1    1    2    0    0 -0.18205282117E-01 -0.36860956344E-02 -0.21786118028E-01  0.28629609440E-01  0.00000000000E+00 0. -1.
       22    1    1    2    0    0  0.19935546533E-01 -0.42037797836E-02  0.25366149295E-01  0.32535201092E-01  0.00000000000E+00 0.  1.
</event>
<event>
 5   0  0.4143600E+04  0.9118800E+02  0.7546771E-02  0.1180000E+00
      -11   -1    0    0    0    0  0.00000000000E+00  0.00000000000E+00  0.34996269501E-01  0.35000000000E-01  0.51099999109E-03 0.  1.
       11   -1    0    0    0    0 -0.00000000000E+00 -0.00000000000E+00 -0.34996269501E-01  0.35000000000E-01  0.51099999109E-03 0. -1.
       22    1    1    2    0    0  0.18501036159E-01 -0.60057143730E-02 -0.29006273085E-01  0.34924501748E-01  0.00000000000E+00 0. -1.
       22    1    1    2    0    0 -0.18494624583E-01  0.62126578183E-02  0.28768064776E-01  0.34759887897E-01  0.00000000000E+00 0.  1.
       22    1    1    2    0    0 -0.64115761616E-05 -0.20694344536E-03  0.23820830828E-03  0.31561035474E-03  0.00000000000E+00 0. -1.
</event>
<event>
 5   0  0.4143600E+04  0.9118800E+02  0.7546771E-02  0.1180000E+00
      -11   -1    0    0    0    0  0.00000000000E+00  0.00000000000E+00  0.34996269501E-01  0.35000000000E-01  0.51099999109E-03 0. -1.
       11   -1    0    0    0    0 -0.00000000000E+00 -0.00000000000E+00 -0.34996269501E-01  0.35000000000E-01  0.51099999109E-03 0.  1.
       22    1    1    2    0    0  0.15966740284E-01  0.57355032486E-02  0.29707963383E-01  0.34211049110E-01  0.00000000000E+00 0. -1.
       22    1    1    2    0    0 -0.16162964360E-01 -0.56101963396E-02 -0.21041558905E-01  0.27119419629E-01  0.00000000000E+00 0.  1.
       22    1    1    2    0    0  0.19622407608E-03 -0.12530690905E-03 -0.86664044782E-02  0.86695312612E-02  0.00000000000E+00 0.  1.
</event>
<event>
 5   0  0.4143600E+04  0.9118800E+02  0.7546771E-02  0.1180000E+00
      -11   -1    0    0    0    0  0.00000000000E+00  0.00000000000E+00  0.34996269501E-01  0.35000000000E-01  0.51099999109E-03 0. -1.
       11   -1    0    0    0    0 -0.00000000000E+00 -0.00000000000E+00 -0.34996269501E-01  0.35000000000E-01  0.51099999109E-03 0.  1.
       22    1    1    2    0    0  0.92297673548E-03 -0.17553520859E-02  0.34925149875E-01  0.34981412790E-01  0.00000000000E+00 0. -1.
       22    1    1    2    0    0 -0.23680463225E-03  0.88675447210E-04 -0.67121614756E-03  0.71726625847E-03  0.00000000000E+00 0. -1.
       22    1    1    2    0    0 -0.68617210323E-03  0.16666766387E-02 -0.34253933728E-01  0.34301320951E-01  0.00000000000E+00 0.  1.
</event>
<event>
 5   0  0.4143600E+04  0.9118800E+02  0.7546771E-02  0.1180000E+00
      -11   -1    0    0    0    0  0.00000000000E+00  0.00000000000E+00  0.34996269501E-01  0.35000000000E-01  0.51099999109E-03 0. -1.
       11   -1    0    0    0    0 -0.00000000000E+00 -0.00000000000E+00 -0.34996269501E-01  0.35000000000E-01  0.51099999109E-03 0.  1.
       22    1    1    2    0    0  0.33663634730E-04 -0.18713836256E-03  0.68243668203E-03  0.70843054143E-03  0.00000000000E+00 0. -1.
       22    1    1    2    0    0 -0.30898560822E-02  0.13164021788E-01 -0.32279411225E-01  0.34997129443E-01  0.00000000000E+00 0.  1.
       22    1    1    2    0    0  0.30561924475E-02 -0.12976883425E-01  0.31596974543E-01  0.34294440015E-01  0.00000000000E+00 0. -1.
</event>
<event>
 5   0  0.4143600E+04  0.9118800E+02  0.7546771E-02  0.1180000E+00
      -11   -1    0    0    0    0  0.00000000000E+00  0.00000000000E+00  0.34996269501E-01  0.35000000000E-01  0.51099999109E-03 0.  1.
       11   -1    0    0    0    0 -0.00000000000E+00 -0.00000000000E+00 -0.34996269501E-01  0.35000000000E-01  0.51099999109E-03 0. -1.
       22    1    1    2    0    0 -0.39560235064E-03 -0.16382362469E-03 -0.55046957056E-03  0.69739239166E-03  0.00000000000E+00 0. -1.
       22    1    1    2    0    0 -0.10568467645E-02 -0.50841127028E-02  0.34515461422E-01  0.34903899557E-01  0.00000000000E+00 0.  1.
       22    1    1    2    0    0  0.14524491152E-02  0.52479363275E-02 -0.33964991852E-01  0.34398708052E-01  0.00000000000E+00 0. -1.
</event>
<event>
 5   0  0.4143600E+04  0.9118800E+02  0.7546771E-02  0.1180000E+00
      -11   -1    0    0    0    0  0.00000000000E+00  0.00000000000E+00  0.34996269501E-01  0.35000000000E-01  0.51099999109E-03 0. -1.
       11   -1    0    0    0    0 -0.00000000000E+00 -0.00000000000E+00 -0.34996269501E-01  0.35000000000E-01  0.51099999109E-03 0.  1.
       22    1    1    2    0    0 -0.10770872034E-01  0.23390368820E-02 -0.41055223974E-02  0.11761721475E-01  0.00000000000E+00 0. -1.
       22    1    1    2    0    0 -0.36267206026E-02 -0.34260108437E-02  0.29018193246E-01  0.29443950005E-01  0.00000000000E+00 0. -1.
       22    1    1    2    0    0  0.14397592636E-01  0.10869739617E-02 -0.24912670848E-01  0.28794328520E-01  0.00000000000E+00 0.  1.
</event>
<event>
 5   0  0.4143600E+04  0.9118800E+02  0.7546771E-02  0.1180000E+00
      -11   -1    0    0    0    0  0.00000000000E+00  0.00000000000E+00  0.34996269501E-01  0.35000000000E-01  0.51099999109E-03 0. -1.
       11   -1    0    0    0    0 -0.00000000000E+00 -0.00000000000E+00 -0.34996269501E-01  0.35000000000E-01  0.51099999109E-03 0.  1.
       22    1    1    2    0    0 -0.61338340941E-02  0.39863410074E-02 -0.16408680226E-01  0.17965512018E-01  0.00000000000E+00 0.  1.
       22    1    1    2    0    0  0.57229229086E-02 -0.43675567346E-02  0.33838412831E-01  0.34595745134E-01  0.00000000000E+00 0. -1.
       22    1    1    2    0    0  0.41091118542E-03  0.38121572720E-03 -0.17429732605E-01  0.17438742848E-01  0.00000000000E+00 0. -1.
</event>
<event>
 5   0  0.4143600E+04  0.9118800E+02  0.7546771E-02  0.1180000E+00
      -11   -1    0    0    0    0  0.00000000000E+00  0.00000000000E+00  0.34996269501E-01  0.35000000000E-01  0.51099999109E-03 0. -1.
       11   -1    0    0    0    0 -0.00000000000E+00 -0.00000000000E+00 -0.34996269501E-01  0.35000000000E-01  0.51099999109E-03 0.  1.
       22    1    1    2    0    0 -0.62500786842E-02  0.69796895850E-02  0.32553856968E-01  0.33875258726E-01  0.00000000000E+00 0. -1.
       22    1    1    2    0    0 -0.18167148159E-02  0.14438656376E-02 -0.10804344653E-02  0.25597928306E-02  0.00000000000E+00 0.  1.
       22    1    1    2    0    0  0.80667935001E-02 -0.84235552225E-02 -0.31473422503E-01  0.33564948443E-01  0.00000000000E+00 0.  1.
</event>
<event>
 5   0  0.4143600E+04  0.9118800E+02  0.7546771E-02  0.1180000E+00
      -11   -1    0    0    0    0  0.00000000000E+00  0.00000000000E+00  0.34996269501E-01  0.35000000000E-01  0.51099999109E-03 0.  1.
       11   -1    0    0    0    0 -0.00000000000E+00 -0.00000000000E+00 -0.34996269501E-01  0.35000000000E-01  0.51099999109E-03 0. -1.
       22    1    1    2    0    0  0.53563129287E-02  0.92100568834E-02  0.33322714870E-01  0.34984547478E-01  0.00000000000E+00 0.  1.
       22    1    1    2    0    0 -0.50890404285E-02 -0.91622667871E-02 -0.32605626594E-01  0.34248683927E-01  0.00000000000E+00 0. -1.
       22    1    1    2    0    0 -0.26727250014E-03 -0.47790096328E-04 -0.71708827594E-03  0.76676859490E-03  0.00000000000E+00 0. -1.
</event>
<event>
 5   0  0.4143600E+04  0.9118800E+02  0.7546771E-02  0.1180000E+00
      -11   -1    0    0    0    0  0.00000000000E+00  0.00000000000E+00  0.34996269501E-01  0.35000000000E-01  0.51099999109E-03 0. -1.
       11   -1    0    0    0    0 -0.00000000000E+00 -0.00000000000E+00 -0.34996269501E-01  0.35000000000E-01  0.51099999109E-03 0.  1.
       22    1    1    2    0    0  0.15024870589E-01  0.12293403029E-01 -0.28572919203E-01  0.34543974960E-01  0.00000000000E+00 0.  1.
       22    1    1    2    0    0  0.65135249000E-03 -0.20857397954E-02  0.20231514648E-02  0.29778704488E-02  0.00000000000E+00 0. -1.
       22    1    1    2    0    0 -0.15676223079E-01 -0.10207663233E-01  0.26549767738E-01  0.32478154591E-01  0.00000000000E+00 0. -1.
</event>
<event>
 5   0  0.4143600E+04  0.9118800E+02  0.7546771E-02  0.1180000E+00
      -11   -1    0    0    0    0  0.00000000000E+00  0.00000000000E+00  0.34996269501E-01  0.35000000000E-01  0.51099999109E-03 0.  1.
       11   -1    0    0    0    0 -0.00000000000E+00 -0.00000000000E+00 -0.34996269501E-01  0.35000000000E-01  0.51099999109E-03 0. -1.
       22    1    1    2    0    0  0.18105129815E-05  0.30218341990E-04  0.14216846639E-02  0.14220069303E-02  0.00000000000E+00 0. -1.
       22    1    1    2    0    0 -0.19209996295E-01 -0.15074154562E-01  0.23366279441E-01  0.33796998511E-01  0.00000000000E+00 0.  1.
       22    1    1    2    0    0  0.19208185782E-01  0.15043936220E-01 -0.24787964105E-01  0.34780994559E-01  0.00000000000E+00 0. -1.
</event>
<event>
 5   0  0.4143600E+04  0.9118800E+02  0.7546771E-02  0.1180000E+00
      -11   -1    0    0    0    0  0.00000000000E+00  0.00000000000E+00  0.34996269501E-01  0.35000000000E-01  0.51099999109E-03 0.  1.
       11   -1    0    0    0    0 -0.00000000000E+00 -0.00000000000E+00 -0.34996269501E-01  0.35000000000E-01  0.51099999109E-03 0. -1.
       22    1    1    2    0    0  0.12859229804E-02 -0.90128974737E-04 -0.22347022338E-01  0.22384171383E-01  0.00000000000E+00 0. -1.
       22    1    1    2    0    0 -0.67784591165E-02  0.31658317444E-02  0.33761549345E-01  0.34580517821E-01  0.00000000000E+00 0.  1.
       22    1    1    2    0    0  0.54925361361E-02 -0.30757027696E-02 -0.11414527007E-01  0.13035310795E-01  0.00000000000E+00 0. -1.
</event>
<event>
 5   0  0.4143600E+04  0.9118800E+02  0.7546771E-02  0.1180000E+00
      -11   -1    0    0    0    0  0.00000000000E+00  0.00000000000E+00  0.34996269501E-01  0.35000000000E-01  0.51099999109E-03 0. -1.
       11   -1    0    0    0    0 -0.00000000000E+00 -0.00000000000E+00 -0.34996269501E-01  0.35000000000E-01  0.51099999109E-03 0.  1.
       22    1    1    2    0    0  0.59496374240E-03  0.11915463744E-03 -0.75615920916E-03  0.96951350273E-03  0.00000000000E+00 0. -1.
       22    1    1    2    0    0 -0.59496374240E-03 -0.11915463744E-03 -0.34136006360E-01  0.34141398769E-01  0.00000000000E+00 0.  1.
       22    1    1    2    0    0 -0.00000000000E+00  0.00000000000E+00  0.34892165569E-01  0.34889087728E-01  0.00000000000E+00 0. -1.
</event>
<event>
 5   0  0.4143600E+04  0.9118800E+02  0.7546771E-02  0.1180000E+00
      -11   -1    0    0    0    0  0.00000000000E+00  0.00000000000E+00  0.34996269501E-01  0.35000000000E-01  0.51099999109E-03 0. -1.
       11   -1    0    0    0    0 -0.00000000000E+00 -0.00000000000E+00 -0.34996269501E-01  0.35000000000E-01  0.51099999109E-03 0.  1.
       22    1    1    2    0    0 -0.18455033216E-02  0.19156332757E-02 -0.27338306170E-02  0.38143627514E-02  0.00000000000E+00 0.  1.
       22    1    1    2    0    0 -0.10557954603E-02  0.35840016538E-02 -0.31333511775E-01  0.31555486561E-01  0.00000000000E+00 0.  1.
       22    1    1    2    0    0  0.29012987819E-02 -0.54996349295E-02  0.34067342392E-01  0.34630150688E-01  0.00000000000E+00 0. -1.
</event>
<event>
 5   0  0.4143600E+04  0.9118800E+02  0.7546771E-02  0.1180000E+00
      -11   -1    0    0    0    0  0.00000000000E+00  0.00000000000E+00  0.34996269501E-01  0.35000000000E-01  0.51099999109E-03 0.  1.
       11   -1    0    0    0    0 -0.00000000000E+00 -0.00000000000E+00 -0.34996269501E-01  0.35000000000E-01  0.51099999109E-03 0. -1.
       22    1    1    2    0    0 -0.11565494532E-01  0.88824526947E-02  0.31409652297E-01  0.34629826552E-01  0.00000000000E+00 0.  1.
       22    1    1    2    0    0  0.10338462802E-02  0.36500190615E-03 -0.14260153606E-03  0.11056218706E-02  0.00000000000E+00 0. -1.
       22    1    1    2    0    0  0.10531648252E-01 -0.92474546009E-02 -0.31267050761E-01  0.34264551577E-01  0.00000000000E+00 0. -1.
</event>
<event>
 5   0  0.4143600E+04  0.9118800E+02  0.7546771E-02  0.1180000E+00
      -11   -1    0    0    0    0  0.00000000000E+00  0.00000000000E+00  0.34996269501E-01  0.35000000000E-01  0.51099999109E-03 0. -1.
       11   -1    0    0    0    0 -0.00000000000E+00 -0.00000000000E+00 -0.34996269501E-01  0.35000000000E-01  0.51099999109E-03 0.  1.
       22    1    1    2    0    0  0.84079043001E-03 -0.90350737187E-03 -0.73353383320E-03  0.14357318700E-02  0.00000000000E+00 0. -1.
       22    1    1    2    0    0 -0.11649004742E-01 -0.18915941602E-01  0.26320297245E-01  0.34442273520E-01  0.00000000000E+00 0. -1.
       22    1    1    2    0    0  0.10808214312E-01  0.19819448973E-01 -0.25586763412E-01  0.34121994610E-01  0.00000000000E+00 0.  1.
</event>
<event>
 5   0  0.4143600E+04  0.9118800E+02  0.7546771E-02  0.1180000E+00
      -11   -1    0    0    0    0  0.00000000000E+00  0.00000000000E+00  0.34996269501E-01  0.35000000000E-01  0.51099999109E-03 0.  1.
       11   -1    0    0    0    0 -0.00000000000E+00 -0.00000000000E+00 -0.34996269501E-01  0.35000000000E-01  0.51099999109E-03 0. -1.
       22    1    1    2    0    0 -0.00000000000E+00  0.00000000000E+00  0.34796544762E-01  0.34795152796E-01  0.00000000000E+00 0.  1.
       22    1    1    2    0    0 -0.59873223097E-03  0.88776312482E-03 -0.33526678727E-01  0.33543774238E-01  0.00000000000E+00 0. -1.
       22    1    1    2    0    0  0.59873223097E-03 -0.88776312482E-03 -0.12698660353E-02  0.16610729658E-02  0.00000000000E+00 0.  1.
</event>
<event>
 5   0  0.4143600E+04  0.9118800E+02  0.7546771E-02  0.1180000E+00
      -11   -1    0    0    0    0  0.00000000000E+00  0.00000000000E+00  0.34996269501E-01  0.35000000000E-01  0.51099999109E-03 0. -1.
       11   -1    0    0    0    0 -0.00000000000E+00 -0.00000000000E+00 -0.34996269501E-01  0.35000000000E-01  0.51099999109E-03 0.  1.
       22    1    1    2    0    0  0.17527071008E-01  0.27623508980E-01  0.10515313177E-01  0.34363182007E-01  0.00000000000E+00 0. -1.
       22    1    1    2    0    0  0.28213581615E-03 -0.88772427784E-03 -0.22959178588E-02  0.24776791210E-02  0.00000000000E+00 0.  1.
       22    1    1    2    0    0 -0.17809206824E-01 -0.26735784702E-01 -0.82193953183E-02  0.33159138872E-01  0.00000000000E+00 0.  1.
</event>
<event>
 5   0  0.4143600E+04  0.9118800E+02  0.7546771E-02  0.1180000E+00
      -11   -1    0    0    0    0  0.00000000000E+00  0.00000000000E+00  0.34996269501E-01  0.35000000000E-01  0.51099999109E-03 0. -1.
       11   -1    0    0    0    0 -0.00000000000E+00 -0.00000000000E+00 -0.34996269501E-01  0.35000000000E-01  0.51099999109E-03 0.  1.
       22    1    1    2    0    0  0.18856558120E-01 -0.74394145596E-02  0.26343473379E-01  0.33239934759E-01  0.00000000000E+00 0. -1.
       22    1    1    2    0    0 -0.12096296414E-03 -0.21075079640E-02  0.94238818045E-03  0.23117779608E-02  0.00000000000E+00 0. -1.
       22    1    1    2    0    0 -0.18735595156E-01  0.95469225237E-02 -0.27285861559E-01  0.34448287280E-01  0.00000000000E+00 0.  1.
</event>
<event>
 5   0  0.4143600E+04  0.9118800E+02  0.7546771E-02  0.1180000E+00
      -11   -1    0    0    0    0  0.00000000000E+00  0.00000000000E+00  0.34996269501E-01  0.35000000000E-01  0.51099999109E-03 0.  1.
       11   -1    0    0    0    0 -0.00000000000E+00 -0.00000000000E+00 -0.34996269501E-01  0.35000000000E-01  0.51099999109E-03 0. -1.
       22    1    1    2    0    0  0.31955560552E-02 -0.16924751113E-01 -0.30401479654E-01  0.34941504602E-01  0.00000000000E+00 0. -1.
       22    1    1    2    0    0 -0.30347331142E-02  0.17008346682E-01  0.30132464540E-01  0.34734116962E-01  0.00000000000E+00 0.  1.
       22    1    1    2    0    0 -0.16082294102E-03 -0.83595569469E-04  0.26901511428E-03  0.32437843533E-03  0.00000000000E+00 0. -1.
</event>
<event>
 5   0  0.4143600E+04  0.9118800E+02  0.7546771E-02  0.1180000E+00
      -11   -1    0    0    0    0  0.00000000000E+00  0.00000000000E+00  0.34996269501E-01  0.35000000000E-01  0.51099999109E-03 0. -1.
       11   -1    0    0    0    0 -0.00000000000E+00 -0.00000000000E+00 -0.34996269501E-01  0.35000000000E-01  0.51099999109E-03 0.  1.
       22    1    1    2    0    0  0.13196077798E-01 -0.11813859736E-01 -0.30129322286E-01  0.34949675428E-01  0.00000000000E+00 0.  1.
       22    1    1    2    0    0  0.36961226753E-04 -0.74668192245E-04  0.37181055182E-03  0.38103091431E-03  0.00000000000E+00 0.  1.
       22    1    1    2    0    0 -0.13233039025E-01  0.11888527929E-01  0.29757511734E-01  0.34669293658E-01  0.00000000000E+00 0. -1.
</event>
<event>
 5   0  0.4143600E+04  0.9118800E+02  0.7546771E-02  0.1180000E+00
      -11   -1    0    0    0    0  0.00000000000E+00  0.00000000000E+00  0.34996269501E-01  0.35000000000E-01  0.51099999109E-03 0.  1.
       11   -1    0    0    0    0 -0.00000000000E+00 -0.00000000000E+00 -0.34996269501E-01  0.35000000000E-01  0.51099999109E-03 0. -1.
       22    1    1    2    0    0 -0.32982432988E-02 -0.50584701538E-03 -0.32244622918E-01  0.32416816581E-01  0.00000000000E+00 0. -1.
       22    1    1    2    0    0  0.14915777611E-02  0.41941828081E-03  0.34588152068E-01  0.34622838986E-01  0.00000000000E+00 0.  1.
       22    1    1    2    0    0  0.18066655377E-02  0.86428734575E-04 -0.23435291499E-02  0.29603444340E-02  0.00000000000E+00 0.  1.
</event>
<event>
 5   0  0.4143600E+04  0.9118800E+02  0.7546771E-02  0.1180000E+00
      -11   -1    0    0    0    0  0.00000000000E+00  0.00000000000E+00  0.34996269501E-01  0.35000000000E-01  0.51099999109E-03 0.  1.
       11   -1    0    0    0    0 -0.00000000000E+00 -0.00000000000E+00 -0.34996269501E-01  0.35000000000E-01  0.51099999109E-03 0. -1.
       22    1    1    2    0    0  0.36961417690E-03  0.98589888169E-03  0.15233689203E-02  0.18518272360E-02  0.00000000000E+00 0.  1.
       22    1    1    2    0    0 -0.13004553055E-01 -0.70546317111E-02 -0.31640723209E-01  0.34928807508E-01  0.00000000000E+00 0. -1.
       22    1    1    2    0    0  0.12634938878E-01  0.60687328294E-02  0.30117354289E-01  0.33219365256E-01  0.00000000000E+00 0.  1.
</event>
<event>
 5   0  0.4143600E+04  0.9118800E+02  0.7546771E-02  0.1180000E+00
      -11   -1    0    0    0    0  0.00000000000E+00  0.00000000000E+00  0.34996269501E-01  0.35000000000E-01  0.51099999109E-03 0. -1.
       11   -1    0    0    0    0 -0.00000000000E+00 -0.00000000000E+00 -0.34996269501E-01  0.35000000000E-01  0.51099999109E-03 0.  1.
       22    1    1    2    0    0 -0.44619607813E-02 -0.34517159926E-02 -0.16140164497E-01  0.17097612328E-01  0.00000000000E+00 0.  1.
       22    1    1    2    0    0 -0.25890050654E-03  0.80751241701E-03 -0.18159124975E-01  0.18178914313E-01  0.00000000000E+00 0.  1.
       22    1    1    2    0    0  0.47208612878E-02  0.26442035755E-02  0.34299289472E-01  0.34723473359E-01  0.00000000000E+00 0. -1.
</event>
<event>
 5   0  0.4143600E+04  0.9118800E+02  0.7546771E-02  0.1180000E+00
      -11   -1    0    0    0    0  0.00000000000E+00  0.00000000000E+00  0.34996269501E-01  0.35000000000E-01  0.51099999109E-03 0.  1.
       11   -1    0    0    0    0 -0.00000000000E+00 -0.00000000000E+00 -0.34996269501E-01  0.35000000000E-01  0.51099999109E-03 0. -1.
       22    1    1    2    0    0 -0.20308972021E-01 -0.99285443301E-02 -0.20067217662E-01  0.30227860688E-01  0.00000000000E+00 0. -1.
       22    1    1    2    0    0  0.21647787719E-01  0.11088013648E-01  0.24789406801E-01  0.34728740970E-01  0.00000000000E+00 0.  1.
       22    1    1    2    0    0 -0.13388156980E-02 -0.11594693179E-02 -0.47221891390E-02  0.50433983421E-02  0.00000000000E+00 0. -1.
</event>
<event>
 5   0  0.4143600E+04  0.9118800E+02  0.7546771E-02  0.1180000E+00
      -11   -1    0    0    0    0  0.00000000000E+00  0.00000000000E+00  0.34996269501E-01  0.35000000000E-01  0.51099999109E-03 0.  1.
       11   -1    0    0    0    0 -0.00000000000E+00 -0.00000000000E+00 -0.34996269501E-01  0.35000000000E-01  0.51099999109E-03 0. -1.
       22    1    1    2    0    0 -0.88768824179E-02 -0.84799795519E-02 -0.31602195701E-01  0.33902918279E-01  0.00000000000E+00 0. -1.
       22    1    1    2    0    0  0.57233513484E-03  0.16107104692E-02 -0.84500838137E-03  0.19068284891E-02  0.00000000000E+00 0. -1.
       22    1    1    2    0    0  0.83045472830E-02  0.68692690827E-02  0.32447204083E-01  0.34190253232E-01  0.00000000000E+00 0.  1.
</event>
<event>
 5   0  0.4143600E+04  0.9118800E+02  0.7546771E-02  0.1180000E+00
      -11   -1    0    0    0    0  0.00000000000E+00  0.00000000000E+00  0.34996269501E-01  0.35000000000E-01  0.51099999109E-03 0. -1.
       11   -1    0    0    0    0 -0.00000000000E+00 -0.00000000000E+00 -0.34996269501E-01  0.35000000000E-01  0.51099999109E-03 0.  1.
       22    1    1    2    0    0 -0.48456562317E-03  0.23475995359E-02 -0.31899643517E-01  0.31989580865E-01  0.00000000000E+00 0.  1.
       22    1    1    2    0    0  0.19758902703E-02 -0.12275424308E-03 -0.26773858748E-02  0.33298057131E-02  0.00000000000E+00 0. -1.
       22    1    1    2    0    0 -0.14913246471E-02 -0.22248452928E-02  0.34577029391E-01  0.34680613422E-01  0.00000000000E+00 0. -1.
</event>
<event>
 5   0  0.4143600E+04  0.9118800E+02  0.7546771E-02  0.1180000E+00
      -11   -1    0    0    0    0  0.00000000000E+00  0.00000000000E+00  0.34996269501E-01  0.35000000000E-01  0.51099999109E-03 0. -1.
       11   -1    0    0    0    0 -0.00000000000E+00 -0.00000000000E+00 -0.34996269501E-01  0.35000000000E-01  0.51099999109E-03 0. -1.
       22    1    1    2    0    0  0.52626100466E-03 -0.90450034258E-03 -0.31958537537E-01  0.31975665639E-01  0.00000000000E+00 0. -1.
       22    1    1    2    0    0 -0.52626100466E-03  0.90450034258E-03 -0.29440562525E-02  0.31245061582E-02  0.00000000000E+00 0.  1.
       22    1    1    2    0    0 -0.00000000000E+00 -0.00000000000E+00  0.34902593790E-01  0.34899828203E-01  0.00000000000E+00 0. -1.
</event>
<event>
 5   0  0.4143600E+04  0.9118800E+02  0.7546771E-02  0.1180000E+00
      -11   -1    0    0    0    0  0.00000000000E+00  0.00000000000E+00  0.34996269501E-01  0.35000000000E-01  0.51099999109E-03 0.  1.
       11   -1    0    0    0    0 -0.00000000000E+00 -0.00000000000E+00 -0.34996269501E-01  0.35000000000E-01  0.51099999109E-03 0. -1.
       22    1    1    2    0    0 -0.14124617740E-01 -0.83336761134E-02  0.30907887696E-01  0.34989319881E-01  0.00000000000E+00 0.  1.
       22    1    1    2    0    0  0.14079506400E-01  0.83339989175E-02 -0.30598981413E-01  0.34698497114E-01  0.00000000000E+00 0. -1.
       22    1    1    2    0    0  0.45111340501E-04 -0.32280408220E-06 -0.30890628320E-03  0.31218300570E-03  0.00000000000E+00 0.  1.
</event>
<event>
 5   0  0.4143600E+04  0.9118800E+02  0.7546771E-02  0.1180000E+00
      -11   -1    0    0    0    0  0.00000000000E+00  0.00000000000E+00  0.34996269501E-01  0.35000000000E-01  0.51099999109E-03 0.  1.
       11   -1    0    0    0    0 -0.00000000000E+00 -0.00000000000E+00 -0.34996269501E-01  0.35000000000E-01  0.51099999109E-03 0. -1.
       22    1    1    2    0    0  0.10028253167E-03 -0.32726363281E-03 -0.61167715302E-03  0.70093295760E-03  0.00000000000E+00 0.  1.
       22    1    1    2    0    0 -0.94159589849E-02 -0.65272219795E-02  0.32986940260E-01  0.34919953295E-01  0.00000000000E+00 0.  1.
       22    1    1    2    0    0  0.93156764533E-02  0.68544856123E-02 -0.32375263107E-01  0.34379113747E-01  0.00000000000E+00 0. -1.
</event>
<event>
 5   0  0.4143600E+04  0.9118800E+02  0.7546771E-02  0.1180000E+00
      -11   -1    0    0    0    0  0.00000000000E+00  0.00000000000E+00  0.34996269501E-01  0.35000000000E-01  0.51099999109E-03 0.  1.
       11   -1    0    0    0    0 -0.00000000000E+00 -0.00000000000E+00 -0.34996269501E-01  0.35000000000E-01  0.51099999109E-03 0. -1.
       22    1    1    2    0    0 -0.40346478716E-03  0.11727565097E-03 -0.26963859597E-03  0.49924181037E-03  0.00000000000E+00 0.  1.
       22    1    1    2    0    0 -0.81561087391E-02 -0.18928506471E-01 -0.27822590207E-01  0.34625236358E-01  0.00000000000E+00 0. -1.
       22    1    1    2    0    0  0.85595735263E-02  0.18811230820E-01  0.28092228803E-01  0.34875521832E-01  0.00000000000E+00 0.  1.
</event>
<event>
 5   0  0.4143600E+04  0.9118800E+02  0.7546771E-02  0.1180000E+00
      -11   -1    0    0    0    0  0.00000000000E+00  0.00000000000E+00  0.34996269501E-01  0.35000000000E-01  0.51099999109E-03 0. -1.
       11   -1    0    0    0    0 -0.00000000000E+00 -0.00000000000E+00 -0.34996269501E-01  0.35000000000E-01  0.51099999109E-03 0.  1.
       22    1    1    2    0    0  0.14478151433E-01 -0.14862089300E-01 -0.27663714426E-01  0.34580047182E-01  0.00000000000E+00 0.  1.
       22    1    1    2    0    0  0.63644237599E-04 -0.22598314003E-03 -0.35885909733E-03  0.42883425737E-03  0.00000000000E+00 0.  1.
       22    1    1    2    0    0 -0.14541795670E-01  0.15088072440E-01  0.28022573523E-01  0.34991118561E-01  0.00000000000E+00 0. -1.
</event>
<event>
 5   0  0.4143600E+04  0.9118800E+02  0.7546771E-02  0.1180000E+00
      -11   -1    0    0    0    0  0.00000000000E+00  0.00000000000E+00  0.34996269501E-01  0.35000000000E-01  0.51099999109E-03 0.  1.
       11   -1    0    0    0    0 -0.00000000000E+00 -0.00000000000E+00 -0.34996269501E-01  0.35000000000E-01  0.51099999109E-03 0. -1.
       22    1    1    2    0    0  0.12103852555E-01  0.68500446715E-04  0.30489028765E-01  0.32803792677E-01  0.00000000000E+00 0.  1.
       22    1    1    2    0    0 -0.12337899369E-01 -0.45105053798E-03 -0.32693286488E-01  0.34946790823E-01  0.00000000000E+00 0. -1.
       22    1    1    2    0    0  0.23404681442E-03  0.38255009127E-03  0.22042577224E-02  0.22494165000E-02  0.00000000000E+00 0. -1.
</event>
<event>
 5   0  0.4143600E+04  0.9118800E+02  0.7546771E-02  0.1180000E+00
      -11   -1    0    0    0    0  0.00000000000E+00  0.00000000000E+00  0.34996269501E-01  0.35000000000E-01  0.51099999109E-03 0.  1.
       11   -1    0    0    0    0 -0.00000000000E+00 -0.00000000000E+00 -0.34996269501E-01  0.35000000000E-01  0.51099999109E-03 0. -1.
       22    1    1    2    0    0  0.12150768490E-01 -0.22318425140E-01 -0.19404726904E-01  0.31973374889E-01  0.00000000000E+00 0. -1.
       22    1    1    2    0    0 -0.10786346398E-01  0.20293070099E-01  0.23745874860E-01  0.33045733999E-01  0.00000000000E+00 0.  1.
       22    1    1    2    0    0 -0.13644220912E-02  0.20253550416E-02 -0.43411479564E-02  0.49808911118E-02  0.00000000000E+00 0.  1.
</event>
<event>
 5   0  0.4143600E+04  0.9118800E+02  0.7546771E-02  0.1180000E+00
      -11   -1    0    0    0    0  0.00000000000E+00  0.00000000000E+00  0.34996269501E-01  0.35000000000E-01  0.51099999109E-03 0. -1.
       11   -1    0    0    0    0 -0.00000000000E+00 -0.00000000000E+00 -0.34996269501E-01  0.35000000000E-01  0.51099999109E-03 0.  1.
       22    1    1    2    0    0  0.17944191295E-01  0.46543744285E-02 -0.41478207241E-02  0.18996358054E-01  0.00000000000E+00 0. -1.
       22    1    1    2    0    0 -0.17270746409E-01 -0.54388811137E-02 -0.19916545929E-01  0.26917074711E-01  0.00000000000E+00 0.  1.
       22    1    1    2    0    0 -0.67344488629E-03  0.78450668513E-03  0.24064366653E-01  0.24086567235E-01  0.00000000000E+00 0. -1.
</event>
<event>
 5   0  0.4143600E+04  0.9118800E+02  0.7546771E-02  0.1180000E+00
      -11   -1    0    0    0    0  0.00000000000E+00  0.00000000000E+00  0.34996269501E-01  0.35000000000E-01  0.51099999109E-03 0. -1.
       11   -1    0    0    0    0 -0.00000000000E+00 -0.00000000000E+00 -0.34996269501E-01  0.35000000000E-01  0.51099999109E-03 0.  1.
       22    1    1    2    0    0 -0.20918271194E-01  0.10317943496E-01  0.24296745387E-01  0.33680348337E-01  0.00000000000E+00 0. -1.
       22    1    1    2    0    0  0.22948840868E-03 -0.50069328652E-04  0.16013886022E-02  0.16185231919E-02  0.00000000000E+00 0.  1.
       22    1    1    2    0    0  0.20688782785E-01 -0.10267874167E-01 -0.25898133989E-01  0.34701128471E-01  0.00000000000E+00 0.  1.
</event>
<event>
 5   0  0.4143600E+04  0.9118800E+02  0.7546771E-02  0.1180000E+00
      -11   -1    0    0    0    0  0.00000000000E+00  0.00000000000E+00  0.34996269501E-01  0.35000000000E-01  0.51099999109E-03 0.  1.
       11   -1    0    0    0    0 -0.00000000000E+00 -0.00000000000E+00 -0.34996269501E-01  0.35000000000E-01  0.51099999109E-03 0. -1.
       22    1    1    2    0    0 -0.13633566585E-01  0.19824142066E-01 -0.23945054152E-01  0.33944607301E-01  0.00000000000E+00 0. -1.
       22    1    1    2    0    0 -0.23132424425E-03 -0.27898409090E-03 -0.12397161346E-02  0.12916033150E-02  0.00000000000E+00 0. -1.
       22    1    1    2    0    0  0.13864890829E-01 -0.19545157975E-01  0.25184770287E-01  0.34763789384E-01  0.00000000000E+00 0.  1.
</event>
<event>
 5   0  0.4143600E+04  0.9118800E+02  0.7546771E-02  0.1180000E+00
      -11   -1    0    0    0    0  0.00000000000E+00  0.00000000000E+00  0.34996269501E-01  0.35000000000E-01  0.51099999109E-03 0. -1.
       11   -1    0    0    0    0 -0.00000000000E+00 -0.00000000000E+00 -0.34996269501E-01  0.35000000000E-01  0.51099999109E-03 0.  1.
       22    1    1    2    0    0  0.85052065842E-03  0.30700492397E-02 -0.55638898406E-02  0.64113538261E-02  0.00000000000E+00 0. -1.
       22    1    1    2    0    0 -0.48644198926E-02  0.62183386762E-03  0.34143237145E-01  0.34493621164E-01  0.00000000000E+00 0. -1.
       22    1    1    2    0    0  0.40138992342E-02 -0.36918831073E-02 -0.28579347305E-01  0.29095025010E-01  0.00000000000E+00 0.  1.
</event>
<event>
 5   0  0.4143600E+04  0.9118800E+02  0.7546771E-02  0.1180000E+00
      -11   -1    0    0    0    0  0.00000000000E+00  0.00000000000E+00  0.34996269501E-01  0.35000000000E-01  0.51099999109E-03 0.  1.
       11   -1    0    0    0    0 -0.00000000000E+00 -0.00000000000E+00 -0.34996269501E-01  0.35000000000E-01  0.51099999109E-03 0. -1.
       22    1    1    2    0    0  0.66462817828E-04 -0.10484752409E-01 -0.33020513876E-01  0.34645184182E-01  0.00000000000E+00 0. -1.
       22    1    1    2    0    0 -0.11220309497E-03 -0.13616335319E-03 -0.31892276665E-03  0.36447458671E-03  0.00000000000E+00 0. -1.
       22    1    1    2    0    0  0.45740277147E-04  0.10620915762E-01  0.33339436643E-01  0.34990341231E-01  0.00000000000E+00 0.  1.
</event>
<event>
 5   0  0.4143600E+04  0.9118800E+02  0.7546771E-02  0.1180000E+00
      -11   -1    0    0    0    0  0.00000000000E+00  0.00000000000E+00  0.34996269501E-01  0.35000000000E-01  0.51099999109E-03 0. -1.
       11   -1    0    0    0    0 -0.00000000000E+00 -0.00000000000E+00 -0.34996269501E-01  0.35000000000E-01  0.51099999109E-03 0.  1.
       22    1    1    2    0    0  0.41373076263E-02  0.97075026332E-02 -0.30580077933E-01  0.32349560865E-01  0.00000000000E+00 0.  1.
       22    1    1    2    0    0  0.12200107432E-02 -0.11848422083E-01  0.80080545707E-02  0.14352786144E-01  0.00000000000E+00 0.  1.
       22    1    1    2    0    0 -0.53573183695E-02  0.21409194503E-02  0.22572023363E-01  0.23297652991E-01  0.00000000000E+00 0. -1.
</event>
<event>
 5   0  0.4143600E+04  0.9118800E+02  0.7546771E-02  0.1180000E+00
      -11   -1    0    0    0    0  0.00000000000E+00  0.00000000000E+00  0.34996269501E-01  0.35000000000E-01  0.51099999109E-03 0.  1.
       11   -1    0    0    0    0 -0.00000000000E+00 -0.00000000000E+00 -0.34996269501E-01  0.35000000000E-01  0.51099999109E-03 0. -1.
       22    1    1    2    0    0  0.32805143905E-02  0.14620460262E-01  0.30415558544E-01  0.33906132697E-01  0.00000000000E+00 0.  1.
       22    1    1    2    0    0 -0.32695145754E-02 -0.14665335033E-01 -0.31557005306E-01  0.34951485821E-01  0.00000000000E+00 0. -1.
       22    1    1    2    0    0 -0.10999815140E-04  0.44874771240E-04  0.11414467622E-02  0.11423814826E-02  0.00000000000E+00 0.  1.
</event>
<event>
 5   0  0.4143600E+04  0.9118800E+02  0.7546771E-02  0.1180000E+00
      -11   -1    0    0    0    0  0.00000000000E+00  0.00000000000E+00  0.34996269501E-01  0.35000000000E-01  0.51099999109E-03 0. -1.
       11   -1    0    0    0    0 -0.00000000000E+00 -0.00000000000E+00 -0.34996269501E-01  0.35000000000E-01  0.51099999109E-03 0.  1.
       22    1    1    2    0    0  0.78597069316E-02  0.15101555570E-01  0.29188329737E-01  0.33790391630E-01  0.00000000000E+00 0. -1.
       22    1    1    2    0    0  0.12516242891E-02  0.11849027724E-02 -0.70372038647E-02  0.72451912448E-02  0.00000000000E+00 0. -1.
       22    1    1    2    0    0 -0.91113312207E-02 -0.16286458343E-01 -0.22151125872E-01  0.28964417125E-01  0.00000000000E+00 0.  1.
</event>
<event>
 5   0  0.4143600E+04  0.9118800E+02  0.7546771E-02  0.1180000E+00
      -11   -1    0    0    0    0  0.00000000000E+00  0.00000000000E+00  0.34996269501E-01  0.35000000000E-01  0.51099999109E-03 0. -1.
       11   -1    0    0    0    0 -0.00000000000E+00 -0.00000000000E+00 -0.34996269501E-01  0.35000000000E-01  0.51099999109E-03 0.  1.
       22    1    1    2    0    0 -0.55541245111E-02  0.82156982463E-03 -0.10968231085E-01  0.12321743756E-01  0.00000000000E+00 0.  1.
       22    1    1    2    0    0 -0.24381818966E-02 -0.38400145259E-02 -0.22593184883E-01  0.23046527844E-01  0.00000000000E+00 0.  1.
       22    1    1    2    0    0  0.79923064077E-02  0.30184447013E-02  0.33561415968E-01  0.34631728399E-01  0.00000000000E+00 0. -1.
</event>
<event>
 5   0  0.4143600E+04  0.9118800E+02  0.7546771E-02  0.1180000E+00
      -11   -1    0    0    0    0  0.00000000000E+00  0.00000000000E+00  0.34996269501E-01  0.35000000000E-01  0.51099999109E-03 0.  1.
       11   -1    0    0    0    0 -0.00000000000E+00 -0.00000000000E+00 -0.34996269501E-01  0.35000000000E-01  0.51099999109E-03 0. -1.
       22    1    1    2    0    0 -0.26724336200E-02  0.19480138900E-03 -0.80570110207E-02  0.84908936881E-02  0.00000000000E+00 0. -1.
       22    1    1    2    0    0  0.60919452255E-02  0.99190840369E-02 -0.24565567471E-01  0.27183949859E-01  0.00000000000E+00 0. -1.
       22    1    1    2    0    0 -0.34195116055E-02 -0.10113885426E-01  0.32622578492E-01  0.34325156453E-01  0.00000000000E+00 0.  1.
</event>
<event>
 5   0  0.4143600E+04  0.9118800E+02  0.7546771E-02  0.1180000E+00
      -11   -1    0    0    0    0  0.00000000000E+00  0.00000000000E+00  0.34996269501E-01  0.35000000000E-01  0.51099999109E-03 0.  1.
       11   -1    0    0    0    0 -0.00000000000E+00 -0.00000000000E+00 -0.34996269501E-01  0.35000000000E-01  0.51099999109E-03 0.  1.
       22    1    1    2    0    0  0.79069695503E-04  0.45319384181E-03 -0.74319272662E-03  0.87405497762E-03  0.00000000000E+00 0. -1.
       22    1    1    2    0    0 -0.54306478548E-03 -0.41603357890E-04  0.34929632800E-01  0.34933878939E-01  0.00000000000E+00 0.  1.
       22    1    1    2    0    0  0.46399508998E-03 -0.41159048392E-03 -0.34186440073E-01  0.34192066083E-01  0.00000000000E+00 0.  1.
</event>
<event>
 5   0  0.4143600E+04  0.9118800E+02  0.7546771E-02  0.1180000E+00
      -11   -1    0    0    0    0  0.00000000000E+00  0.00000000000E+00  0.34996269501E-01  0.35000000000E-01  0.51099999109E-03 0.  1.
       11   -1    0    0    0    0 -0.00000000000E+00 -0.00000000000E+00 -0.34996269501E-01  0.35000000000E-01  0.51099999109E-03 0. -1.
       22    1    1    2    0    0 -0.42591946208E-02 -0.10579438278E-01  0.32523706204E-01  0.34465297305E-01  0.00000000000E+00 0.  1.
       22    1    1    2    0    0  0.50418742012E-02  0.10890985029E-01 -0.32549857272E-01  0.34691890389E-01  0.00000000000E+00 0. -1.
       22    1    1    2    0    0 -0.78267958042E-03 -0.31154675066E-03  0.26151067967E-04  0.84281230521E-03  0.00000000000E+00 0.  1.
</event>
<event>
 5   0  0.4143600E+04  0.9118800E+02  0.7546771E-02  0.1180000E+00
      -11   -1    0    0    0    0  0.00000000000E+00  0.00000000000E+00  0.34996269501E-01  0.35000000000E-01  0.51099999109E-03 0. -1.
       11   -1    0    0    0    0 -0.00000000000E+00 -0.00000000000E+00 -0.34996269501E-01  0.35000000000E-01  0.51099999109E-03 0.  1.
       22    1    1    2    0    0  0.33024245104E-03  0.96603882555E-03 -0.24850028458E-02  0.26865461531E-02  0.00000000000E+00 0.  1.
       22    1    1    2    0    0 -0.11530097351E-01 -0.51014160526E-03  0.32917559339E-01  0.34882217565E-01  0.00000000000E+00 0. -1.
       22    1    1    2    0    0  0.11199854900E-01 -0.45589722029E-03 -0.30432556494E-01  0.32431236282E-01  0.00000000000E+00 0.  1.
</event>
<event>
 5   0  0.4143600E+04  0.9118800E+02  0.7546771E-02  0.1180000E+00
      -11   -1    0    0    0    0  0.00000000000E+00  0.00000000000E+00  0.34996269501E-01  0.35000000000E-01  0.51099999109E-03 0.  1.
       11   -1    0    0    0    0 -0.00000000000E+00 -0.00000000000E+00 -0.34996269501E-01  0.35000000000E-01  0.51099999109E-03 0. -1.
       22    1    1    2    0    0 -0.47898560445E-02  0.10573856300E-01 -0.32205288774E-01  0.34233459991E-01  0.00000000000E+00 0. -1.
       22    1    1    2    0    0  0.42279127291E-02 -0.95001629848E-02  0.13590163142E-01  0.17112009730E-01  0.00000000000E+00 0.  1.
       22    1    1    2    0    0  0.56194331542E-03 -0.10736933150E-02  0.18615125632E-01  0.18654530279E-01  0.00000000000E+00 0.  1.
</event>
<event>
 5   0  0.4143600E+04  0.9118800E+02  0.7546771E-02  0.1180000E+00
      -11   -1    0    0    0    0  0.00000000000E+00  0.00000000000E+00  0.34996269501E-01  0.35000000000E-01  0.51099999109E-03 0.  1.
       11   -1    0    0    0    0 -0.00000000000E+00 -0.00000000000E+00 -0.34996269501E-01  0.35000000000E-01  0.51099999109E-03 0. -1.
       22    1    1    2    0    0  0.54131001492E-02  0.27453712773E-02 -0.68058565765E-02  0.91191227876E-02  0.00000000000E+00 0. -1.
       22    1    1    2    0    0 -0.26378311170E-02 -0.33578336215E-02  0.33633319238E-01  0.33903294274E-01  0.00000000000E+00 0.  1.
       22    1    1    2    0    0 -0.27752690322E-02  0.61246234425E-03 -0.26827462662E-01  0.26977582938E-01  0.00000000000E+00 0.  1.
</event>
<event>
 5   0  0.4143600E+04  0.9118800E+02  0.7546771E-02  0.1180000E+00
      -11   -1    0    0    0    0  0.00000000000E+00  0.00000000000E+00  0.34996269501E-01  0.35000000000E-01  0.51099999109E-03 0. -1.
       11   -1    0    0    0    0 -0.00000000000E+00 -0.00000000000E+00 -0.34996269501E-01  0.35000000000E-01  0.51099999109E-03 0.  1.
       22    1    1    2    0    0 -0.35486583982E-02 -0.21259756194E-02 -0.25342030142E-01  0.25677446144E-01  0.00000000000E+00 0.  1.
       22    1    1    2    0    0  0.43122514515E-02  0.15646339991E-02 -0.89289811866E-02  0.10038440973E-01  0.00000000000E+00 0. -1.
       22    1    1    2    0    0 -0.76359305331E-03  0.56134162024E-03  0.34271011328E-01  0.34284112884E-01  0.00000000000E+00 0. -1.
</event>
<event>
 5   0  0.4143600E+04  0.9118800E+02  0.7546771E-02  0.1180000E+00
      -11   -1    0    0    0    0  0.00000000000E+00  0.00000000000E+00  0.34996269501E-01  0.35000000000E-01  0.51099999109E-03 0. -1.
       11   -1    0    0    0    0 -0.00000000000E+00 -0.00000000000E+00 -0.34996269501E-01  0.35000000000E-01  0.51099999109E-03 0.  1.
       22    1    1    2    0    0  0.90783112049E-03  0.12880602202E-02 -0.11681176272E-01  0.11786990098E-01  0.00000000000E+00 0.  1.
       22    1    1    2    0    0  0.16584106995E-01  0.16615815614E-02 -0.17434216370E-01  0.24119397972E-01  0.00000000000E+00 0.  1.
       22    1    1    2    0    0 -0.17491938115E-01 -0.29496417816E-02  0.29115392643E-01  0.34093611929E-01  0.00000000000E+00 0. -1.
</event>
<event>
 5   0  0.4143600E+04  0.9118800E+02  0.7546771E-02  0.1180000E+00
      -11   -1    0    0    0    0  0.00000000000E+00  0.00000000000E+00  0.34996269501E-01  0.35000000000E-01  0.51099999109E-03 0. -1.
       11   -1    0    0    0    0 -0.00000000000E+00 -0.00000000000E+00 -0.34996269501E-01  0.35000000000E-01  0.51099999109E-03 0.  1.
       22    1    1    2    0    0  0.18762536070E-03 -0.26667402772E-03  0.14939672168E-05  0.32606831336E-03  0.00000000000E+00 0.  1.
       22    1    1    2    0    0 -0.74661072264E-02 -0.89947317777E-02 -0.32801897102E-01  0.34822584775E-01  0.00000000000E+00 0.  1.
       22    1    1    2    0    0  0.72784818657E-02  0.92614058055E-02  0.32800403135E-01  0.34851346912E-01  0.00000000000E+00 0. -1.
</event>
<event>
 5   0  0.4143600E+04  0.9118800E+02  0.7546771E-02  0.1180000E+00
      -11   -1    0    0    0    0  0.00000000000E+00  0.00000000000E+00  0.34996269501E-01  0.35000000000E-01  0.51099999109E-03 0. -1.
       11   -1    0    0    0    0 -0.00000000000E+00 -0.00000000000E+00 -0.34996269501E-01  0.35000000000E-01  0.51099999109E-03 0.  1.
       22    1    1    2    0    0 -0.27978665599E-03 -0.54124653474E-03  0.16838161684E-01  0.16849181502E-01  0.00000000000E+00 0. -1.
       22    1    1    2    0    0  0.10369135886E-02  0.18307764025E-01 -0.27023655152E-01  0.32657730343E-01  0.00000000000E+00 0.  1.
       22    1    1    2    0    0 -0.75712693261E-03 -0.17766517490E-01  0.10185493468E-01  0.20493088155E-01  0.00000000000E+00 0. -1.
</event>
<event>
 5   0  0.4143600E+04  0.9118800E+02  0.7546771E-02  0.1180000E+00
      -11   -1    0    0    0    0  0.00000000000E+00  0.00000000000E+00  0.34996269501E-01  0.35000000000E-01  0.51099999109E-03 0. -1.
       11   -1    0    0    0    0 -0.00000000000E+00 -0.00000000000E+00 -0.34996269501E-01  0.35000000000E-01  0.51099999109E-03 0.  1.
       22    1    1    2    0    0  0.10157990775E-02 -0.39145189188E-03  0.14245019596E-01  0.14286555415E-01  0.00000000000E+00 0. -1.
       22    1    1    2    0    0  0.10195619275E-01  0.15745402309E-01  0.12760610749E-01  0.22687034468E-01  0.00000000000E+00 0. -1.
       22    1    1    2    0    0 -0.11211418352E-01 -0.15353950417E-01 -0.27005630345E-01  0.33026410117E-01  0.00000000000E+00 0.  1.
</event>
<event>
 5   0  0.4143600E+04  0.9118800E+02  0.7546771E-02  0.1180000E+00
      -11   -1    0    0    0    0  0.00000000000E+00  0.00000000000E+00  0.34996269501E-01  0.35000000000E-01  0.51099999109E-03 0. -1.
       11   -1    0    0    0    0 -0.00000000000E+00 -0.00000000000E+00 -0.34996269501E-01  0.35000000000E-01  0.51099999109E-03 0.  1.
       22    1    1    2    0    0 -0.13881200729E-02 -0.50238351354E-03  0.21631920430E-04  0.14763923840E-02  0.00000000000E+00 0. -1.
       22    1    1    2    0    0  0.18220212928E-01 -0.11331153343E-01 -0.27067925300E-01  0.34540465766E-01  0.00000000000E+00 0.  1.
       22    1    1    2    0    0 -0.16832092855E-01  0.11833536857E-01  0.27046293380E-01  0.33983141850E-01  0.00000000000E+00 0. -1.
</event>
<event>
 5   0  0.4143600E+04  0.9118800E+02  0.7546771E-02  0.1180000E+00
      -11   -1    0    0    0    0  0.00000000000E+00  0.00000000000E+00  0.34996269501E-01  0.35000000000E-01  0.51099999109E-03 0. -1.
       11   -1    0    0    0    0 -0.00000000000E+00 -0.00000000000E+00 -0.34996269501E-01  0.35000000000E-01  0.51099999109E-03 0.  1.
       22    1    1    2    0    0  0.28233922666E-02  0.42173105929E-02 -0.30540555932E-01  0.30959373527E-01  0.00000000000E+00 0.  1.
       22    1    1    2    0    0 -0.15876446576E-02 -0.26695834473E-02  0.34486208933E-01  0.34625798156E-01  0.00000000000E+00 0. -1.
       22    1    1    2    0    0 -0.12357476090E-02 -0.15477271456E-02 -0.39456530011E-02  0.44148283178E-02  0.00000000000E+00 0. -1.
</event>
<event>
 5   0  0.4143600E+04  0.9118800E+02  0.7546771E-02  0.1180000E+00
      -11   -1    0    0    0    0  0.00000000000E+00  0.00000000000E+00  0.34996269501E-01  0.35000000000E-01  0.51099999109E-03 0.  1.
       11   -1    0    0    0    0 -0.00000000000E+00 -0.00000000000E+00 -0.34996269501E-01  0.35000000000E-01  0.51099999109E-03 0. -1.
       22    1    1    2    0    0 -0.25595779664E-03  0.21266637972E-03 -0.36511264547E-03  0.49401277980E-03  0.00000000000E+00 0.  1.
       22    1    1    2    0    0 -0.41668441684E-02  0.31102615148E-01  0.14854528350E-01  0.34718759653E-01  0.00000000000E+00 0.  1.
       22    1    1    2    0    0  0.44228019651E-02 -0.31315281527E-01 -0.14489415704E-01  0.34787227567E-01  0.00000000000E+00 0. -1.
</event>
<event>
 5   0  0.4143600E+04  0.9118800E+02  0.7546771E-02  0.1180000E+00
      -11   -1    0    0    0    0  0.00000000000E+00  0.00000000000E+00  0.34996269501E-01  0.35000000000E-01  0.51099999109E-03 0.  1.
       11   -1    0    0    0    0 -0.00000000000E+00 -0.00000000000E+00 -0.34996269501E-01  0.35000000000E-01  0.51099999109E-03 0. -1.
       22    1    1    2    0    0 -0.19032347292E-01  0.68907298501E-02 -0.24268395050E-01  0.31601699315E-01  0.00000000000E+00 0. -1.
       22    1    1    2    0    0 -0.78629189032E-04  0.91120664098E-03 -0.36018587562E-02  0.37161628855E-02  0.00000000000E+00 0.  1.
       22    1    1    2    0    0  0.19110976481E-01 -0.78019364911E-02  0.27870253807E-01  0.34682137799E-01  0.00000000000E+00 0.  1.
</event>
<event>
 5   0  0.4143600E+04  0.9118800E+02  0.7546771E-02  0.1180000E+00
      -11   -1    0    0    0    0  0.00000000000E+00  0.00000000000E+00  0.34996269501E-01  0.35000000000E-01  0.51099999109E-03 0. -1.
       11   -1    0    0    0    0 -0.00000000000E+00 -0.00000000000E+00 -0.34996269501E-01  0.35000000000E-01  0.51099999109E-03 0.  1.
       22    1    1    2    0    0  0.11709182289E-01 -0.16325036159E-01 -0.24805096002E-01  0.31920284196E-01  0.00000000000E+00 0.  1.
       22    1    1    2    0    0 -0.11570579269E-01  0.16241331942E-01  0.28278524146E-01  0.34602515743E-01  0.00000000000E+00 0. -1.
       22    1    1    2    0    0 -0.13860302017E-03  0.83704217298E-04 -0.34734281439E-02  0.34772000609E-02  0.00000000000E+00 0. -1.
</event>
<event>
 5   0  0.4143600E+04  0.9118800E+02  0.7546771E-02  0.1180000E+00
      -11   -1    0    0    0    0  0.00000000000E+00  0.00000000000E+00  0.34996269501E-01  0.35000000000E-01  0.51099999109E-03 0. -1.
       11   -1    0    0    0    0 -0.00000000000E+00 -0.00000000000E+00 -0.34996269501E-01  0.35000000000E-01  0.51099999109E-03 0.  1.
       22    1    1    2    0    0 -0.77124351029E-02  0.33279100268E-02  0.32652133695E-01  0.33715255823E-01  0.00000000000E+00 0. -1.
       22    1    1    2    0    0  0.66434991716E-02 -0.79463914072E-02 -0.26935066510E-01  0.28857910970E-01  0.00000000000E+00 0.  1.
       22    1    1    2    0    0  0.10689359312E-02  0.46184813804E-02 -0.57170671851E-02  0.74268332070E-02  0.00000000000E+00 0. -1.
</event>
<event>
 5   0  0.4143600E+04  0.9118800E+02  0.7546771E-02  0.1180000E+00
      -11   -1    0    0    0    0  0.00000000000E+00  0.00000000000E+00  0.34996269501E-01  0.35000000000E-01  0.51099999109E-03 0. -1.
       11   -1    0    0    0    0 -0.00000000000E+00 -0.00000000000E+00 -0.34996269501E-01  0.35000000000E-01  0.51099999109E-03 0.  1.
       22    1    1    2    0    0 -0.14656932203E-01  0.10891432268E-01  0.29639112834E-01  0.34812727098E-01  0.00000000000E+00 0. -1.
       22    1    1    2    0    0  0.14777442189E-02  0.40525941354E-04 -0.89097004405E-03  0.17260353264E-02  0.00000000000E+00 0.  1.
       22    1    1    2    0    0  0.13179187984E-01 -0.10931958209E-01 -0.28748142790E-01  0.33461237575E-01  0.00000000000E+00 0.  1.
</event>
<event>
 5   0  0.4143600E+04  0.9118800E+02  0.7546771E-02  0.1180000E+00
      -11   -1    0    0    0    0  0.00000000000E+00  0.00000000000E+00  0.34996269501E-01  0.35000000000E-01  0.51099999109E-03 0. -1.
       11   -1    0    0    0    0 -0.00000000000E+00 -0.00000000000E+00 -0.34996269501E-01  0.35000000000E-01  0.51099999109E-03 0.  1.
       22    1    1    2    0    0 -0.81871418098E-02 -0.18725959234E-01 -0.28250092867E-01  0.34867729883E-01  0.00000000000E+00 0.  1.
       22    1    1    2    0    0  0.18079554008E-03  0.76787270852E-03  0.99719110864E-04  0.79514742336E-03  0.00000000000E+00 0. -1.
       22    1    1    2    0    0  0.80063462697E-02  0.17958086525E-01  0.28150373756E-01  0.34337122693E-01  0.00000000000E+00 0. -1.
</event>
<event>
 5   0  0.4143600E+04  0.9118800E+02  0.7546771E-02  0.1180000E+00
      -11   -1    0    0    0    0  0.00000000000E+00  0.00000000000E+00  0.34996269501E-01  0.35000000000E-01  0.51099999109E-03 0.  1.
       11   -1    0    0    0    0 -0.00000000000E+00 -0.00000000000E+00 -0.34996269501E-01  0.35000000000E-01  0.51099999109E-03 0. -1.
       22    1    1    2    0    0 -0.36888815543E-03 -0.27549535692E-02 -0.30651084379E-02  0.41377212781E-02  0.00000000000E+00 0. -1.
       22    1    1    2    0    0 -0.11079658099E-02  0.20616181826E-02 -0.31335609495E-01  0.31422894205E-01  0.00000000000E+00 0. -1.
       22    1    1    2    0    0  0.14768539653E-02  0.69333538659E-03  0.34400717933E-01  0.34439384517E-01  0.00000000000E+00 0.  1.
</event>
<event>
 5   0  0.4143600E+04  0.9118800E+02  0.7546771E-02  0.1180000E+00
      -11   -1    0    0    0    0  0.00000000000E+00  0.00000000000E+00  0.34996269501E-01  0.35000000000E-01  0.51099999109E-03 0.  1.
       11   -1    0    0    0    0 -0.00000000000E+00 -0.00000000000E+00 -0.34996269501E-01  0.35000000000E-01  0.51099999109E-03 0. -1.
       22    1    1    2    0    0  0.33395771039E-02 -0.13329531928E-02 -0.34075575689E-01  0.34264769049E-01  0.00000000000E+00 0. -1.
       22    1    1    2    0    0 -0.26501170537E-03  0.99272725066E-04 -0.72450872659E-03  0.77781692758E-03  0.00000000000E+00 0. -1.
       22    1    1    2    0    0 -0.30745653985E-02  0.12336804677E-02  0.34800084415E-01  0.34957414023E-01  0.00000000000E+00 0.  1.
</event>
<event>
 5   0  0.4143600E+04  0.9118800E+02  0.7546771E-02  0.1180000E+00
      -11   -1    0    0    0    0  0.00000000000E+00  0.00000000000E+00  0.34996269501E-01  0.35000000000E-01  0.51099999109E-03 0. -1.
       11   -1    0    0    0    0 -0.00000000000E+00 -0.00000000000E+00 -0.34996269501E-01  0.35000000000E-01  0.51099999109E-03 0.  1.
       22    1    1    2    0    0 -0.14444638457E-01  0.43706990752E-02 -0.31290016216E-01  0.34739253091E-01  0.00000000000E+00 0.  1.
       22    1    1    2    0    0 -0.35869819122E-04 -0.13498361050E-02  0.39672955143E-02  0.41907968040E-02  0.00000000000E+00 0. -1.
       22    1    1    2    0    0  0.14480508276E-01 -0.30208629702E-02  0.27322720701E-01  0.31069950105E-01  0.00000000000E+00 0. -1.
</event>
<event>
 5   0  0.4143600E+04  0.9118800E+02  0.7546771E-02  0.1180000E+00
      -11   -1    0    0    0    0  0.00000000000E+00  0.00000000000E+00  0.34996269501E-01  0.35000000000E-01  0.51099999109E-03 0. -1.
       11   -1    0    0    0    0 -0.00000000000E+00 -0.00000000000E+00 -0.34996269501E-01  0.35000000000E-01  0.51099999109E-03 0.  1.
       22    1    1    2    0    0 -0.37994377198E-02  0.14563905303E-01 -0.26882186941E-01  0.30809009063E-01  0.00000000000E+00 0.  1.
       22    1    1    2    0    0  0.95540506456E-03 -0.69459521367E-03  0.24861577456E-01  0.24889622234E-01  0.00000000000E+00 0. -1.
       22    1    1    2    0    0  0.28440326553E-02 -0.13869310089E-01  0.20206094853E-02  0.14301368703E-01  0.00000000000E+00 0. -1.
</event>
<event>
 5   0  0.4143600E+04  0.9118800E+02  0.7546771E-02  0.1180000E+00
      -11   -1    0    0    0    0  0.00000000000E+00  0.00000000000E+00  0.34996269501E-01  0.35000000000E-01  0.51099999109E-03 0. -1.
       11   -1    0    0    0    0 -0.00000000000E+00 -0.00000000000E+00 -0.34996269501E-01  0.35000000000E-01  0.51099999109E-03 0.  1.
       22    1    1    2    0    0 -0.25178484076E-02  0.82195485371E-03 -0.34450290262E-01  0.34551956088E-01  0.00000000000E+00 0.  1.
       22    1    1    2    0    0 -0.75823844318E-04  0.19834634008E-03 -0.41783818374E-03  0.46869955599E-03  0.00000000000E+00 0. -1.
       22    1    1    2    0    0  0.25936722519E-02 -0.10203011938E-02  0.34868128446E-01  0.34979344356E-01  0.00000000000E+00 0. -1.
</event>
<event>
 5   0  0.4143600E+04  0.9118800E+02  0.7546771E-02  0.1180000E+00
      -11   -1    0    0    0    0  0.00000000000E+00  0.00000000000E+00  0.34996269501E-01  0.35000000000E-01  0.51099999109E-03 0. -1.
       11   -1    0    0    0    0 -0.00000000000E+00 -0.00000000000E+00 -0.34996269501E-01  0.35000000000E-01  0.51099999109E-03 0.  1.
       22    1    1    2    0    0 -0.10411621851E-04  0.26448415108E-04  0.11030960378E-02  0.11034621829E-02  0.00000000000E+00 0.  1.
       22    1    1    2    0    0 -0.71609975441E-02 -0.10498718444E-01  0.31469360777E-01  0.33938527406E-01  0.00000000000E+00 0. -1.
       22    1    1    2    0    0  0.71714091659E-02  0.10472270029E-01 -0.32572456814E-01  0.34958010411E-01  0.00000000000E+00 0.  1.
</event>
<event>
 5   0  0.4143600E+04  0.9118800E+02  0.7546771E-02  0.1180000E+00
      -11   -1    0    0    0    0  0.00000000000E+00  0.00000000000E+00  0.34996269501E-01  0.35000000000E-01  0.51099999109E-03 0.  1.
       11   -1    0    0    0    0 -0.00000000000E+00 -0.00000000000E+00 -0.34996269501E-01  0.35000000000E-01  0.51099999109E-03 0. -1.
       22    1    1    2    0    0 -0.77188339686E-02 -0.99872261838E-02 -0.32329170028E-01  0.34705911880E-01  0.00000000000E+00 0. -1.
       22    1    1    2    0    0 -0.16389291421E-03  0.43315800616E-02  0.79406310783E-02  0.90467159036E-02  0.00000000000E+00 0.  1.
       22    1    1    2    0    0  0.78827268828E-02  0.56556461221E-02  0.24388538950E-01  0.26247372217E-01  0.00000000000E+00 0.  1.
</event>
<event>
 5   0  0.4143600E+04  0.9118800E+02  0.7546771E-02  0.1180000E+00
      -11   -1    0    0    0    0  0.00000000000E+00  0.00000000000E+00  0.34996269501E-01  0.35000000000E-01  0.51099999109E-03 0. -1.
       11   -1    0    0    0    0 -0.00000000000E+00 -0.00000000000E+00 -0.34996269501E-01  0.35000000000E-01  0.51099999109E-03 0.  1.
       22    1    1    2    0    0 -0.51556696751E-02  0.82469220681E-03  0.15588647660E-01  0.16439798749E-01  0.00000000000E+00 0. -1.
       22    1    1    2    0    0 -0.79294400124E-02  0.11984583312E-01  0.13153144727E-01  0.19481054188E-01  0.00000000000E+00 0. -1.
       22    1    1    2    0    0  0.13085109687E-01 -0.12809275519E-01 -0.28741792388E-01  0.34079147062E-01  0.00000000000E+00 0.  1.
</event>
<event>
 5   0  0.4143600E+04  0.9118800E+02  0.7546771E-02  0.1180000E+00
      -11   -1    0    0    0    0  0.00000000000E+00  0.00000000000E+00  0.34996269501E-01  0.35000000000E-01  0.51099999109E-03 0.  1.
       11   -1    0    0    0    0 -0.00000000000E+00 -0.00000000000E+00 -0.34996269501E-01  0.35000000000E-01  0.51099999109E-03 0. -1.
       22    1    1    2    0    0  0.30656074281E-02  0.17004180619E-01 -0.30313482585E-01  0.34891937950E-01  0.00000000000E+00 0. -1.
       22    1    1    2    0    0 -0.18590849225E-05 -0.59382202281E-04  0.17822276996E-02  0.17832176747E-02  0.00000000000E+00 0. -1.
       22    1    1    2    0    0 -0.30637483432E-02 -0.16944798417E-01  0.28531254886E-01  0.33324844376E-01  0.00000000000E+00 0.  1.
</event>
<event>
 5   0  0.4143600E+04  0.9118800E+02  0.7546771E-02  0.1180000E+00
      -11   -1    0    0    0    0  0.00000000000E+00  0.00000000000E+00  0.34996269501E-01  0.35000000000E-01  0.51099999109E-03 0.  1.
       11   -1    0    0    0    0 -0.00000000000E+00 -0.00000000000E+00 -0.34996269501E-01  0.35000000000E-01  0.51099999109E-03 0. -1.
       22    1    1    2    0    0  0.21935166063E-01 -0.25921451128E-02  0.25731764490E-01  0.33911567794E-01  0.00000000000E+00 0.  1.
       22    1    1    2    0    0  0.21900568331E-03 -0.22549579224E-03  0.11200233977E-02  0.11632988666E-02  0.00000000000E+00 0.  1.
       22    1    1    2    0    0 -0.22154171746E-01  0.28176409051E-02 -0.26851787887E-01  0.34925133339E-01  0.00000000000E+00 0. -1.
</event>
<event>
 5   0  0.4143600E+04  0.9118800E+02  0.7546771E-02  0.1180000E+00
      -11   -1    0    0    0    0  0.00000000000E+00  0.00000000000E+00  0.34996269501E-01  0.35000000000E-01  0.51099999109E-03 0.  1.
       11   -1    0    0    0    0 -0.00000000000E+00 -0.00000000000E+00 -0.34996269501E-01  0.35000000000E-01  0.51099999109E-03 0. -1.
       22    1    1    2    0    0  0.82582735072E-02  0.64035118261E-02 -0.24235008014E-01  0.26392037786E-01  0.00000000000E+00 0. -1.
       22    1    1    2    0    0  0.21295857069E-03 -0.81802862808E-04 -0.88615589359E-02  0.88644949002E-02  0.00000000000E+00 0. -1.
       22    1    1    2    0    0 -0.84712320779E-02 -0.63217089633E-02  0.33096566950E-01  0.34743467314E-01  0.00000000000E+00 0.  1.
</event>
<event>
 5   0  0.4143600E+04  0.9118800E+02  0.7546771E-02  0.1180000E+00
      -11   -1    0    0    0    0  0.00000000000E+00  0.00000000000E+00  0.34996269501E-01  0.35000000000E-01  0.51099999109E-03 0. -1.
       11   -1    0    0    0    0 -0.00000000000E+00 -0.00000000000E+00 -0.34996269501E-01  0.35000000000E-01  0.51099999109E-03 0.  1.
       22    1    1    2    0    0  0.79877679576E-04 -0.37022483873E-04 -0.94832121254E-03  0.95239919685E-03  0.00000000000E+00 0.  1.
       22    1    1    2    0    0  0.72050473093E-02 -0.14891954386E-01  0.30756397023E-01  0.34923329881E-01  0.00000000000E+00 0. -1.
       22    1    1    2    0    0 -0.72849249889E-02  0.14928976870E-01 -0.29808075810E-01  0.34124270922E-01  0.00000000000E+00 0.  1.
</event>
<event>
 5   0  0.4143600E+04  0.9118800E+02  0.7546771E-02  0.1180000E+00
      -11   -1    0    0    0    0  0.00000000000E+00  0.00000000000E+00  0.34996269501E-01  0.35000000000E-01  0.51099999109E-03 0.  1.
       11   -1    0    0    0    0 -0.00000000000E+00 -0.00000000000E+00 -0.34996269501E-01  0.35000000000E-01  0.51099999109E-03 0. -1.
       22    1    1    2    0    0 -0.42088993539E-02  0.19919238146E-01 -0.28356523918E-01  0.34908212942E-01  0.00000000000E+00 0. -1.
       22    1    1    2    0    0  0.39887135576E-02 -0.20028476305E-01  0.27932108360E-01  0.34601334893E-01  0.00000000000E+00 0.  1.
       22    1    1    2    0    0  0.22018579625E-03  0.10923815903E-03  0.42441555761E-03  0.49045216464E-03  0.00000000000E+00 0. -1.
</event>
<event>
 5   0  0.4143600E+04  0.9118800E+02  0.7546771E-02  0.1180000E+00
      -11   -1    0    0    0    0  0.00000000000E+00  0.00000000000E+00  0.34996269501E-01  0.35000000000E-01  0.51099999109E-03 0.  1.
       11   -1    0    0    0    0 -0.00000000000E+00 -0.00000000000E+00 -0.34996269501E-01  0.35000000000E-01  0.51099999109E-03 0. -1.
       22    1    1    2    0    0  0.31187814331E-02  0.12202264019E-01  0.32097383055E-01  0.34479907828E-01  0.00000000000E+00 0.  1.
       22    1    1    2    0    0 -0.57204055982E-04  0.14708952952E-03  0.50178213107E-03  0.52601610315E-03  0.00000000000E+00 0.  1.
       22    1    1    2    0    0 -0.30615773771E-02 -0.12349353549E-01 -0.32599165186E-01  0.34994076069E-01  0.00000000000E+00 0. -1.
</event>
<event>
 5   0  0.4143600E+04  0.9118800E+02  0.7546771E-02  0.1180000E+00
      -11   -1    0    0    0    0  0.00000000000E+00  0.00000000000E+00  0.34996269501E-01  0.35000000000E-01  0.51099999109E-03 0. -1.
       11   -1    0    0    0    0 -0.00000000000E+00 -0.00000000000E+00 -0.34996269501E-01  0.35000000000E-01  0.51099999109E-03 0.  1.
       22    1    1    2    0    0 -0.13227626166E-02  0.53803425014E-03 -0.28576544105E-02  0.31945845621E-02  0.00000000000E+00 0.  1.
       22    1    1    2    0    0  0.13554922896E-01 -0.15018445310E-01 -0.25589897643E-01  0.32621043754E-01  0.00000000000E+00 0.  1.
       22    1    1    2    0    0 -0.12232160279E-01  0.14480411060E-01  0.28447552054E-01  0.34184371684E-01  0.00000000000E+00 0. -1.
</event>
<event>
 5   0  0.4143600E+04  0.9118800E+02  0.7546771E-02  0.1180000E+00
      -11   -1    0    0    0    0  0.00000000000E+00  0.00000000000E+00  0.34996269501E-01  0.35000000000E-01  0.51099999109E-03 0. -1.
       11   -1    0    0    0    0 -0.00000000000E+00 -0.00000000000E+00 -0.34996269501E-01  0.35000000000E-01  0.51099999109E-03 0.  1.
       22    1    1    2    0    0  0.21604345845E-01  0.52748993888E-03 -0.25666605506E-01  0.33552952824E-01  0.00000000000E+00 0.  1.
       22    1    1    2    0    0 -0.22240718331E-01 -0.37355302238E-02  0.23161161716E-01  0.32327127153E-01  0.00000000000E+00 0. -1.
       22    1    1    2    0    0  0.63637248587E-03  0.32080402849E-02  0.25054437899E-02  0.41199200229E-02  0.00000000000E+00 0.  1.
</event>
<event>
 5   0  0.4143600E+04  0.9118800E+02  0.7546771E-02  0.1180000E+00
      -11   -1    0    0    0    0  0.00000000000E+00  0.00000000000E+00  0.34996269501E-01  0.35000000000E-01  0.51099999109E-03 0.  1.
       11   -1    0    0    0    0 -0.00000000000E+00 -0.00000000000E+00 -0.34996269501E-01  0.35000000000E-01  0.51099999109E-03 0. -1.
       22    1    1    2    0    0 -0.38928932155E-03 -0.18190830329E-01  0.29718791276E-01  0.34846296921E-01  0.00000000000E+00 0.  1.
       22    1    1    2    0    0  0.17664709784E-03  0.18013804536E-01 -0.27230597951E-01  0.32650173396E-01  0.00000000000E+00 0. -1.
       22    1    1    2    0    0  0.21264222371E-03  0.17702579316E-03 -0.24881933254E-02  0.25035296826E-02  0.00000000000E+00 0. -1.
</event>
<event>
 5   0  0.4143600E+04  0.9118800E+02  0.7546771E-02  0.1180000E+00
      -11   -1    0    0    0    0  0.00000000000E+00  0.00000000000E+00  0.34996269501E-01  0.35000000000E-01  0.51099999109E-03 0.  1.
       11   -1    0    0    0    0 -0.00000000000E+00 -0.00000000000E+00 -0.34996269501E-01  0.35000000000E-01  0.51099999109E-03 0. -1.
       22    1    1    2    0    0  0.34435891398E-02 -0.13410968054E-01  0.31554628579E-01  0.34458771816E-01  0.00000000000E+00 0.  1.
       22    1    1    2    0    0 -0.34746233971E-02  0.13458865566E-01 -0.32106557658E-01  0.34986356122E-01  0.00000000000E+00 0. -1.
       22    1    1    2    0    0  0.31034257304E-04 -0.47897512187E-04  0.55192907896E-03  0.55487206184E-03  0.00000000000E+00 0. -1.
</event>
<event>
 5   0  0.4143600E+04  0.9118800E+02  0.7546771E-02  0.1180000E+00
      -11   -1    0    0    0    0  0.00000000000E+00  0.00000000000E+00  0.34996269501E-01  0.35000000000E-01  0.51099999109E-03 0. -1.
       11   -1    0    0    0    0 -0.00000000000E+00 -0.00000000000E+00 -0.34996269501E-01  0.35000000000E-01  0.51099999109E-03 0.  1.
       22    1    1    2    0    0  0.18004119775E-01 -0.68231058085E-02  0.29116993698E-01  0.34907054069E-01  0.00000000000E+00 0. -1.
       22    1    1    2    0    0 -0.17751635976E-01  0.69333931219E-02 -0.27533190720E-01  0.33485356669E-01  0.00000000000E+00 0.  1.
       22    1    1    2    0    0 -0.25248379913E-03 -0.11028731337E-03 -0.15838029788E-02  0.16075892622E-02  0.00000000000E+00 0.  1.
</event>
<event>
 5   0  0.4143600E+04  0.9118800E+02  0.7546771E-02  0.1180000E+00
      -11   -1    0    0    0    0  0.00000000000E+00  0.00000000000E+00  0.34996269501E-01  0.35000000000E-01  0.51099999109E-03 0. -1.
       11   -1    0    0    0    0 -0.00000000000E+00 -0.00000000000E+00 -0.34996269501E-01  0.35000000000E-01  0.51099999109E-03 0. -1.
       22    1    1    2    0    0  0.11585635748E-01  0.15850055749E-02 -0.31877599913E-01  0.33954684133E-01  0.00000000000E+00 0. -1.
       22    1    1    2    0    0 -0.00000000000E+00 -0.00000000000E+00  0.17563410991E-01  0.17561939475E-01  0.00000000000E+00 0. -1.
       22    1    1    2    0    0 -0.11585635748E-01 -0.15850055749E-02  0.14314188922E-01  0.18483376392E-01  0.00000000000E+00 0.  1.
</event>
<event>
 5   0  0.4143600E+04  0.9118800E+02  0.7546771E-02  0.1180000E+00
      -11   -1    0    0    0    0  0.00000000000E+00  0.00000000000E+00  0.34996269501E-01  0.35000000000E-01  0.51099999109E-03 0.  1.
       11   -1    0    0    0    0 -0.00000000000E+00 -0.00000000000E+00 -0.34996269501E-01  0.35000000000E-01  0.51099999109E-03 0. -1.
       22    1    1    2    0    0  0.13508480096E-01 -0.31921629491E-02 -0.26502776098E-01  0.29917654983E-01  0.00000000000E+00 0. -1.
       22    1    1    2    0    0 -0.12586954023E-02 -0.13321673346E-02 -0.53507837425E-02  0.56559588561E-02  0.00000000000E+00 0.  1.
       22    1    1    2    0    0 -0.12249784694E-01  0.45243302838E-02  0.31853559841E-01  0.34426386161E-01  0.00000000000E+00 0.  1.
</event>
<event>
 5   0  0.4143600E+04  0.9118800E+02  0.7546771E-02  0.1180000E+00
      -11   -1    0    0    0    0  0.00000000000E+00  0.00000000000E+00  0.34996269501E-01  0.35000000000E-01  0.51099999109E-03 0.  1.
       11   -1    0    0    0    0 -0.00000000000E+00 -0.00000000000E+00 -0.34996269501E-01  0.35000000000E-01  0.51099999109E-03 0. -1.
       22    1    1    2    0    0  0.20898768617E-03 -0.59081834514E-04 -0.46234006192E-03  0.51080803536E-03  0.00000000000E+00 0. -1.
       22    1    1    2    0    0  0.59391673756E-02  0.43827344651E-02  0.34167732017E-01  0.34955914831E-01  0.00000000000E+00 0.  1.
       22    1    1    2    0    0 -0.61481550618E-02 -0.43236526305E-02 -0.33705391955E-01  0.34533277133E-01  0.00000000000E+00 0. -1.
</event>
<event>
 5   0  0.4143600E+04  0.9118800E+02  0.7546771E-02  0.1180000E+00
      -11   -1    0    0    0    0  0.00000000000E+00  0.00000000000E+00  0.34996269501E-01  0.35000000000E-01  0.51099999109E-03 0. -1.
       11   -1    0    0    0    0 -0.00000000000E+00 -0.00000000000E+00 -0.34996269501E-01  0.35000000000E-01  0.51099999109E-03 0.  1.
       22    1    1    2    0    0 -0.36656498579E-02 -0.35026551792E-02 -0.34071611800E-01  0.34446775071E-01  0.00000000000E+00 0.  1.
       22    1    1    2    0    0  0.37017602675E-02  0.32559151348E-02  0.34610284838E-01  0.34959631420E-01  0.00000000000E+00 0. -1.
       22    1    1    2    0    0 -0.36110409654E-04  0.24674004441E-03 -0.53867303842E-03  0.59359350865E-03  0.00000000000E+00 0. -1.
</event>
<event>
 5   0  0.4143600E+04  0.9118800E+02  0.7546771E-02  0.1180000E+00
      -11   -1    0    0    0    0  0.00000000000E+00  0.00000000000E+00  0.34996269501E-01  0.35000000000E-01  0.51099999109E-03 0. -1.
       11   -1    0    0    0    0 -0.00000000000E+00 -0.00000000000E+00 -0.34996269501E-01  0.35000000000E-01  0.51099999109E-03 0.  1.
       22    1    1    2    0    0 -0.19863521415E-01  0.10928744392E-01 -0.26319979539E-01  0.34738138406E-01  0.00000000000E+00 0.  1.
       22    1    1    2    0    0 -0.62280091940E-04  0.12933770657E-04  0.18915657158E-02  0.18926349224E-02  0.00000000000E+00 0. -1.
       22    1    1    2    0    0  0.19925801507E-01 -0.10941678163E-01  0.24428413823E-01  0.33369226671E-01  0.00000000000E+00 0. -1.
</event>
<event>
 5   0  0.4143600E+04  0.9118800E+02  0.7546771E-02  0.1180000E+00
      -11   -1    0    0    0    0  0.00000000000E+00  0.00000000000E+00  0.34996269501E-01  0.35000000000E-01  0.51099999109E-03 0. -1.
       11   -1    0    0    0    0 -0.00000000000E+00 -0.00000000000E+00 -0.34996269501E-01  0.35000000000E-01  0.51099999109E-03 0.  1.
       22    1    1    2    0    0  0.91051973746E-02  0.24567709712E-01  0.22647480111E-01  0.34632143092E-01  0.00000000000E+00 0. -1.
       22    1    1    2    0    0 -0.81956196624E-02 -0.23469318704E-01 -0.18515765396E-01  0.30996946145E-01  0.00000000000E+00 0.  1.
       22    1    1    2    0    0 -0.90957771224E-03 -0.10983910082E-02 -0.41317147148E-02  0.43709107639E-02  0.00000000000E+00 0. -1.
</event>
<event>
 5   0  0.4143600E+04  0.9118800E+02  0.7546771E-02  0.1180000E+00
      -11   -1    0    0    0    0  0.00000000000E+00  0.00000000000E+00  0.34996269501E-01  0.35000000000E-01  0.51099999109E-03 0. -1.
       11   -1    0    0    0    0 -0.00000000000E+00 -0.00000000000E+00 -0.34996269501E-01  0.35000000000E-01  0.51099999109E-03 0.  1.
       22    1    1    2    0    0 -0.20271398811E-01  0.57281582459E-02 -0.15900571247E-01  0.26392604506E-01  0.00000000000E+00 0.  1.
       22    1    1    2    0    0  0.24812769528E-01 -0.39386408489E-02  0.23614093729E-01  0.34479150889E-01  0.00000000000E+00 0. -1.
       22    1    1    2    0    0 -0.45413707171E-02 -0.17895173971E-02 -0.77135224813E-02  0.91282446053E-02  0.00000000000E+00 0.  1.
</event>
<event>
 5   0  0.4143600E+04  0.9118800E+02  0.7546771E-02  0.1180000E+00
      -11   -1    0    0    0    0  0.00000000000E+00  0.00000000000E+00  0.34996269501E-01  0.35000000000E-01  0.51099999109E-03 0. -1.
       11   -1    0    0    0    0 -0.00000000000E+00 -0.00000000000E+00 -0.34996269501E-01  0.35000000000E-01  0.51099999109E-03 0.  1.
       22    1    1    2    0    0  0.14079908887E-02 -0.27791521116E-03  0.27356171503E-01  0.27393791167E-01  0.00000000000E+00 0. -1.
       22    1    1    2    0    0 -0.14136473396E-01 -0.69888371399E-02 -0.63679754953E-02  0.17006905555E-01  0.00000000000E+00 0. -1.
       22    1    1    2    0    0  0.12728482508E-01  0.72667523510E-02 -0.20988196007E-01  0.25599303278E-01  0.00000000000E+00 0.  1.
</event>
<event>
 5   0  0.4143600E+04  0.9118800E+02  0.7546771E-02  0.1180000E+00
      -11   -1    0    0    0    0  0.00000000000E+00  0.00000000000E+00  0.34996269501E-01  0.35000000000E-01  0.51099999109E-03 0.  1.
       11   -1    0    0    0    0 -0.00000000000E+00 -0.00000000000E+00 -0.34996269501E-01  0.35000000000E-01  0.51099999109E-03 0. -1.
       22    1    1    2    0    0 -0.94451402731E-03  0.73939182823E-03 -0.17420991649E-02  0.21151161963E-02  0.00000000000E+00 0.  1.
       22    1    1    2    0    0  0.10388576507E-02 -0.18865560158E-02 -0.33026795527E-01  0.33096941575E-01  0.00000000000E+00 0. -1.
       22    1    1    2    0    0 -0.94343623350E-04  0.11471641876E-02  0.34768894692E-01  0.34787942229E-01  0.00000000000E+00 0.  1.
</event>
<event>
 5   0  0.4143600E+04  0.9118800E+02  0.7546771E-02  0.1180000E+00
      -11   -1    0    0    0    0  0.00000000000E+00  0.00000000000E+00  0.34996269501E-01  0.35000000000E-01  0.51099999109E-03 0.  1.
       11   -1    0    0    0    0 -0.00000000000E+00 -0.00000000000E+00 -0.34996269501E-01  0.35000000000E-01  0.51099999109E-03 0. -1.
       22    1    1    2    0    0 -0.49266593141E-02 -0.61828232284E-02 -0.13822551837E-01  0.15923636970E-01  0.00000000000E+00 0. -1.
       22    1    1    2    0    0  0.49163423470E-02  0.93079418870E-02  0.33003970344E-01  0.34642030291E-01  0.00000000000E+00 0.  1.
       22    1    1    2    0    0  0.10316967173E-04 -0.31251186586E-02 -0.19181418506E-01  0.19434332738E-01  0.00000000000E+00 0. -1.
</event>
<event>
 5   0  0.4143600E+04  0.9118800E+02  0.7546771E-02  0.1180000E+00
      -11   -1    0    0    0    0  0.00000000000E+00  0.00000000000E+00  0.34996269501E-01  0.35000000000E-01  0.51099999109E-03 0.  1.
       11   -1    0    0    0    0 -0.00000000000E+00 -0.00000000000E+00 -0.34996269501E-01  0.35000000000E-01  0.51099999109E-03 0. -1.
       22    1    1    2    0    0 -0.32060743315E-02  0.21423276998E-01 -0.27372542323E-01  0.34906901655E-01  0.00000000000E+00 0. -1.
       22    1    1    2    0    0  0.31978533025E-02 -0.21433812832E-01  0.26554764737E-01  0.34275211574E-01  0.00000000000E+00 0.  1.
       22    1    1    2    0    0  0.82210290426E-05  0.10535833510E-04  0.81777758613E-03  0.81788677058E-03  0.00000000000E+00 0. -1.
</event>
<event>
 5   0  0.4143600E+04  0.9118800E+02  0.7546771E-02  0.1180000E+00
      -11   -1    0    0    0    0  0.00000000000E+00  0.00000000000E+00  0.34996269501E-01  0.35000000000E-01  0.51099999109E-03 0. -1.
       11   -1    0    0    0    0 -0.00000000000E+00 -0.00000000000E+00 -0.34996269501E-01  0.35000000000E-01  0.51099999109E-03 0.  1.
       22    1    1    2    0    0  0.14903619566E-01 -0.92209477393E-02 -0.30002355666E-01  0.34746008387E-01  0.00000000000E+00 0.  1.
       22    1    1    2    0    0 -0.57280736058E-04 -0.12916793591E-03  0.33009688788E-02  0.33039916733E-02  0.00000000000E+00 0. -1.
       22    1    1    2    0    0 -0.14846338830E-01  0.93501156752E-02  0.26701386787E-01  0.31949999939E-01  0.00000000000E+00 0. -1.
</event>
<event>
 5   0  0.4143600E+04  0.9118800E+02  0.7546771E-02  0.1180000E+00
      -11   -1    0    0    0    0  0.00000000000E+00  0.00000000000E+00  0.34996269501E-01  0.35000000000E-01  0.51099999109E-03 0.  1.
       11   -1    0    0    0    0 -0.00000000000E+00 -0.00000000000E+00 -0.34996269501E-01  0.35000000000E-01  0.51099999109E-03 0. -1.
       22    1    1    2    0    0 -0.46412598723E-02  0.10303437573E-01  0.32723944003E-01  0.34620205519E-01  0.00000000000E+00 0.  1.
       22    1    1    2    0    0 -0.11394468550E-02  0.45690118478E-03 -0.26849432712E-02  0.29522903308E-02  0.00000000000E+00 0.  1.
       22    1    1    2    0    0  0.57807067273E-02 -0.10760338758E-01 -0.30039000732E-01  0.32427504151E-01  0.00000000000E+00 0. -1.
</event>
<event>
 5   0  0.4143600E+04  0.9118800E+02  0.7546771E-02  0.1180000E+00
      -11   -1    0    0    0    0  0.00000000000E+00  0.00000000000E+00  0.34996269501E-01  0.35000000000E-01  0.51099999109E-03 0. -1.
       11   -1    0    0    0    0 -0.00000000000E+00 -0.00000000000E+00 -0.34996269501E-01  0.35000000000E-01  0.51099999109E-03 0.  1.
       22    1    1    2    0    0 -0.34182605788E-02 -0.47848306835E-02 -0.75053948568E-02  0.95346768173E-02  0.00000000000E+00 0.  1.
       22    1    1    2    0    0  0.32292663791E-02  0.86021051612E-02  0.33220497254E-01  0.34467750324E-01  0.00000000000E+00 0. -1.
       22    1    1    2    0    0  0.18899419979E-03 -0.38172744777E-02 -0.25715102398E-01  0.25997572859E-01  0.00000000000E+00 0.  1.
</event>
<event>
 5   0  0.4143600E+04  0.9118800E+02  0.7546771E-02  0.1180000E+00
      -11   -1    0    0    0    0  0.00000000000E+00  0.00000000000E+00  0.34996269501E-01  0.35000000000E-01  0.51099999109E-03 0. -1.
       11   -1    0    0    0    0 -0.00000000000E+00 -0.00000000000E+00 -0.34996269501E-01  0.35000000000E-01  0.51099999109E-03 0.  1.
       22    1    1    2    0    0  0.14253664908E-01 -0.40302982240E-03  0.31891109256E-01  0.34933826672E-01  0.00000000000E+00 0. -1.
       22    1    1    2    0    0  0.31604873477E-04 -0.95951701824E-04 -0.12601993741E-02  0.12642420890E-02  0.00000000000E+00 0. -1.
       22    1    1    2    0    0 -0.14285269781E-01  0.49898152422E-03 -0.30630909882E-01  0.33801931239E-01  0.00000000000E+00 0.  1.
</event>
<event>
 5   0  0.4143600E+04  0.9118800E+02  0.7546771E-02  0.1180000E+00
      -11   -1    0    0    0    0  0.00000000000E+00  0.00000000000E+00  0.34996269501E-01  0.35000000000E-01  0.51099999109E-03 0.  1.
       11   -1    0    0    0    0 -0.00000000000E+00 -0.00000000000E+00 -0.34996269501E-01  0.35000000000E-01  0.51099999109E-03 0. -1.
       22    1    1    2    0    0  0.96243390046E-04  0.62488789312E-02 -0.32836238982E-01  0.33425683855E-01  0.00000000000E+00 0. -1.
       22    1    1    2    0    0  0.20600402969E-03 -0.72701041391E-02  0.34131289657E-01  0.34897589967E-01  0.00000000000E+00 0.  1.
       22    1    1    2    0    0 -0.30224741973E-03  0.10212252079E-02 -0.12950506749E-02  0.16767261787E-02  0.00000000000E+00 0.  1.
</event>
<event>
 5   0  0.4143600E+04  0.9118800E+02  0.7546771E-02  0.1180000E+00
      -11   -1    0    0    0    0  0.00000000000E+00  0.00000000000E+00  0.34996269501E-01  0.35000000000E-01  0.51099999109E-03 0. -1.
       11   -1    0    0    0    0 -0.00000000000E+00 -0.00000000000E+00 -0.34996269501E-01  0.35000000000E-01  0.51099999109E-03 0.  1.
       22    1    1    2    0    0 -0.18011731702E-01  0.42988208786E-02 -0.23306641180E-01  0.29767463160E-01  0.00000000000E+00 0.  1.
       22    1    1    2    0    0  0.18599206010E-01 -0.63775893961E-02  0.30932891029E-02  0.19904083706E-01  0.00000000000E+00 0. -1.
       22    1    1    2    0    0 -0.58747430829E-03  0.20787685175E-02  0.20213352078E-01  0.20328453134E-01  0.00000000000E+00 0. -1.
</event>
<event>
 5   0  0.4143600E+04  0.9118800E+02  0.7546771E-02  0.1180000E+00
      -11   -1    0    0    0    0  0.00000000000E+00  0.00000000000E+00  0.34996269501E-01  0.35000000000E-01  0.51099999109E-03 0. -1.
       11   -1    0    0    0    0 -0.00000000000E+00 -0.00000000000E+00 -0.34996269501E-01  0.35000000000E-01  0.51099999109E-03 0.  1.
       22    1    1    2    0    0  0.11980205984E-01 -0.90459053962E-02  0.31261377970E-01  0.34678920001E-01  0.00000000000E+00 0. -1.
       22    1    1    2    0    0 -0.11949381365E-01  0.89932714968E-02 -0.31608816735E-01  0.34968327707E-01  0.00000000000E+00 0.  1.
       22    1    1    2    0    0 -0.30824618483E-04  0.52633899393E-04  0.34743876498E-03  0.35275229252E-03  0.00000000000E+00 0. -1.
</event>
<event>
 5   0  0.4143600E+04  0.9118800E+02  0.7546771E-02  0.1180000E+00
      -11   -1    0    0    0    0  0.00000000000E+00  0.00000000000E+00  0.34996269501E-01  0.35000000000E-01  0.51099999109E-03 0. -1.
       11   -1    0    0    0    0 -0.00000000000E+00 -0.00000000000E+00 -0.34996269501E-01  0.35000000000E-01  0.51099999109E-03 0.  1.
       22    1    1    2    0    0  0.27065817887E-03  0.81334128943E-04 -0.16659932135E-01  0.16662329064E-01  0.00000000000E+00 0.  1.
       22    1    1    2    0    0 -0.60126367032E-02 -0.62096599287E-02 -0.16771365810E-01  0.18867707536E-01  0.00000000000E+00 0.  1.
       22    1    1    2    0    0  0.57419785243E-02  0.61283257998E-02  0.33431297945E-01  0.34469963400E-01  0.00000000000E+00 0. -1.
</event>
<event>
 5   0  0.4143600E+04  0.9118800E+02  0.7546771E-02  0.1180000E+00
      -11   -1    0    0    0    0  0.00000000000E+00  0.00000000000E+00  0.34996269501E-01  0.35000000000E-01  0.51099999109E-03 0. -1.
       11   -1    0    0    0    0 -0.00000000000E+00 -0.00000000000E+00 -0.34996269501E-01  0.35000000000E-01  0.51099999109E-03 0. -1.
       22    1    1    2    0    0  0.12713127299E-03  0.27735352070E-03  0.20543580530E-01  0.20545846012E-01  0.00000000000E+00 0. -1.
       22    1    1    2    0    0 -0.78220693212E-02 -0.12939452888E-01  0.81383623561E-02  0.17171113864E-01  0.00000000000E+00 0.  1.
       22    1    1    2    0    0  0.76949380482E-02  0.12662099367E-01 -0.28681942886E-01  0.32283040124E-01  0.00000000000E+00 0. -1.
</event>
<event>
 5   0  0.4143600E+04  0.9118800E+02  0.7546771E-02  0.1180000E+00
      -11   -1    0    0    0    0  0.00000000000E+00  0.00000000000E+00  0.34996269501E-01  0.35000000000E-01  0.51099999109E-03 0. -1.
       11   -1    0    0    0    0 -0.00000000000E+00 -0.00000000000E+00 -0.34996269501E-01  0.35000000000E-01  0.51099999109E-03 0.  1.
       22    1    1    2    0    0 -0.13950682463E-02 -0.31775101961E-03 -0.40324097782E-02  0.42787275844E-02  0.00000000000E+00 0. -1.
       22    1    1    2    0    0  0.26737146104E-02 -0.51181887222E-03 -0.30767652538E-01  0.30887847951E-01  0.00000000000E+00 0.  1.
       22    1    1    2    0    0 -0.12786463641E-02  0.82956989184E-03  0.34800062316E-01  0.34833424464E-01  0.00000000000E+00 0. -1.
</event>
<event>
 5   0  0.4143600E+04  0.9118800E+02  0.7546771E-02  0.1180000E+00
      -11   -1    0    0    0    0  0.00000000000E+00  0.00000000000E+00  0.34996269501E-01  0.35000000000E-01  0.51099999109E-03 0.  1.
       11   -1    0    0    0    0 -0.00000000000E+00 -0.00000000000E+00 -0.34996269501E-01  0.35000000000E-01  0.51099999109E-03 0. -1.
       22    1    1    2    0    0 -0.30577821892E-04 -0.32673329565E-02  0.34724532463E-01  0.34877923597E-01  0.00000000000E+00 0.  1.
       22    1    1    2    0    0  0.69918582775E-03  0.26166855488E-02 -0.33356084315E-01  0.33465867163E-01  0.00000000000E+00 0. -1.
       22    1    1    2    0    0 -0.66860800586E-03  0.65064740773E-03 -0.13684481478E-02  0.16562092404E-02  0.00000000000E+00 0.  1.
</event>
<event>
 5   0  0.4143600E+04  0.9118800E+02  0.7546771E-02  0.1180000E+00
      -11   -1    0    0    0    0  0.00000000000E+00  0.00000000000E+00  0.34996269501E-01  0.35000000000E-01  0.51099999109E-03 0. -1.
       11   -1    0    0    0    0 -0.00000000000E+00 -0.00000000000E+00 -0.34996269501E-01  0.35000000000E-01  0.51099999109E-03 0.  1.
       22    1    1    2    0    0 -0.11744073974E-01 -0.36130391893E-02 -0.32754600336E-01  0.34983441352E-01  0.00000000000E+00 0.  1.
       22    1    1    2    0    0  0.11637386326E-01  0.34857931894E-02  0.31682977276E-01  0.33932146465E-01  0.00000000000E+00 0. -1.
       22    1    1    2    0    0  0.10668764775E-03  0.12724599985E-03  0.10716230602E-02  0.10844121826E-02  0.00000000000E+00 0. -1.
</event>
<event>
 5   0  0.4143600E+04  0.9118800E+02  0.7546771E-02  0.1180000E+00
      -11   -1    0    0    0    0  0.00000000000E+00  0.00000000000E+00  0.34996269501E-01  0.35000000000E-01  0.51099999109E-03 0. -1.
       11   -1    0    0    0    0 -0.00000000000E+00 -0.00000000000E+00 -0.34996269501E-01  0.35000000000E-01  0.51099999109E-03 0.  1.
       22    1    1    2    0    0  0.13239714221E-02  0.55432462992E-02 -0.14900234731E-01  0.15952976991E-01  0.00000000000E+00 0.  1.
       22    1    1    2    0    0 -0.20994233368E-02  0.16801487769E-01  0.24445231227E-01  0.29736625554E-01  0.00000000000E+00 0. -1.
       22    1    1    2    0    0  0.77545191465E-03 -0.22344734068E-01 -0.95449964966E-02  0.24310397454E-01  0.00000000000E+00 0.  1.
</event>
<event>
 5   0  0.4143600E+04  0.9118800E+02  0.7546771E-02  0.1180000E+00
      -11   -1    0    0    0    0  0.00000000000E+00  0.00000000000E+00  0.34996269501E-01  0.35000000000E-01  0.51099999109E-03 0. -1.
       11   -1    0    0    0    0 -0.00000000000E+00 -0.00000000000E+00 -0.34996269501E-01  0.35000000000E-01  0.51099999109E-03 0. -1.
       22    1    1    2    0    0  0.00000000000E+00 -0.00000000000E+00  0.34297721719E-01  0.34297513219E-01  0.00000000000E+00 0. -1.
       22    1    1    2    0    0 -0.22124986084E-02 -0.30386745333E-02 -0.55074888397E-02  0.66679176908E-02  0.00000000000E+00 0.  1.
       22    1    1    2    0    0  0.22124986084E-02  0.30386745333E-02 -0.28790232880E-01  0.29034569091E-01  0.00000000000E+00 0. -1.
</event>
<event>
 5   0  0.4143600E+04  0.9118800E+02  0.7546771E-02  0.1180000E+00
      -11   -1    0    0    0    0  0.00000000000E+00  0.00000000000E+00  0.34996269501E-01  0.35000000000E-01  0.51099999109E-03 0. -1.
       11   -1    0    0    0    0 -0.00000000000E+00 -0.00000000000E+00 -0.34996269501E-01  0.35000000000E-01  0.51099999109E-03 0.  1.
       22    1    1    2    0    0  0.32420787778E-02 -0.18531358705E-01  0.27055942509E-01  0.32953700177E-01  0.00000000000E+00 0. -1.
       22    1    1    2    0    0 -0.34053595547E-02  0.21486725802E-01 -0.20674533194E-01  0.30011867356E-01  0.00000000000E+00 0.  1.
       22    1    1    2    0    0  0.16328077688E-03 -0.29553670970E-02 -0.63814093151E-02  0.70344324673E-02  0.00000000000E+00 0. -1.
</event>
<event>
 5   0  0.4143600E+04  0.9118800E+02  0.7546771E-02  0.1180000E+00
      -11   -1    0    0    0    0  0.00000000000E+00  0.00000000000E+00  0.34996269501E-01  0.35000000000E-01  0.51099999109E-03 0.  1.
       11   -1    0    0    0    0 -0.00000000000E+00 -0.00000000000E+00 -0.34996269501E-01  0.35000000000E-01  0.51099999109E-03 0. -1.
       22    1    1    2    0    0  0.90906693011E-02  0.70141200670E-02 -0.31248454461E-01  0.33291200863E-01  0.00000000000E+00 0. -1.
       22    1    1    2    0    0  0.51612444570E-03  0.86343957918E-03 -0.14300285086E-02  0.17483975194E-02  0.00000000000E+00 0.  1.
       22    1    1    2    0    0 -0.96067937468E-02 -0.78775596462E-02  0.32678482970E-01  0.34960401618E-01  0.00000000000E+00 0.  1.
</event>
<event>
 5   0  0.4143600E+04  0.9118800E+02  0.7546771E-02  0.1180000E+00
      -11   -1    0    0    0    0  0.00000000000E+00  0.00000000000E+00  0.34996269501E-01  0.35000000000E-01  0.51099999109E-03 0. -1.
       11   -1    0    0    0    0 -0.00000000000E+00 -0.00000000000E+00 -0.34996269501E-01  0.35000000000E-01  0.51099999109E-03 0.  1.
       22    1    1    2    0    0 -0.19320937830E-02  0.52985090328E-02  0.33382605796E-01  0.33855657638E-01  0.00000000000E+00 0. -1.
       22    1    1    2    0    0  0.48537136522E-03  0.30575755865E-02 -0.20425231362E-01  0.20658519550E-01  0.00000000000E+00 0.  1.
       22    1    1    2    0    0  0.14467224178E-02 -0.83560846193E-02 -0.12957374435E-01  0.15485822812E-01  0.00000000000E+00 0.  1.
</event>
<event>
 5   0  0.4143600E+04  0.9118800E+02  0.7546771E-02  0.1180000E+00
      -11   -1    0    0    0    0  0.00000000000E+00  0.00000000000E+00  0.34996269501E-01  0.35000000000E-01  0.51099999109E-03 0.  1.
       11   -1    0    0    0    0 -0.00000000000E+00 -0.00000000000E+00 -0.34996269501E-01  0.35000000000E-01  0.51099999109E-03 0. -1.
       22    1    1    2    0    0  0.28742112684E-02 -0.90987835202E-03  0.33191272046E-01  0.33327908861E-01  0.00000000000E+00 0.  1.
       22    1    1    2    0    0 -0.77234673003E-02 -0.31862757815E-02 -0.24670060622E-01  0.26046423777E-01  0.00000000000E+00 0.  1.
       22    1    1    2    0    0  0.48492560319E-02  0.40961541335E-02 -0.85212114242E-02  0.10625667362E-01  0.00000000000E+00 0. -1.
</event>
<event>
 5   0  0.4143600E+04  0.9118800E+02  0.7546771E-02  0.1180000E+00
      -11   -1    0    0    0    0  0.00000000000E+00  0.00000000000E+00  0.34996269501E-01  0.35000000000E-01  0.51099999109E-03 0. -1.
       11   -1    0    0    0    0 -0.00000000000E+00 -0.00000000000E+00 -0.34996269501E-01  0.35000000000E-01  0.51099999109E-03 0.  1.
       22    1    1    2    0    0  0.82024186229E-02 -0.89014199604E-02 -0.30537620993E-01  0.32849067635E-01  0.00000000000E+00 0.  1.
       22    1    1    2    0    0 -0.78823404591E-02  0.53969472125E-02  0.31958595009E-01  0.33355810967E-01  0.00000000000E+00 0. -1.
       22    1    1    2    0    0 -0.32007816381E-03  0.35044727479E-02 -0.14209740160E-02  0.37951213980E-02  0.00000000000E+00 0. -1.
</event>
<event>
 5   0  0.4143600E+04  0.9118800E+02  0.7546771E-02  0.1180000E+00
      -11   -1    0    0    0    0  0.00000000000E+00  0.00000000000E+00  0.34996269501E-01  0.35000000000E-01  0.51099999109E-03 0.  1.
       11   -1    0    0    0    0 -0.00000000000E+00 -0.00000000000E+00 -0.34996269501E-01  0.35000000000E-01  0.51099999109E-03 0. -1.
       22    1    1    2    0    0  0.35004682246E-02  0.17760621281E-02  0.34701394753E-01  0.34922692798E-01  0.00000000000E+00 0.  1.
       22    1    1    2    0    0 -0.39416899630E-02 -0.13204742046E-02 -0.33013520417E-01  0.33274210768E-01  0.00000000000E+00 0. -1.
       22    1    1    2    0    0  0.44122173842E-03 -0.45558792350E-03 -0.16878743356E-02  0.18030964343E-02  0.00000000000E+00 0.  1.
</event>
<event>
 5   0  0.4143600E+04  0.9118800E+02  0.7546771E-02  0.1180000E+00
      -11   -1    0    0    0    0  0.00000000000E+00  0.00000000000E+00  0.34996269501E-01  0.35000000000E-01  0.51099999109E-03 0. -1.
       11   -1    0    0    0    0 -0.00000000000E+00 -0.00000000000E+00 -0.34996269501E-01  0.35000000000E-01  0.51099999109E-03 0.  1.
       22    1    1    2    0    0 -0.47249620791E-02 -0.16118334640E-01  0.30664333417E-01  0.34963228142E-01  0.00000000000E+00 0. -1.
       22    1    1    2    0    0  0.46662715326E-02  0.16135084261E-01 -0.30100347803E-01  0.34469493352E-01  0.00000000000E+00 0.  1.
       22    1    1    2    0    0  0.58690546528E-04 -0.16749620821E-04 -0.56398561401E-03  0.56727850555E-03  0.00000000000E+00 0.  1.
</event>
<event>
 5   0  0.4143600E+04  0.9118800E+02  0.7546771E-02  0.1180000E+00
      -11   -1    0    0    0    0  0.00000000000E+00  0.00000000000E+00  0.34996269501E-01  0.35000000000E-01  0.51099999109E-03 0.  1.
       11   -1    0    0    0    0 -0.00000000000E+00 -0.00000000000E+00 -0.34996269501E-01  0.35000000000E-01  0.51099999109E-03 0. -1.
       22    1    1    2    0    0  0.10911338193E-01 -0.68257376223E-02 -0.25961378811E-01  0.28976562685E-01  0.00000000000E+00 0. -1.
       22    1    1    2    0    0 -0.12282451771E-01 -0.62252350128E-02  0.22916451946E-02  0.13959362814E-01  0.00000000000E+00 0.  1.
       22    1    1    2    0    0  0.13711135778E-02  0.13050972635E-01  0.23669733616E-01  0.27064074502E-01  0.00000000000E+00 0.  1.
</event>
<event>
 5   0  0.4143600E+04  0.9118800E+02  0.7546771E-02  0.1180000E+00
      -11   -1    0    0    0    0  0.00000000000E+00  0.00000000000E+00  0.34996269501E-01  0.35000000000E-01  0.51099999109E-03 0.  1.
       11   -1    0    0    0    0 -0.00000000000E+00 -0.00000000000E+00 -0.34996269501E-01  0.35000000000E-01  0.51099999109E-03 0. -1.
       22    1    1    2    0    0 -0.16884971535E-01 -0.51144812599E-03  0.19547241457E-01  0.25835218046E-01  0.00000000000E+00 0.  1.
       22    1    1    2    0    0  0.17738349211E-01 -0.53507033641E-03 -0.29334498740E-01  0.34284809308E-01  0.00000000000E+00 0. -1.
       22    1    1    2    0    0 -0.85337767614E-03  0.10465184624E-02  0.97872572833E-02  0.98799726457E-02  0.00000000000E+00 0.  1.
</event>
<event>
 5   0  0.4143600E+04  0.9118800E+02  0.7546771E-02  0.1180000E+00
      -11   -1    0    0    0    0  0.00000000000E+00  0.00000000000E+00  0.34996269501E-01  0.35000000000E-01  0.51099999109E-03 0.  1.
       11   -1    0    0    0    0 -0.00000000000E+00 -0.00000000000E+00 -0.34996269501E-01  0.35000000000E-01  0.51099999109E-03 0. -1.
       22    1    1    2    0    0  0.49509256500E-03 -0.46221888379E-04 -0.62255073100E-03  0.79675750612E-03  0.00000000000E+00 0. -1.
       22    1    1    2    0    0 -0.99599248411E-03  0.50196962767E-03 -0.34277990802E-01  0.34296131384E-01  0.00000000000E+00 0. -1.
       22    1    1    2    0    0  0.50089991911E-03 -0.45574773929E-03  0.34900541533E-01  0.34907111109E-01  0.00000000000E+00 0.  1.
</event>
<event>
 5   0  0.4143600E+04  0.9118800E+02  0.7546771E-02  0.1180000E+00
      -11   -1    0    0    0    0  0.00000000000E+00  0.00000000000E+00  0.34996269501E-01  0.35000000000E-01  0.51099999109E-03 0. -1.
       11   -1    0    0    0    0 -0.00000000000E+00 -0.00000000000E+00 -0.34996269501E-01  0.35000000000E-01  0.51099999109E-03 0. -1.
       22    1    1    2    0    0  0.11669120682E-03 -0.27174307179E-03  0.34677510945E-01  0.34678771986E-01  0.00000000000E+00 0. -1.
       22    1    1    2    0    0  0.77465324319E-04 -0.26268241925E-02 -0.26739612380E-01  0.26868440156E-01  0.00000000000E+00 0. -1.
       22    1    1    2    0    0 -0.19415653114E-03  0.28985672643E-02 -0.79378985647E-02  0.84527878577E-02  0.00000000000E+00 0.  1.
</event>
<event>
 5   0  0.4143600E+04  0.9118800E+02  0.7546771E-02  0.1180000E+00
      -11   -1    0    0    0    0  0.00000000000E+00  0.00000000000E+00  0.34996269501E-01  0.35000000000E-01  0.51099999109E-03 0. -1.
       11   -1    0    0    0    0 -0.00000000000E+00 -0.00000000000E+00 -0.34996269501E-01  0.35000000000E-01  0.51099999109E-03 0.  1.
       22    1    1    2    0    0 -0.41277652759E-02 -0.63352780843E-02 -0.20686240033E-01  0.22024865976E-01  0.00000000000E+00 0.  1.
       22    1    1    2    0    0  0.31531521839E-02  0.96031329708E-02  0.33356369360E-01  0.34854123263E-01  0.00000000000E+00 0. -1.
       22    1    1    2    0    0  0.97461309201E-03 -0.32678548865E-02 -0.12670129327E-01  0.13121010761E-01  0.00000000000E+00 0.  1.
</event>
<event>
 5   0  0.4143600E+04  0.9118800E+02  0.7546771E-02  0.1180000E+00
      -11   -1    0    0    0    0  0.00000000000E+00  0.00000000000E+00  0.34996269501E-01  0.35000000000E-01  0.51099999109E-03 0.  1.
       11   -1    0    0    0    0 -0.00000000000E+00 -0.00000000000E+00 -0.34996269501E-01  0.35000000000E-01  0.51099999109E-03 0. -1.
       22    1    1    2    0    0 -0.12295501361E-01  0.14082111576E-01  0.19292410538E-01  0.26864145706E-01  0.00000000000E+00 0.  1.
       22    1    1    2    0    0 -0.68974843989E-03  0.40664862731E-03  0.88701296126E-02  0.89061953359E-02  0.00000000000E+00 0.  1.
       22    1    1    2    0    0  0.12985249801E-01 -0.14488760203E-01 -0.28162540151E-01  0.34229658958E-01  0.00000000000E+00 0. -1.
</event>
<event>
 5   0  0.4143600E+04  0.9118800E+02  0.7546771E-02  0.1180000E+00
      -11   -1    0    0    0    0  0.00000000000E+00  0.00000000000E+00  0.34996269501E-01  0.35000000000E-01  0.51099999109E-03 0. -1.
       11   -1    0    0    0    0 -0.00000000000E+00 -0.00000000000E+00 -0.34996269501E-01  0.35000000000E-01  0.51099999109E-03 0.  1.
       22    1    1    2    0    0 -0.62951245973E-04 -0.20928715231E-03 -0.21740886546E-02  0.21850458690E-02  0.00000000000E+00 0.  1.
       22    1    1    2    0    0  0.88320117933E-02  0.12737860354E-01 -0.29117663303E-01  0.32986297684E-01  0.00000000000E+00 0.  1.
       22    1    1    2    0    0 -0.87690605473E-02 -0.12528573201E-01  0.31291751957E-01  0.34828656447E-01  0.00000000000E+00 0. -1.
</event>
<event>
 5   0  0.4143600E+04  0.9118800E+02  0.7546771E-02  0.1180000E+00
      -11   -1    0    0    0    0  0.00000000000E+00  0.00000000000E+00  0.34996269501E-01  0.35000000000E-01  0.51099999109E-03 0. -1.
       11   -1    0    0    0    0 -0.00000000000E+00 -0.00000000000E+00 -0.34996269501E-01  0.35000000000E-01  0.51099999109E-03 0.  1.
       22    1    1    2    0    0 -0.15889663731E-01 -0.15955241385E-01 -0.26559151500E-01  0.34820104387E-01  0.00000000000E+00 0. -1.
       22    1    1    2    0    0  0.15841894911E-01  0.15950423299E-01  0.25004468614E-01  0.33624471571E-01  0.00000000000E+00 0.  1.
       22    1    1    2    0    0  0.47768820150E-04  0.48180866233E-05  0.15546828855E-02  0.15554240414E-02  0.00000000000E+00 0.  1.
</event>
<event>
 5   0  0.4143600E+04  0.9118800E+02  0.7546771E-02  0.1180000E+00
      -11   -1    0    0    0    0  0.00000000000E+00  0.00000000000E+00  0.34996269501E-01  0.35000000000E-01  0.51099999109E-03 0.  1.
       11   -1    0    0    0    0 -0.00000000000E+00 -0.00000000000E+00 -0.34996269501E-01  0.35000000000E-01  0.51099999109E-03 0. -1.
       22    1    1    2    0    0 -0.96094535758E-02  0.92088996568E-02 -0.26629368583E-01  0.29770265401E-01  0.00000000000E+00 0. -1.
       22    1    1    2    0    0  0.44937256429E-04  0.25481304658E-03 -0.54430796877E-02  0.54492261407E-02  0.00000000000E+00 0. -1.
       22    1    1    2    0    0  0.95645163193E-02 -0.94637127034E-02  0.32072448271E-01  0.34780508458E-01  0.00000000000E+00 0.  1.
</event>
<event>
 5   0  0.4143600E+04  0.9118800E+02  0.7546771E-02  0.1180000E+00
      -11   -1    0    0    0    0  0.00000000000E+00  0.00000000000E+00  0.34996269501E-01  0.35000000000E-01  0.51099999109E-03 0. -1.
       11   -1    0    0    0    0 -0.00000000000E+00 -0.00000000000E+00 -0.34996269501E-01  0.35000000000E-01  0.51099999109E-03 0.  1.
       22    1    1    2    0    0  0.10171078233E-01  0.17238406307E-01 -0.27369968495E-01  0.33907648988E-01  0.00000000000E+00 0.  1.
       22    1    1    2    0    0 -0.10271421462E-01 -0.16921563138E-01  0.18119005506E-01  0.26835419848E-01  0.00000000000E+00 0. -1.
       22    1    1    2    0    0  0.10034322898E-03 -0.31684316911E-03  0.92509629890E-02  0.92569311643E-02  0.00000000000E+00 0.  1.
</event>
<event>
 5   0  0.4143600E+04  0.9118800E+02  0.7546771E-02  0.1180000E+00
      -11   -1    0    0    0    0  0.00000000000E+00  0.00000000000E+00  0.34996269501E-01  0.35000000000E-01  0.51099999109E-03 0. -1.
       11   -1    0    0    0    0 -0.00000000000E+00 -0.00000000000E+00 -0.34996269501E-01  0.35000000000E-01  0.51099999109E-03 0.  1.
       22    1    1    2    0    0  0.16062596510E-01  0.11334303188E-01 -0.27994574227E-01  0.34207742129E-01  0.00000000000E+00 0.  1.
       22    1    1    2    0    0 -0.48663665202E-03  0.15235518648E-02  0.49850466319E-03  0.16752708482E-02  0.00000000000E+00 0. -1.
       22    1    1    2    0    0 -0.15575959858E-01 -0.12857855053E-01  0.27496069564E-01  0.34116987023E-01  0.00000000000E+00 0. -1.
</event>
<event>
 5   0  0.4143600E+04  0.9118800E+02  0.7546771E-02  0.1180000E+00
      -11   -1    0    0    0    0  0.00000000000E+00  0.00000000000E+00  0.34996269501E-01  0.35000000000E-01  0.51099999109E-03 0. -1.
       11   -1    0    0    0    0 -0.00000000000E+00 -0.00000000000E+00 -0.34996269501E-01  0.35000000000E-01  0.51099999109E-03 0.  1.
       22    1    1    2    0    0 -0.80205437776E-02 -0.31161973565E-03  0.32455857162E-01  0.33433649120E-01  0.00000000000E+00 0. -1.
       22    1    1    2    0    0  0.28139304334E-03 -0.44617888066E-02 -0.23066609562E-01  0.23495855338E-01  0.00000000000E+00 0.  1.
       22    1    1    2    0    0  0.77391507343E-02  0.47734085423E-02 -0.93892476007E-02  0.13070495542E-01  0.00000000000E+00 0.  1.
</event>
<event>
 5   0  0.4143600E+04  0.9118800E+02  0.7546771E-02  0.1180000E+00
      -11   -1    0    0    0    0  0.00000000000E+00  0.00000000000E+00  0.34996269501E-01  0.35000000000E-01  0.51099999109E-03 0.  1.
       11   -1    0    0    0    0 -0.00000000000E+00 -0.00000000000E+00 -0.34996269501E-01  0.35000000000E-01  0.51099999109E-03 0. -1.
       22    1    1    2    0    0  0.84059379319E-02  0.20018432366E-01 -0.27394417541E-01  0.34954993053E-01  0.00000000000E+00 0. -1.
       22    1    1    2    0    0 -0.84101388209E-02 -0.20031588245E-01  0.27022835319E-01  0.34673168175E-01  0.00000000000E+00 0.  1.
       22    1    1    2    0    0  0.42008890230E-05  0.13155879483E-04  0.37158222213E-03  0.37183877210E-03  0.00000000000E+00 0. -1.
</event>
<event>
 5   0  0.4143600E+04  0.9118800E+02  0.7546771E-02  0.1180000E+00
      -11   -1    0    0    0    0  0.00000000000E+00  0.00000000000E+00  0.34996269501E-01  0.35000000000E-01  0.51099999109E-03 0. -1.
       11   -1    0    0    0    0 -0.00000000000E+00 -0.00000000000E+00 -0.34996269501E-01  0.35000000000E-01  0.51099999109E-03 0. -1.
       22    1    1    2    0    0  0.47400229212E-02 -0.13525518967E-01  0.17884641023E-01  0.22918723026E-01  0.00000000000E+00 0.  1.
       22    1    1    2    0    0  0.00000000000E+00  0.00000000000E+00  0.13018002970E-01  0.13016913097E-01  0.00000000000E+00 0. -1.
       22    1    1    2    0    0 -0.47400229212E-02  0.13525518967E-01 -0.30902643993E-01  0.34064363878E-01  0.00000000000E+00 0. -1.
</event>
<event>
 5   0  0.4143600E+04  0.9118800E+02  0.7546771E-02  0.1180000E+00
      -11   -1    0    0    0    0  0.00000000000E+00  0.00000000000E+00  0.34996269501E-01  0.35000000000E-01  0.51099999109E-03 0. -1.
       11   -1    0    0    0    0 -0.00000000000E+00 -0.00000000000E+00 -0.34996269501E-01  0.35000000000E-01  0.51099999109E-03 0.  1.
       22    1    1    2    0    0  0.11219316102E-01  0.35390237216E-02 -0.32469456418E-01  0.34534958271E-01  0.00000000000E+00 0.  1.
       22    1    1    2    0    0 -0.11174034325E-01 -0.33933584484E-02  0.32951402306E-01  0.34959531442E-01  0.00000000000E+00 0. -1.
       22    1    1    2    0    0 -0.45281777191E-04 -0.14566527323E-03 -0.48194588809E-03  0.50551028696E-03  0.00000000000E+00 0.  1.
</event>
<event>
 5   0  0.4143600E+04  0.9118800E+02  0.7546771E-02  0.1180000E+00
      -11   -1    0    0    0    0  0.00000000000E+00  0.00000000000E+00  0.34996269501E-01  0.35000000000E-01  0.51099999109E-03 0.  1.
       11   -1    0    0    0    0 -0.00000000000E+00 -0.00000000000E+00 -0.34996269501E-01  0.35000000000E-01  0.51099999109E-03 0. -1.
       22    1    1    2    0    0 -0.37860704125E-03 -0.22688052660E-03  0.16384546006E-02  0.16968652107E-02  0.00000000000E+00 0.  1.
       22    1    1    2    0    0  0.22121171985E-01 -0.69135783789E-02 -0.26032679034E-01  0.34854615099E-01  0.00000000000E+00 0. -1.
       22    1    1    2    0    0 -0.21742564944E-01  0.71404589055E-02  0.24394224434E-01  0.33448519690E-01  0.00000000000E+00 0.  1.
</event>
<event>
 5   0  0.4143600E+04  0.9118800E+02  0.7546771E-02  0.1180000E+00
      -11   -1    0    0    0    0  0.00000000000E+00  0.00000000000E+00  0.34996269501E-01  0.35000000000E-01  0.51099999109E-03 0.  1.
       11   -1    0    0    0    0 -0.00000000000E+00 -0.00000000000E+00 -0.34996269501E-01  0.35000000000E-01  0.51099999109E-03 0. -1.
       22    1    1    2    0    0 -0.75761737513E-02  0.10231842238E-01 -0.32593366596E-01  0.34991664012E-01  0.00000000000E+00 0. -1.
       22    1    1    2    0    0  0.26133865491E-04 -0.28106596859E-04  0.41715640119E-03  0.41891815760E-03  0.00000000000E+00 0. -1.
       22    1    1    2    0    0  0.75500398858E-02 -0.10203735641E-01  0.32176210195E-01  0.34589417830E-01  0.00000000000E+00 0.  1.
</event>
<event>
 5   0  0.4143600E+04  0.9118800E+02  0.7546771E-02  0.1180000E+00
      -11   -1    0    0    0    0  0.00000000000E+00  0.00000000000E+00  0.34996269501E-01  0.35000000000E-01  0.51099999109E-03 0. -1.
       11   -1    0    0    0    0 -0.00000000000E+00 -0.00000000000E+00 -0.34996269501E-01  0.35000000000E-01  0.51099999109E-03 0.  1.
       22    1    1    2    0    0 -0.46864212360E-02  0.14461653829E-01 -0.30797937311E-01  0.34345522533E-01  0.00000000000E+00 0.  1.
       22    1    1    2    0    0  0.47465184549E-02 -0.14354162696E-01  0.31500763575E-01  0.34940943461E-01  0.00000000000E+00 0. -1.
       22    1    1    2    0    0 -0.60097218878E-04 -0.10749113311E-03 -0.70282626457E-03  0.71353400591E-03  0.00000000000E+00 0.  1.
</event>
<event>
 5   0  0.4143600E+04  0.9118800E+02  0.7546771E-02  0.1180000E+00
      -11   -1    0    0    0    0  0.00000000000E+00  0.00000000000E+00  0.34996269501E-01  0.35000000000E-01  0.51099999109E-03 0. -1.
       11   -1    0    0    0    0 -0.00000000000E+00 -0.00000000000E+00 -0.34996269501E-01  0.35000000000E-01  0.51099999109E-03 0.  1.
       22    1    1    2    0    0  0.12039514787E-01 -0.88439860567E-02  0.24621180205E-01  0.28798759007E-01  0.00000000000E+00 0. -1.
       22    1    1    2    0    0 -0.12421023243E-01  0.88047142684E-02 -0.31144442157E-01  0.34666714425E-01  0.00000000000E+00 0.  1.
       22    1    1    2    0    0  0.38150845609E-03  0.39271788253E-04  0.65232619519E-02  0.65345265680E-02  0.00000000000E+00 0. -1.
</event>
<event>
 5   0  0.4143600E+04  0.9118800E+02  0.7546771E-02  0.1180000E+00
      -11   -1    0    0    0    0  0.00000000000E+00  0.00000000000E+00  0.34996269501E-01  0.35000000000E-01  0.51099999109E-03 0. -1.
       11   -1    0    0    0    0 -0.00000000000E+00 -0.00000000000E+00 -0.34996269501E-01  0.35000000000E-01  0.51099999109E-03 0.  1.
       22    1    1    2    0    0  0.15343877299E-03 -0.26088417122E-04 -0.27805485317E-03  0.31865116340E-03  0.00000000000E+00 0.  1.
       22    1    1    2    0    0 -0.18421120394E-02  0.25525015988E-02  0.34842086281E-01  0.34983990875E-01  0.00000000000E+00 0. -1.
       22    1    1    2    0    0  0.16886732664E-02 -0.25264131817E-02 -0.34564031428E-01  0.34697357961E-01  0.00000000000E+00 0.  1.
</event>
<event>
 5   0  0.4143600E+04  0.9118800E+02  0.7546771E-02  0.1180000E+00
      -11   -1    0    0    0    0  0.00000000000E+00  0.00000000000E+00  0.34996269501E-01  0.35000000000E-01  0.51099999109E-03 0.  1.
       11   -1    0    0    0    0 -0.00000000000E+00 -0.00000000000E+00 -0.34996269501E-01  0.35000000000E-01  0.51099999109E-03 0. -1.
       22    1    1    2    0    0  0.48058184177E-02 -0.27531528106E-02 -0.34025910655E-01  0.34473734016E-01  0.00000000000E+00 0. -1.
       22    1    1    2    0    0 -0.46559855373E-02  0.29040398911E-02  0.34538302639E-01  0.34971502658E-01  0.00000000000E+00 0.  1.
       22    1    1    2    0    0 -0.14983288039E-03 -0.15088708049E-03 -0.51239198368E-03  0.55476332615E-03  0.00000000000E+00 0.  1.
</event>
<event>
 5   0  0.4143600E+04  0.9118800E+02  0.7546771E-02  0.1180000E+00
      -11   -1    0    0    0    0  0.00000000000E+00  0.00000000000E+00  0.34996269501E-01  0.35000000000E-01  0.51099999109E-03 0.  1.
       11   -1    0    0    0    0 -0.00000000000E+00 -0.00000000000E+00 -0.34996269501E-01  0.35000000000E-01  0.51099999109E-03 0. -1.
       22    1    1    2    0    0 -0.10077404790E-02  0.17027947955E-01 -0.28459238846E-01  0.33179735203E-01  0.00000000000E+00 0. -1.
       22    1    1    2    0    0  0.44186390304E-03 -0.19111062018E-01  0.28867764314E-01  0.34623341139E-01  0.00000000000E+00 0.  1.
       22    1    1    2    0    0  0.56587657594E-03  0.20831140636E-02 -0.40852546731E-03  0.21969236579E-02  0.00000000000E+00 0.  1.
</event>
<event>
 5   0  0.4143600E+04  0.9118800E+02  0.7546771E-02  0.1180000E+00
      -11   -1    0    0    0    0  0.00000000000E+00  0.00000000000E+00  0.34996269501E-01  0.35000000000E-01  0.51099999109E-03 0. -1.
       11   -1    0    0    0    0 -0.00000000000E+00 -0.00000000000E+00 -0.34996269501E-01  0.35000000000E-01  0.51099999109E-03 0.  1.
       22    1    1    2    0    0  0.45850325274E-04  0.18625149991E-03 -0.52787183461E-03  0.56164094164E-03  0.00000000000E+00 0.  1.
       22    1    1    2    0    0  0.27894828341E-01  0.10709453655E-01  0.17849535942E-01  0.34805456168E-01  0.00000000000E+00 0. -1.
       22    1    1    2    0    0 -0.27940678666E-01 -0.10895705155E-01 -0.17321664107E-01  0.34632902890E-01  0.00000000000E+00 0.  1.
</event>
<event>
 5   0  0.4143600E+04  0.9118800E+02  0.7546771E-02  0.1180000E+00
      -11   -1    0    0    0    0  0.00000000000E+00  0.00000000000E+00  0.34996269501E-01  0.35000000000E-01  0.51099999109E-03 0.  1.
       11   -1    0    0    0    0 -0.00000000000E+00 -0.00000000000E+00 -0.34996269501E-01  0.35000000000E-01  0.51099999109E-03 0. -1.
       22    1    1    2    0    0 -0.13434052069E-01 -0.34545523407E-02 -0.32125298186E-01  0.34992034385E-01  0.00000000000E+00 0. -1.
       22    1    1    2    0    0  0.25092229160E-04  0.11240795606E-04  0.30901150565E-03  0.31023230985E-03  0.00000000000E+00 0. -1.
       22    1    1    2    0    0  0.13408959840E-01  0.34433115451E-02  0.31816286680E-01  0.34697733305E-01  0.00000000000E+00 0.  1.
</event>
<event>
 5   0  0.4143600E+04  0.9118800E+02  0.7546771E-02  0.1180000E+00
      -11   -1    0    0    0    0  0.00000000000E+00  0.00000000000E+00  0.34996269501E-01  0.35000000000E-01  0.51099999109E-03 0.  1.
       11   -1    0    0    0    0 -0.00000000000E+00 -0.00000000000E+00 -0.34996269501E-01  0.35000000000E-01  0.51099999109E-03 0. -1.
       22    1    1    2    0    0  0.22147665454E-02  0.15088829031E-02  0.34875791533E-01  0.34978604225E-01  0.00000000000E+00 0.  1.
       22    1    1    2    0    0 -0.23154895478E-02 -0.13329357632E-02 -0.34407849197E-01  0.34511422688E-01  0.00000000000E+00 0. -1.
       22    1    1    2    0    0  0.10072300245E-03 -0.17594713986E-03 -0.46794233599E-03  0.50997308661E-03  0.00000000000E+00 0. -1.
</event>
<event>
 5   0  0.4143600E+04  0.9118800E+02  0.7546771E-02  0.1180000E+00
      -11   -1    0    0    0    0  0.00000000000E+00  0.00000000000E+00  0.34996269501E-01  0.35000000000E-01  0.51099999109E-03 0.  1.
       11   -1    0    0    0    0 -0.00000000000E+00 -0.00000000000E+00 -0.34996269501E-01  0.35000000000E-01  0.51099999109E-03 0. -1.
       22    1    1    2    0    0 -0.70409413407E-02  0.14392472490E-01  0.30849982134E-01  0.34762616659E-01  0.00000000000E+00 0.  1.
       22    1    1    2    0    0  0.50358974947E-03 -0.42026469561E-03  0.92951651285E-04  0.66246891220E-03  0.00000000000E+00 0. -1.
       22    1    1    2    0    0  0.65373515912E-02 -0.13972207794E-01 -0.30942933785E-01  0.34574914428E-01  0.00000000000E+00 0. -1.
</event>
<event>
 5   0  0.4143600E+04  0.9118800E+02  0.7546771E-02  0.1180000E+00
      -11   -1    0    0    0    0  0.00000000000E+00  0.00000000000E+00  0.34996269501E-01  0.35000000000E-01  0.51099999109E-03 0. -1.
       11   -1    0    0    0    0 -0.00000000000E+00 -0.00000000000E+00 -0.34996269501E-01  0.35000000000E-01  0.51099999109E-03 0.  1.
       22    1    1    2    0    0 -0.17491407203E-05 -0.42086363030E-04  0.27605979149E-02  0.27609192616E-02  0.00000000000E+00 0.  1.
       22    1    1    2    0    0  0.71442823505E-03 -0.23351536283E-01  0.22756652053E-01  0.32613952032E-01  0.00000000000E+00 0. -1.
       22    1    1    2    0    0 -0.71267909433E-03  0.23393622646E-01 -0.25517249968E-01  0.34625128706E-01  0.00000000000E+00 0.  1.
</event>
<event>
 5   0  0.4143600E+04  0.9118800E+02  0.7546771E-02  0.1180000E+00
      -11   -1    0    0    0    0  0.00000000000E+00  0.00000000000E+00  0.34996269501E-01  0.35000000000E-01  0.51099999109E-03 0. -1.
       11   -1    0    0    0    0 -0.00000000000E+00 -0.00000000000E+00 -0.34996269501E-01  0.35000000000E-01  0.51099999109E-03 0.  1.
       22    1    1    2    0    0 -0.24926185931E-01 -0.11008561765E-01 -0.11766578592E-01  0.29680895353E-01  0.00000000000E+00 0.  1.
       22    1    1    2    0    0  0.27013790892E-01  0.12723565792E-01  0.17049896092E-01  0.34385069166E-01  0.00000000000E+00 0. -1.
       22    1    1    2    0    0 -0.20876049609E-02 -0.17150040268E-02 -0.52833174996E-02  0.59340354808E-02  0.00000000000E+00 0.  1.
</event>
<event>
 5   0  0.4143600E+04  0.9118800E+02  0.7546771E-02  0.1180000E+00
      -11   -1    0    0    0    0  0.00000000000E+00  0.00000000000E+00  0.34996269501E-01  0.35000000000E-01  0.51099999109E-03 0. -1.
       11   -1    0    0    0    0 -0.00000000000E+00 -0.00000000000E+00 -0.34996269501E-01  0.35000000000E-01  0.51099999109E-03 0.  1.
       22    1    1    2    0    0 -0.24991142276E-02  0.29257776496E-02  0.34347446412E-01  0.34562303480E-01  0.00000000000E+00 0. -1.
       22    1    1    2    0    0  0.25609393518E-02 -0.47628656980E-03 -0.31787642628E-01  0.31894191996E-01  0.00000000000E+00 0.  1.
       22    1    1    2    0    0 -0.61825124200E-04 -0.24494910798E-02 -0.25598037843E-02  0.35435045238E-02  0.00000000000E+00 0.  1.
</event>
<event>
 5   0  0.4143600E+04  0.9118800E+02  0.7546771E-02  0.1180000E+00
      -11   -1    0    0    0    0  0.00000000000E+00  0.00000000000E+00  0.34996269501E-01  0.35000000000E-01  0.51099999109E-03 0. -1.
       11   -1    0    0    0    0 -0.00000000000E+00 -0.00000000000E+00 -0.34996269501E-01  0.35000000000E-01  0.51099999109E-03 0.  1.
       22    1    1    2    0    0  0.41993410814E-03 -0.11353713976E-01  0.30244111258E-01  0.32307730213E-01  0.00000000000E+00 0. -1.
       22    1    1    2    0    0  0.60088710664E-03 -0.55576029724E-03  0.26078650651E-02  0.27332938043E-02  0.00000000000E+00 0. -1.
       22    1    1    2    0    0 -0.10208212148E-02  0.11909474274E-01 -0.32851976323E-01  0.34958975983E-01  0.00000000000E+00 0.  1.
</event>
<event>
 5   0  0.4143600E+04  0.9118800E+02  0.7546771E-02  0.1180000E+00
      -11   -1    0    0    0    0  0.00000000000E+00  0.00000000000E+00  0.34996269501E-01  0.35000000000E-01  0.51099999109E-03 0.  1.
       11   -1    0    0    0    0 -0.00000000000E+00 -0.00000000000E+00 -0.34996269501E-01  0.35000000000E-01  0.51099999109E-03 0. -1.
       22    1    1    2    0    0 -0.11800440100E-01  0.31875275265E-02  0.28906864136E-01  0.31384988648E-01  0.00000000000E+00 0.  1.
       22    1    1    2    0    0  0.56773508645E-03 -0.12017316845E-02  0.37736967881E-02  0.40009085991E-02  0.00000000000E+00 0. -1.
       22    1    1    2    0    0  0.11232705014E-01 -0.19857958421E-02 -0.32680560924E-01  0.34614102752E-01  0.00000000000E+00 0. -1.
</event>
<event>
 5   0  0.4143600E+04  0.9118800E+02  0.7546771E-02  0.1180000E+00
      -11   -1    0    0    0    0  0.00000000000E+00  0.00000000000E+00  0.34996269501E-01  0.35000000000E-01  0.51099999109E-03 0. -1.
       11   -1    0    0    0    0 -0.00000000000E+00 -0.00000000000E+00 -0.34996269501E-01  0.35000000000E-01  0.51099999109E-03 0.  1.
       22    1    1    2    0    0  0.20008499169E-01 -0.80952179896E-02 -0.26441941890E-01  0.34132812427E-01  0.00000000000E+00 0.  1.
       22    1    1    2    0    0 -0.83878866482E-04  0.18223540188E-04 -0.10014141102E-02  0.10050860569E-02  0.00000000000E+00 0. -1.
       22    1    1    2    0    0 -0.19924620302E-01  0.80769944494E-02  0.27443356000E-01  0.34862101516E-01  0.00000000000E+00 0. -1.
</event>
<event>
 5   0  0.4143600E+04  0.9118800E+02  0.7546771E-02  0.1180000E+00
      -11   -1    0    0    0    0  0.00000000000E+00  0.00000000000E+00  0.34996269501E-01  0.35000000000E-01  0.51099999109E-03 0. -1.
       11   -1    0    0    0    0 -0.00000000000E+00 -0.00000000000E+00 -0.34996269501E-01  0.35000000000E-01  0.51099999109E-03 0.  1.
       22    1    1    2    0    0  0.20590498836E-01  0.37424497854E-02  0.15205703258E-01  0.25868668004E-01  0.00000000000E+00 0. -1.
       22    1    1    2    0    0 -0.19710716615E-01 -0.39001171053E-02 -0.26246435724E-01  0.33054480046E-01  0.00000000000E+00 0.  1.
       22    1    1    2    0    0 -0.87978222114E-03  0.15766731992E-03  0.11040732466E-01  0.11076851950E-01  0.00000000000E+00 0. -1.
</event>
<event>
 5   0  0.4143600E+04  0.9118800E+02  0.7546771E-02  0.1180000E+00
      -11   -1    0    0    0    0  0.00000000000E+00  0.00000000000E+00  0.34996269501E-01  0.35000000000E-01  0.51099999109E-03 0.  1.
       11   -1    0    0    0    0 -0.00000000000E+00 -0.00000000000E+00 -0.34996269501E-01  0.35000000000E-01  0.51099999109E-03 0. -1.
       22    1    1    2    0    0  0.67288535035E-03 -0.23861390562E-02 -0.34241978739E-01  0.34331611414E-01  0.00000000000E+00 0. -1.
       22    1    1    2    0    0  0.32635287038E-03 -0.26065418055E-03 -0.58935481254E-03  0.72234748765E-03  0.00000000000E+00 0.  1.
       22    1    1    2    0    0 -0.99923822073E-03  0.26467932368E-02  0.34831333552E-01  0.34946041099E-01  0.00000000000E+00 0.  1.
</event>
<event>
 5   0  0.4143600E+04  0.9118800E+02  0.7546771E-02  0.1180000E+00
      -11   -1    0    0    0    0  0.00000000000E+00  0.00000000000E+00  0.34996269501E-01  0.35000000000E-01  0.51099999109E-03 0.  1.
       11   -1    0    0    0    0 -0.00000000000E+00 -0.00000000000E+00 -0.34996269501E-01  0.35000000000E-01  0.51099999109E-03 0. -1.
       22    1    1    2    0    0 -0.18830629457E-01 -0.10952102712E-01 -0.26032684311E-01  0.33944687537E-01  0.00000000000E+00 0. -1.
       22    1    1    2    0    0  0.72117688030E-02  0.11046442457E-01  0.15696530706E-01  0.20504013667E-01  0.00000000000E+00 0.  1.
       22    1    1    2    0    0  0.11618860654E-01 -0.94339745758E-04  0.10336153605E-01  0.15551298796E-01  0.00000000000E+00 0.  1.
</event>
<event>
 5   0  0.4143600E+04  0.9118800E+02  0.7546771E-02  0.1180000E+00
      -11   -1    0    0    0    0  0.00000000000E+00  0.00000000000E+00  0.34996269501E-01  0.35000000000E-01  0.51099999109E-03 0.  1.
       11   -1    0    0    0    0 -0.00000000000E+00 -0.00000000000E+00 -0.34996269501E-01  0.35000000000E-01  0.51099999109E-03 0. -1.
       22    1    1    2    0    0 -0.14468186856E-01  0.96317933322E-03  0.31627281439E-01  0.34792830821E-01  0.00000000000E+00 0.  1.
       22    1    1    2    0    0  0.14074710337E-02 -0.24790370610E-03 -0.62761903997E-03  0.15608768746E-02  0.00000000000E+00 0.  1.
       22    1    1    2    0    0  0.13060715822E-01 -0.71527562712E-03 -0.30999662399E-01  0.33646292305E-01  0.00000000000E+00 0. -1.
</event>
<event>
 5   0  0.4143600E+04  0.9118800E+02  0.7546771E-02  0.1180000E+00
      -11   -1    0    0    0    0  0.00000000000E+00  0.00000000000E+00  0.34996269501E-01  0.35000000000E-01  0.51099999109E-03 0. -1.
       11   -1    0    0    0    0 -0.00000000000E+00 -0.00000000000E+00 -0.34996269501E-01  0.35000000000E-01  0.51099999109E-03 0.  1.
       22    1    1    2    0    0  0.20807632733E-01 -0.12577139185E-01 -0.24726212750E-01  0.34677479825E-01  0.00000000000E+00 0.  1.
       22    1    1    2    0    0  0.97419038375E-04 -0.50349163398E-04 -0.32094974160E-03  0.33916698531E-03  0.00000000000E+00 0.  1.
       22    1    1    2    0    0 -0.20905051772E-01  0.12627488348E-01  0.25047162491E-01  0.34983353190E-01  0.00000000000E+00 0. -1.
</event>
<event>
 5   0  0.4143600E+04  0.9118800E+02  0.7546771E-02  0.1180000E+00
      -11   -1    0    0    0    0  0.00000000000E+00  0.00000000000E+00  0.34996269501E-01  0.35000000000E-01  0.51099999109E-03 0. -1.
       11   -1    0    0    0    0 -0.00000000000E+00 -0.00000000000E+00 -0.34996269501E-01  0.35000000000E-01  0.51099999109E-03 0.  1.
       22    1    1    2    0    0 -0.12347152878E-04  0.10675098211E-04  0.11585445265E-02  0.11586594969E-02  0.00000000000E+00 0.  1.
       22    1    1    2    0    0  0.68585195078E-02  0.10071851629E-01 -0.32769886646E-01  0.34962078827E-01  0.00000000000E+00 0.  1.
       22    1    1    2    0    0 -0.68461723550E-02 -0.10082526727E-01  0.31611342120E-01  0.33879261676E-01  0.00000000000E+00 0. -1.
</event>
<event>
 5   0  0.4143600E+04  0.9118800E+02  0.7546771E-02  0.1180000E+00
      -11   -1    0    0    0    0  0.00000000000E+00  0.00000000000E+00  0.34996269501E-01  0.35000000000E-01  0.51099999109E-03 0. -1.
       11   -1    0    0    0    0 -0.00000000000E+00 -0.00000000000E+00 -0.34996269501E-01  0.35000000000E-01  0.51099999109E-03 0.  1.
       22    1    1    2    0    0 -0.33958900735E-02 -0.96355226493E-02 -0.29115550321E-01  0.30855965981E-01  0.00000000000E+00 0.  1.
       22    1    1    2    0    0  0.55487015547E-02  0.95300222998E-02  0.32949406819E-01  0.34745831745E-01  0.00000000000E+00 0. -1.
       22    1    1    2    0    0 -0.21528114812E-02  0.10550034944E-03 -0.38338564978E-02  0.43982022740E-02  0.00000000000E+00 0.  1.
</event>
<event>
 5   0  0.4143600E+04  0.9118800E+02  0.7546771E-02  0.1180000E+00
      -11   -1    0    0    0    0  0.00000000000E+00  0.00000000000E+00  0.34996269501E-01  0.35000000000E-01  0.51099999109E-03 0. -1.
       11   -1    0    0    0    0 -0.00000000000E+00 -0.00000000000E+00 -0.34996269501E-01  0.35000000000E-01  0.51099999109E-03 0.  1.
       22    1    1    2    0    0 -0.45841548966E-02  0.11480031096E-01  0.32675362412E-01  0.34935439010E-01  0.00000000000E+00 0. -1.
       22    1    1    2    0    0 -0.15502275345E-03 -0.21684196422E-02 -0.74579106848E-02  0.77683014605E-02  0.00000000000E+00 0. -1.
       22    1    1    2    0    0  0.47391776500E-02 -0.93116114534E-02 -0.25217451727E-01  0.27296259529E-01  0.00000000000E+00 0.  1.
</event>
<event>
 5   0  0.4143600E+04  0.9118800E+02  0.7546771E-02  0.1180000E+00
      -11   -1    0    0    0    0  0.00000000000E+00  0.00000000000E+00  0.34996269501E-01  0.35000000000E-01  0.51099999109E-03 0. -1.
       11   -1    0    0    0    0 -0.00000000000E+00 -0.00000000000E+00 -0.34996269501E-01  0.35000000000E-01  0.51099999109E-03 0.  1.
       22    1    1    2    0    0  0.21900527955E-02 -0.37144914096E-02 -0.26706350772E-01  0.27052226327E-01  0.00000000000E+00 0.  1.
       22    1    1    2    0    0  0.21284418389E-02  0.17309492664E-02 -0.77210310573E-02  0.81939471936E-02  0.00000000000E+00 0.  1.
       22    1    1    2    0    0 -0.43184946344E-02  0.19835421432E-02  0.34427381829E-01  0.34753826479E-01  0.00000000000E+00 0. -1.
</event>
<event>
 5   0  0.4143600E+04  0.9118800E+02  0.7546771E-02  0.1180000E+00
      -11   -1    0    0    0    0  0.00000000000E+00  0.00000000000E+00  0.34996269501E-01  0.35000000000E-01  0.51099999109E-03 0. -1.
       11   -1    0    0    0    0 -0.00000000000E+00 -0.00000000000E+00 -0.34996269501E-01  0.35000000000E-01  0.51099999109E-03 0.  1.
       22    1    1    2    0    0  0.48502374595E-02 -0.11983242539E-01 -0.32409285461E-01  0.34892473246E-01  0.00000000000E+00 0.  1.
       22    1    1    2    0    0  0.21455147047E-03  0.29066724010E-03  0.97842676499E-04  0.37428995083E-03  0.00000000000E+00 0.  1.
       22    1    1    2    0    0 -0.50647889300E-02  0.11692575299E-01  0.32311442784E-01  0.34733236803E-01  0.00000000000E+00 0. -1.
</event>
<event>
 5   0  0.4143600E+04  0.9118800E+02  0.7546771E-02  0.1180000E+00
      -11   -1    0    0    0    0  0.00000000000E+00  0.00000000000E+00  0.34996269501E-01  0.35000000000E-01  0.51099999109E-03 0. -1.
       11   -1    0    0    0    0 -0.00000000000E+00 -0.00000000000E+00 -0.34996269501E-01  0.35000000000E-01  0.51099999109E-03 0.  1.
       22    1    1    2    0    0  0.81859126662E-04  0.31574780246E-03 -0.85896403725E-03  0.91881271686E-03  0.00000000000E+00 0.  1.
       22    1    1    2    0    0  0.12882851872E-02 -0.26204379770E-02  0.34856246952E-01  0.34978340806E-01  0.00000000000E+00 0. -1.
       22    1    1    2    0    0 -0.13701443138E-02  0.23046901746E-02 -0.33997282915E-01  0.34102846477E-01  0.00000000000E+00 0.  1.
</event>
<event>
 5   0  0.4143600E+04  0.9118800E+02  0.7546771E-02  0.1180000E+00
      -11   -1    0    0    0    0  0.00000000000E+00  0.00000000000E+00  0.34996269501E-01  0.35000000000E-01  0.51099999109E-03 0.  1.
       11   -1    0    0    0    0 -0.00000000000E+00 -0.00000000000E+00 -0.34996269501E-01  0.35000000000E-01  0.51099999109E-03 0. -1.
       22    1    1    2    0    0 -0.30970137032E-03 -0.20088246395E-03 -0.10239082095E-01  0.10245734276E-01  0.00000000000E+00 0. -1.
       22    1    1    2    0    0 -0.13423922578E-01 -0.82310700817E-02 -0.20020401100E-01  0.25470937797E-01  0.00000000000E+00 0. -1.
       22    1    1    2    0    0  0.13733623948E-01  0.84319525456E-02  0.30259483195E-01  0.34283327927E-01  0.00000000000E+00 0.  1.
</event>
<event>
 5   0  0.4143600E+04  0.9118800E+02  0.7546771E-02  0.1180000E+00
      -11   -1    0    0    0    0  0.00000000000E+00  0.00000000000E+00  0.34996269501E-01  0.35000000000E-01  0.51099999109E-03 0.  1.
       11   -1    0    0    0    0 -0.00000000000E+00 -0.00000000000E+00 -0.34996269501E-01  0.35000000000E-01  0.51099999109E-03 0. -1.
       22    1    1    2    0    0 -0.90817509165E-02  0.61188008128E-03 -0.33348102795E-01  0.34568027959E-01  0.00000000000E+00 0. -1.
       22    1    1    2    0    0  0.14641183883E-03  0.10862139921E-03 -0.43928619567E-03  0.47561265398E-03  0.00000000000E+00 0. -1.
       22    1    1    2    0    0  0.89353390777E-02 -0.72050148049E-03  0.33787388990E-01  0.34956359387E-01  0.00000000000E+00 0.  1.
</event>
<event>
 5   0  0.4143600E+04  0.9118800E+02  0.7546771E-02  0.1180000E+00
      -11   -1    0    0    0    0  0.00000000000E+00  0.00000000000E+00  0.34996269501E-01  0.35000000000E-01  0.51099999109E-03 0. -1.
       11   -1    0    0    0    0 -0.00000000000E+00 -0.00000000000E+00 -0.34996269501E-01  0.35000000000E-01  0.51099999109E-03 0.  1.
       22    1    1    2    0    0  0.23077872905E-03 -0.39392618575E-02  0.34530547868E-01  0.34755284187E-01  0.00000000000E+00 0. -1.
       22    1    1    2    0    0  0.17295076762E-02  0.25712141231E-02 -0.29636558231E-01  0.29798119448E-01  0.00000000000E+00 0. -1.
       22    1    1    2    0    0 -0.19602864052E-02  0.13680477344E-02 -0.48939896377E-02  0.54465963654E-02  0.00000000000E+00 0.  1.
</event>
<event>
 5   0  0.4143600E+04  0.9118800E+02  0.7546771E-02  0.1180000E+00
      -11   -1    0    0    0    0  0.00000000000E+00  0.00000000000E+00  0.34996269501E-01  0.35000000000E-01  0.51099999109E-03 0.  1.
       11   -1    0    0    0    0 -0.00000000000E+00 -0.00000000000E+00 -0.34996269501E-01  0.35000000000E-01  0.51099999109E-03 0. -1.
       22    1    1    2    0    0  0.71495832411E-02 -0.99056437302E-02 -0.32775762226E-01  0.34978406306E-01  0.00000000000E+00 0. -1.
       22    1    1    2    0    0 -0.57363125783E-05 -0.22196214664E-05  0.68108911791E-03  0.68111689050E-03  0.00000000000E+00 0. -1.
       22    1    1    2    0    0 -0.71438469285E-02  0.99078633516E-02  0.32094673108E-01  0.34340476803E-01  0.00000000000E+00 0.  1.
</event>
<event>
 5   0  0.4143600E+04  0.9118800E+02  0.7546771E-02  0.1180000E+00
      -11   -1    0    0    0    0  0.00000000000E+00  0.00000000000E+00  0.34996269501E-01  0.35000000000E-01  0.51099999109E-03 0. -1.
       11   -1    0    0    0    0 -0.00000000000E+00 -0.00000000000E+00 -0.34996269501E-01  0.35000000000E-01  0.51099999109E-03 0.  1.
       22    1    1    2    0    0  0.58001000681E-03 -0.70692450200E-03 -0.34019991167E-01  0.34032278103E-01  0.00000000000E+00 0.  1.
       22    1    1    2    0    0 -0.76756389525E-05  0.33592828229E-03 -0.94145561879E-03  0.99962263301E-03  0.00000000000E+00 0.  1.
       22    1    1    2    0    0 -0.57233436786E-03  0.37099621971E-03  0.34961446786E-01  0.34968099264E-01  0.00000000000E+00 0. -1.
</event>
<event>
 5   0  0.4143600E+04  0.9118800E+02  0.7546771E-02  0.1180000E+00
      -11   -1    0    0    0    0  0.00000000000E+00  0.00000000000E+00  0.34996269501E-01  0.35000000000E-01  0.51099999109E-03 0.  1.
       11   -1    0    0    0    0 -0.00000000000E+00 -0.00000000000E+00 -0.34996269501E-01  0.35000000000E-01  0.51099999109E-03 0. -1.
       22    1    1    2    0    0 -0.10504993902E-01  0.80542990390E-02  0.26606514215E-01  0.29717557581E-01  0.00000000000E+00 0.  1.
       22    1    1    2    0    0  0.13783850523E-03  0.36440733009E-03  0.54975966046E-02  0.55113846339E-02  0.00000000000E+00 0.  1.
       22    1    1    2    0    0  0.10367155396E-01 -0.84187063691E-02 -0.32104110820E-01  0.34771057785E-01  0.00000000000E+00 0. -1.
</event>
<event>
 5   0  0.4143600E+04  0.9118800E+02  0.7546771E-02  0.1180000E+00
      -11   -1    0    0    0    0  0.00000000000E+00  0.00000000000E+00  0.34996269501E-01  0.35000000000E-01  0.51099999109E-03 0.  1.
       11   -1    0    0    0    0 -0.00000000000E+00 -0.00000000000E+00 -0.34996269501E-01  0.35000000000E-01  0.51099999109E-03 0. -1.
       22    1    1    2    0    0  0.26655309731E-04 -0.11185590173E-04  0.27037292331E-02  0.27038837603E-02  0.00000000000E+00 0. -1.
       22    1    1    2    0    0  0.11807636717E-01 -0.54314299674E-02 -0.32377782179E-01  0.34888988164E-01  0.00000000000E+00 0. -1.
       22    1    1    2    0    0 -0.11834292027E-01  0.54426155576E-02  0.29674052945E-01  0.32407128075E-01  0.00000000000E+00 0.  1.
</event>
<event>
 5   0  0.4143600E+04  0.9118800E+02  0.7546771E-02  0.1180000E+00
      -11   -1    0    0    0    0  0.00000000000E+00  0.00000000000E+00  0.34996269501E-01  0.35000000000E-01  0.51099999109E-03 0.  1.
       11   -1    0    0    0    0 -0.00000000000E+00 -0.00000000000E+00 -0.34996269501E-01  0.35000000000E-01  0.51099999109E-03 0. -1.
       22    1    1    2    0    0 -0.18031118543E-01 -0.41691785063E-02 -0.21553144794E-01  0.28408472958E-01  0.00000000000E+00 0. -1.
       22    1    1    2    0    0  0.17901047450E-01  0.54607028056E-02 -0.12446978652E-02  0.18756760054E-01  0.00000000000E+00 0.  1.
       22    1    1    2    0    0  0.13007109303E-03 -0.12915242993E-02  0.22797842659E-01  0.22834766988E-01  0.00000000000E+00 0.  1.
</event>
<event>
 5   0  0.4143600E+04  0.9118800E+02  0.7546771E-02  0.1180000E+00
      -11   -1    0    0    0    0  0.00000000000E+00  0.00000000000E+00  0.34996269501E-01  0.35000000000E-01  0.51099999109E-03 0.  1.
       11   -1    0    0    0    0 -0.00000000000E+00 -0.00000000000E+00 -0.34996269501E-01  0.35000000000E-01  0.51099999109E-03 0. -1.
       22    1    1    2    0    0 -0.54898114262E-02 -0.36364807598E-02 -0.31474804062E-01  0.32156263970E-01  0.00000000000E+00 0. -1.
       22    1    1    2    0    0  0.37907650692E-03  0.13930921253E-02 -0.27824833620E-02  0.31347437420E-02  0.00000000000E+00 0. -1.
       22    1    1    2    0    0  0.51107349193E-02  0.22433886345E-02  0.34257287424E-01  0.34708992288E-01  0.00000000000E+00 0.  1.
</event>
<event>
 5   0  0.4143600E+04  0.9118800E+02  0.7546771E-02  0.1180000E+00
      -11   -1    0    0    0    0  0.00000000000E+00  0.00000000000E+00  0.34996269501E-01  0.35000000000E-01  0.51099999109E-03 0.  1.
       11   -1    0    0    0    0 -0.00000000000E+00 -0.00000000000E+00 -0.34996269501E-01  0.35000000000E-01  0.51099999109E-03 0. -1.
       22    1    1    2    0    0  0.18566076256E-01  0.84340753827E-02 -0.28358822868E-01  0.34929295005E-01  0.00000000000E+00 0. -1.
       22    1    1    2    0    0 -0.34561677629E-05  0.15887732500E-03  0.38114622146E-03  0.41294841280E-03  0.00000000000E+00 0. -1.
       22    1    1    2    0    0 -0.18562620089E-01 -0.85929527077E-02  0.27977676646E-01  0.34657756582E-01  0.00000000000E+00 0.  1.
</event>
<event>
 5   0  0.4143600E+04  0.9118800E+02  0.7546771E-02  0.1180000E+00
      -11   -1    0    0    0    0  0.00000000000E+00  0.00000000000E+00  0.34996269501E-01  0.35000000000E-01  0.51099999109E-03 0.  1.
       11   -1    0    0    0    0 -0.00000000000E+00 -0.00000000000E+00 -0.34996269501E-01  0.35000000000E-01  0.51099999109E-03 0. -1.
       22    1    1    2    0    0  0.34104340778E-02 -0.17594287452E-01 -0.29674427349E-01  0.34666434054E-01  0.00000000000E+00 0. -1.
       22    1    1    2    0    0 -0.34592074570E-02  0.17674785579E-01  0.30002060154E-01  0.34992681734E-01  0.00000000000E+00 0.  1.
       22    1    1    2    0    0  0.48773379195E-04 -0.80498126195E-04 -0.32763280514E-03  0.34088421178E-03  0.00000000000E+00 0.  1.
</event>
<event>
 5   0  0.4143600E+04  0.9118800E+02  0.7546771E-02  0.1180000E+00
      -11   -1    0    0    0    0  0.00000000000E+00  0.00000000000E+00  0.34996269501E-01  0.35000000000E-01  0.51099999109E-03 0.  1.
       11   -1    0    0    0    0 -0.00000000000E+00 -0.00000000000E+00 -0.34996269501E-01  0.35000000000E-01  0.51099999109E-03 0. -1.
       22    1    1    2    0    0 -0.10651882873E-02  0.35946434631E-04 -0.25563916346E-03  0.10960244594E-02  0.00000000000E+00 0. -1.
       22    1    1    2    0    0 -0.60325082837E-02 -0.15776103782E-01 -0.29793103277E-01  0.34247709553E-01  0.00000000000E+00 0. -1.
       22    1    1    2    0    0  0.70976965711E-02  0.15740157347E-01  0.30048742441E-01  0.34656265988E-01  0.00000000000E+00 0.  1.
</event>
<event>
 5   0  0.4143600E+04  0.9118800E+02  0.7546771E-02  0.1180000E+00
      -11   -1    0    0    0    0  0.00000000000E+00  0.00000000000E+00  0.34996269501E-01  0.35000000000E-01  0.51099999109E-03 0. -1.
       11   -1    0    0    0    0 -0.00000000000E+00 -0.00000000000E+00 -0.34996269501E-01  0.35000000000E-01  0.51099999109E-03 0.  1.
       22    1    1    2    0    0  0.24093630029E-03  0.34695553763E-02 -0.17114262419E-01  0.17464072920E-01  0.00000000000E+00 0.  1.
       22    1    1    2    0    0 -0.60258553756E-02 -0.39623508296E-02 -0.16718997278E-01  0.18208130796E-01  0.00000000000E+00 0.  1.
       22    1    1    2    0    0  0.57849190754E-02  0.49279545331E-03  0.33833259696E-01  0.34327796284E-01  0.00000000000E+00 0. -1.
</event>
<event>
 5   0  0.4143600E+04  0.9118800E+02  0.7546771E-02  0.1180000E+00
      -11   -1    0    0    0    0  0.00000000000E+00  0.00000000000E+00  0.34996269501E-01  0.35000000000E-01  0.51099999109E-03 0. -1.
       11   -1    0    0    0    0 -0.00000000000E+00 -0.00000000000E+00 -0.34996269501E-01  0.35000000000E-01  0.51099999109E-03 0.  1.
       22    1    1    2    0    0  0.20764640098E-02  0.31425040380E-02 -0.31872578610E-01  0.32094365575E-01  0.00000000000E+00 0.  1.
       22    1    1    2    0    0 -0.10249764908E-02 -0.10907223369E-02 -0.27901813511E-02  0.31662855201E-02  0.00000000000E+00 0. -1.
       22    1    1    2    0    0 -0.10514875190E-02 -0.20517817011E-02  0.34662759962E-01  0.34739348904E-01  0.00000000000E+00 0. -1.
</event>
<event>
 5   0  0.4143600E+04  0.9118800E+02  0.7546771E-02  0.1180000E+00
      -11   -1    0    0    0    0  0.00000000000E+00  0.00000000000E+00  0.34996269501E-01  0.35000000000E-01  0.51099999109E-03 0. -1.
       11   -1    0    0    0    0 -0.00000000000E+00 -0.00000000000E+00 -0.34996269501E-01  0.35000000000E-01  0.51099999109E-03 0.  1.
       22    1    1    2    0    0 -0.21628227041E-03  0.12139748753E-03 -0.57736209428E-03  0.62838074317E-03  0.00000000000E+00 0. -1.
       22    1    1    2    0    0  0.22585232230E-01 -0.16035287756E-01 -0.20749510284E-01  0.34608746659E-01  0.00000000000E+00 0.  1.
       22    1    1    2    0    0 -0.22368949960E-01  0.15913890268E-01  0.21326872378E-01  0.34762872597E-01  0.00000000000E+00 0. -1.
</event>
<event>
 5   0  0.4143600E+04  0.9118800E+02  0.7546771E-02  0.1180000E+00
      -11   -1    0    0    0    0  0.00000000000E+00  0.00000000000E+00  0.34996269501E-01  0.35000000000E-01  0.51099999109E-03 0. -1.
       11   -1    0    0    0    0 -0.00000000000E+00 -0.00000000000E+00 -0.34996269501E-01  0.35000000000E-01  0.51099999109E-03 0. -1.
       22    1    1    2    0    0  0.00000000000E+00  0.00000000000E+00  0.33859779448E-01  0.33859602751E-01  0.00000000000E+00 0. -1.
       22    1    1    2    0    0 -0.36806486285E-02 -0.51291347906E-02 -0.17605039597E-01  0.18702743575E-01  0.00000000000E+00 0. -1.
       22    1    1    2    0    0  0.36806486285E-02  0.51291347906E-02 -0.16254739851E-01  0.17437653674E-01  0.00000000000E+00 0.  1.
</event>
<event>
 5   0  0.4143600E+04  0.9118800E+02  0.7546771E-02  0.1180000E+00
      -11   -1    0    0    0    0  0.00000000000E+00  0.00000000000E+00  0.34996269501E-01  0.35000000000E-01  0.51099999109E-03 0.  1.
       11   -1    0    0    0    0 -0.00000000000E+00 -0.00000000000E+00 -0.34996269501E-01  0.35000000000E-01  0.51099999109E-03 0. -1.
       22    1    1    2    0    0  0.10098580749E-02 -0.33891040202E-02 -0.16547519797E-01  0.16921177584E-01  0.00000000000E+00 0. -1.
       22    1    1    2    0    0 -0.13140144190E-02  0.10181115201E-01  0.33381208955E-01  0.34924015404E-01  0.00000000000E+00 0.  1.
       22    1    1    2    0    0  0.30415634407E-03 -0.67920111812E-02 -0.16833689158E-01  0.18154807012E-01  0.00000000000E+00 0. -1.
</event>
<event>
 5   0  0.4143600E+04  0.9118800E+02  0.7546771E-02  0.1180000E+00
      -11   -1    0    0    0    0  0.00000000000E+00  0.00000000000E+00  0.34996269501E-01  0.35000000000E-01  0.51099999109E-03 0.  1.
       11   -1    0    0    0    0 -0.00000000000E+00 -0.00000000000E+00 -0.34996269501E-01  0.35000000000E-01  0.51099999109E-03 0. -1.
       22    1    1    2    0    0  0.41625358899E-02  0.98496910877E-02  0.95622607915E-02  0.14345032276E-01  0.00000000000E+00 0.  1.
       22    1    1    2    0    0 -0.15138682832E-03  0.15945632437E-02  0.21888612634E-01  0.21947139060E-01  0.00000000000E+00 0.  1.
       22    1    1    2    0    0 -0.40111490615E-02 -0.11444254331E-01 -0.31450873425E-01  0.33707828663E-01  0.00000000000E+00 0. -1.
</event>
<event>
 5   0  0.4143600E+04  0.9118800E+02  0.7546771E-02  0.1180000E+00
      -11   -1    0    0    0    0  0.00000000000E+00  0.00000000000E+00  0.34996269501E-01  0.35000000000E-01  0.51099999109E-03 0. -1.
       11   -1    0    0    0    0 -0.00000000000E+00 -0.00000000000E+00 -0.34996269501E-01  0.35000000000E-01  0.51099999109E-03 0.  1.
       22    1    1    2    0    0  0.81536694651E-05  0.41288095825E-02 -0.10413755569E-01  0.11202385465E-01  0.00000000000E+00 0. -1.
       22    1    1    2    0    0  0.54580483936E-03 -0.31042608324E-02 -0.24079396687E-01  0.24284803541E-01  0.00000000000E+00 0.  1.
       22    1    1    2    0    0 -0.55395850882E-03 -0.10245487501E-02  0.34493152256E-01  0.34512810994E-01  0.00000000000E+00 0. -1.
</event>
<event>
 5   0  0.4143600E+04  0.9118800E+02  0.7546771E-02  0.1180000E+00
      -11   -1    0    0    0    0  0.00000000000E+00  0.00000000000E+00  0.34996269501E-01  0.35000000000E-01  0.51099999109E-03 0.  1.
       11   -1    0    0    0    0 -0.00000000000E+00 -0.00000000000E+00 -0.34996269501E-01  0.35000000000E-01  0.51099999109E-03 0. -1.
       22    1    1    2    0    0  0.44497912697E-04  0.21055619104E-04  0.87949526448E-03  0.88087191099E-03  0.00000000000E+00 0. -1.
       22    1    1    2    0    0 -0.13237483413E-01  0.15820117080E-01 -0.28171405955E-01  0.34916116408E-01  0.00000000000E+00 0. -1.
       22    1    1    2    0    0  0.13192985501E-01 -0.15841172699E-01  0.27291910690E-01  0.34203011681E-01  0.00000000000E+00 0.  1.
</event>
<event>
 5   0  0.4143600E+04  0.9118800E+02  0.7546771E-02  0.1180000E+00
      -11   -1    0    0    0    0  0.00000000000E+00  0.00000000000E+00  0.34996269501E-01  0.35000000000E-01  0.51099999109E-03 0.  1.
       11   -1    0    0    0    0 -0.00000000000E+00 -0.00000000000E+00 -0.34996269501E-01  0.35000000000E-01  0.51099999109E-03 0. -1.
       22    1    1    2    0    0  0.20470814133E-02 -0.18679250850E-01  0.29449768234E-01  0.34934135222E-01  0.00000000000E+00 0.  1.
       22    1    1    2    0    0 -0.23071421592E-02  0.18411087906E-01 -0.28163534245E-01  0.33726484015E-01  0.00000000000E+00 0. -1.
       22    1    1    2    0    0  0.26006074584E-03  0.26816294465E-03 -0.12862339888E-02  0.13393807637E-02  0.00000000000E+00 0.  1.
</event>
<event>
 5   0  0.4143600E+04  0.9118800E+02  0.7546771E-02  0.1180000E+00
      -11   -1    0    0    0    0  0.00000000000E+00  0.00000000000E+00  0.34996269501E-01  0.35000000000E-01  0.51099999109E-03 0. -1.
       11   -1    0    0    0    0 -0.00000000000E+00 -0.00000000000E+00 -0.34996269501E-01  0.35000000000E-01  0.51099999109E-03 0.  1.
       22    1    1    2    0    0 -0.37296322744E-02  0.31887168047E-05 -0.18654363436E-01  0.19023549676E-01  0.00000000000E+00 0.  1.
       22    1    1    2    0    0 -0.73287599657E-02  0.37439309508E-02 -0.14031987402E-01  0.16267280414E-01  0.00000000000E+00 0.  1.
       22    1    1    2    0    0  0.11058392240E-01 -0.37471196676E-02  0.32686350838E-01  0.34709169910E-01  0.00000000000E+00 0. -1.
</event>
<event>
 5   0  0.4143600E+04  0.9118800E+02  0.7546771E-02  0.1180000E+00
      -11   -1    0    0    0    0  0.00000000000E+00  0.00000000000E+00  0.34996269501E-01  0.35000000000E-01  0.51099999109E-03 0. -1.
       11   -1    0    0    0    0 -0.00000000000E+00 -0.00000000000E+00 -0.34996269501E-01  0.35000000000E-01  0.51099999109E-03 0. -1.
       22    1    1    2    0    0 -0.62890865246E-04 -0.22437562299E-03 -0.33408424649E-01  0.33409237304E-01  0.00000000000E+00 0. -1.
       22    1    1    2    0    0 -0.28139211592E-04 -0.65161055048E-03  0.34874444433E-01  0.34880542752E-01  0.00000000000E+00 0. -1.
       22    1    1    2    0    0  0.91030076838E-04  0.87598617347E-03 -0.14660197840E-02  0.17102199444E-02  0.00000000000E+00 0.  1.
</event>
<event>
 5   0  0.4143600E+04  0.9118800E+02  0.7546771E-02  0.1180000E+00
      -11   -1    0    0    0    0  0.00000000000E+00  0.00000000000E+00  0.34996269501E-01  0.35000000000E-01  0.51099999109E-03 0.  1.
       11   -1    0    0    0    0 -0.00000000000E+00 -0.00000000000E+00 -0.34996269501E-01  0.35000000000E-01  0.51099999109E-03 0. -1.
       22    1    1    2    0    0 -0.24914918832E-02  0.19132923196E-01  0.27052886719E-01  0.33228526324E-01  0.00000000000E+00 0.  1.
       22    1    1    2    0    0 -0.78498961421E-04 -0.55951704065E-04  0.19552215941E-02  0.19575965269E-02  0.00000000000E+00 0. -1.
       22    1    1    2    0    0  0.25699908446E-02 -0.19076971492E-01 -0.29008108313E-01  0.34813877149E-01  0.00000000000E+00 0. -1.
</event>
<event>
 5   0  0.4143600E+04  0.9118800E+02  0.7546771E-02  0.1180000E+00
      -11   -1    0    0    0    0  0.00000000000E+00  0.00000000000E+00  0.34996269501E-01  0.35000000000E-01  0.51099999109E-03 0.  1.
       11   -1    0    0    0    0 -0.00000000000E+00 -0.00000000000E+00 -0.34996269501E-01  0.35000000000E-01  0.51099999109E-03 0. -1.
       22    1    1    2    0    0  0.36486762108E-02  0.13204292040E-03 -0.33096718220E-01  0.33297492854E-01  0.00000000000E+00 0. -1.
       22    1    1    2    0    0 -0.25267381430E-02  0.21268440858E-03  0.34657233701E-01  0.34749870332E-01  0.00000000000E+00 0.  1.
       22    1    1    2    0    0 -0.11219380678E-02 -0.34472732898E-03 -0.15605154807E-02  0.19526368134E-02  0.00000000000E+00 0.  1.
</event>
<event>
 5   0  0.4143600E+04  0.9118800E+02  0.7546771E-02  0.1180000E+00
      -11   -1    0    0    0    0  0.00000000000E+00  0.00000000000E+00  0.34996269501E-01  0.35000000000E-01  0.51099999109E-03 0.  1.
       11   -1    0    0    0    0 -0.00000000000E+00 -0.00000000000E+00 -0.34996269501E-01  0.35000000000E-01  0.51099999109E-03 0. -1.
       22    1    1    2    0    0 -0.11354196059E-03  0.60403739261E-03  0.45597372717E-02  0.46009734770E-02  0.00000000000E+00 0.  1.
       22    1    1    2    0    0  0.16401140693E-01  0.68015145450E-02  0.25109135056E-01  0.30752669468E-01  0.00000000000E+00 0.  1.
       22    1    1    2    0    0 -0.16287598732E-01 -0.74055519376E-02 -0.29668872328E-01  0.34646357055E-01  0.00000000000E+00 0. -1.
</event>
<event>
 5   0  0.4143600E+04  0.9118800E+02  0.7546771E-02  0.1180000E+00
      -11   -1    0    0    0    0  0.00000000000E+00  0.00000000000E+00  0.34996269501E-01  0.35000000000E-01  0.51099999109E-03 0.  1.
       11   -1    0    0    0    0 -0.00000000000E+00 -0.00000000000E+00 -0.34996269501E-01  0.35000000000E-01  0.51099999109E-03 0. -1.
       22    1    1    2    0    0  0.87860183561E-02 -0.19709227689E-01  0.26966756382E-01  0.34537714522E-01  0.00000000000E+00 0.  1.
       22    1    1    2    0    0 -0.51007510137E-03  0.40564750796E-02 -0.13179107613E-02  0.42955855777E-02  0.00000000000E+00 0. -1.
       22    1    1    2    0    0 -0.82759432548E-02  0.15652752610E-01 -0.25648845620E-01  0.31166699900E-01  0.00000000000E+00 0. -1.
</event>
<event>
 5   0  0.4143600E+04  0.9118800E+02  0.7546771E-02  0.1180000E+00
      -11   -1    0    0    0    0  0.00000000000E+00  0.00000000000E+00  0.34996269501E-01  0.35000000000E-01  0.51099999109E-03 0. -1.
       11   -1    0    0    0    0 -0.00000000000E+00 -0.00000000000E+00 -0.34996269501E-01  0.35000000000E-01  0.51099999109E-03 0.  1.
       22    1    1    2    0    0  0.38997684900E-03  0.44873621700E-03  0.21510759862E-01  0.21518973860E-01  0.00000000000E+00 0. -1.
       22    1    1    2    0    0 -0.19445113210E-01 -0.34586025002E-02 -0.22166353663E-03  0.19751544085E-01  0.00000000000E+00 0. -1.
       22    1    1    2    0    0  0.19055136361E-01  0.30098662832E-02 -0.21289096326E-01  0.28729482055E-01  0.00000000000E+00 0.  1.
</event>
<event>
 5   0  0.4143600E+04  0.9118800E+02  0.7546771E-02  0.1180000E+00
      -11   -1    0    0    0    0  0.00000000000E+00  0.00000000000E+00  0.34996269501E-01  0.35000000000E-01  0.51099999109E-03 0. -1.
       11   -1    0    0    0    0 -0.00000000000E+00 -0.00000000000E+00 -0.34996269501E-01  0.35000000000E-01  0.51099999109E-03 0.  1.
       22    1    1    2    0    0 -0.10325792234E-03  0.21003987242E-01 -0.25675435588E-01  0.33172370053E-01  0.00000000000E+00 0.  1.
       22    1    1    2    0    0 -0.14534036822E-03 -0.78128138397E-04 -0.20689889203E-02  0.20755584745E-02  0.00000000000E+00 0.  1.
       22    1    1    2    0    0  0.24859829056E-03 -0.20925859104E-01  0.27744424508E-01  0.34752071473E-01  0.00000000000E+00 0. -1.
</event>
<event>
 5   0  0.4143600E+04  0.9118800E+02  0.7546771E-02  0.1180000E+00
      -11   -1    0    0    0    0  0.00000000000E+00  0.00000000000E+00  0.34996269501E-01  0.35000000000E-01  0.51099999109E-03 0.  1.
       11   -1    0    0    0    0 -0.00000000000E+00 -0.00000000000E+00 -0.34996269501E-01  0.35000000000E-01  0.51099999109E-03 0. -1.
       22    1    1    2    0    0  0.20705927520E-02 -0.24889897912E-02  0.34745472818E-01  0.34895992691E-01  0.00000000000E+00 0.  1.
       22    1    1    2    0    0 -0.58821347424E-03  0.30488081544E-03 -0.72827068195E-03  0.98454334038E-03  0.00000000000E+00 0.  1.
       22    1    1    2    0    0 -0.14823792778E-02  0.21841089758E-02 -0.34017202136E-01  0.34119463969E-01  0.00000000000E+00 0. -1.
</event>
<event>
 5   0  0.4143600E+04  0.9118800E+02  0.7546771E-02  0.1180000E+00
      -11   -1    0    0    0    0  0.00000000000E+00  0.00000000000E+00  0.34996269501E-01  0.35000000000E-01  0.51099999109E-03 0. -1.
       11   -1    0    0    0    0 -0.00000000000E+00 -0.00000000000E+00 -0.34996269501E-01  0.35000000000E-01  0.51099999109E-03 0.  1.
       22    1    1    2    0    0  0.21639474922E-05 -0.93812268448E-05  0.94373608620E-03  0.94378519298E-03  0.00000000000E+00 0. -1.
       22    1    1    2    0    0  0.22552919472E-02 -0.13529680053E-01  0.31212296040E-01  0.34093195922E-01  0.00000000000E+00 0. -1.
       22    1    1    2    0    0 -0.22574558947E-02  0.13539061279E-01 -0.32156032126E-01  0.34963018885E-01  0.00000000000E+00 0.  1.
</event>
<event>
 5   0  0.4143600E+04  0.9118800E+02  0.7546771E-02  0.1180000E+00
      -11   -1    0    0    0    0  0.00000000000E+00  0.00000000000E+00  0.34996269501E-01  0.35000000000E-01  0.51099999109E-03 0.  1.
       11   -1    0    0    0    0 -0.00000000000E+00 -0.00000000000E+00 -0.34996269501E-01  0.35000000000E-01  0.51099999109E-03 0. -1.
       22    1    1    2    0    0 -0.14271592852E-03 -0.57818549923E-04  0.47154744854E-03  0.49605223232E-03  0.00000000000E+00 0. -1.
       22    1    1    2    0    0  0.15342973670E-01  0.15218195364E-01 -0.27507626673E-01  0.34980992501E-01  0.00000000000E+00 0. -1.
       22    1    1    2    0    0 -0.15200257741E-01 -0.15160376814E-01  0.27036079224E-01  0.34522955267E-01  0.00000000000E+00 0.  1.
</event>
<event>
 5   0  0.4143600E+04  0.9118800E+02  0.7546771E-02  0.1180000E+00
      -11   -1    0    0    0    0  0.00000000000E+00  0.00000000000E+00  0.34996269501E-01  0.35000000000E-01  0.51099999109E-03 0.  1.
       11   -1    0    0    0    0 -0.00000000000E+00 -0.00000000000E+00 -0.34996269501E-01  0.35000000000E-01  0.51099999109E-03 0. -1.
       22    1    1    2    0    0 -0.22157503129E-01  0.39946660163E-02 -0.26173311536E-01  0.34524694615E-01  0.00000000000E+00 0. -1.
       22    1    1    2    0    0  0.81114666662E-03  0.29976637268E-03  0.51027564519E-02  0.51755137137E-02  0.00000000000E+00 0.  1.
       22    1    1    2    0    0  0.21346356462E-01 -0.42944323889E-02  0.21070555084E-01  0.30299791671E-01  0.00000000000E+00 0.  1.
</event>
<event>
 5   0  0.4143600E+04  0.9118800E+02  0.7546771E-02  0.1180000E+00
      -11   -1    0    0    0    0  0.00000000000E+00  0.00000000000E+00  0.34996269501E-01  0.35000000000E-01  0.51099999109E-03 0.  1.
       11   -1    0    0    0    0 -0.00000000000E+00 -0.00000000000E+00 -0.34996269501E-01  0.35000000000E-01  0.51099999109E-03 0. -1.
       22    1    1    2    0    0  0.29192676630E-02 -0.31959157130E-03 -0.37434547515E-02  0.47579108795E-02  0.00000000000E+00 0.  1.
       22    1    1    2    0    0 -0.13212519655E-02  0.12171750483E-01  0.32159891380E-01  0.34411565354E-01  0.00000000000E+00 0.  1.
       22    1    1    2    0    0 -0.15980156975E-02 -0.11852158912E-01 -0.28416436628E-01  0.30830523766E-01  0.00000000000E+00 0. -1.
</event>
<event>
 5   0  0.4143600E+04  0.9118800E+02  0.7546771E-02  0.1180000E+00
      -11   -1    0    0    0    0  0.00000000000E+00  0.00000000000E+00  0.34996269501E-01  0.35000000000E-01  0.51099999109E-03 0.  1.
       11   -1    0    0    0    0 -0.00000000000E+00 -0.00000000000E+00 -0.34996269501E-01  0.35000000000E-01  0.51099999109E-03 0. -1.
       22    1    1    2    0    0  0.97842605517E-02 -0.85100882241E-02  0.28033913372E-01  0.30887758985E-01  0.00000000000E+00 0.  1.
       22    1    1    2    0    0 -0.10584940540E-01  0.89907841936E-02 -0.32081393170E-01  0.34958417504E-01  0.00000000000E+00 0. -1.
       22    1    1    2    0    0  0.80067998817E-03 -0.48069596958E-03  0.40474797973E-02  0.41538235119E-02  0.00000000000E+00 0. -1.
</event>
<event>
 5   0  0.4143600E+04  0.9118800E+02  0.7546771E-02  0.1180000E+00
      -11   -1    0    0    0    0  0.00000000000E+00  0.00000000000E+00  0.34996269501E-01  0.35000000000E-01  0.51099999109E-03 0. -1.
       11   -1    0    0    0    0 -0.00000000000E+00 -0.00000000000E+00 -0.34996269501E-01  0.35000000000E-01  0.51099999109E-03 0. -1.
       22    1    1    2    0    0  0.11082508664E-02  0.12978394330E-03  0.34932442856E-01  0.34950259337E-01  0.00000000000E+00 0. -1.
       22    1    1    2    0    0 -0.12386478344E-02  0.10603655623E-03 -0.34597623597E-01  0.34619951629E-01  0.00000000000E+00 0. -1.
       22    1    1    2    0    0  0.13039696804E-03 -0.23582049952E-03 -0.33481925904E-03  0.42978903371E-03  0.00000000000E+00 0.  1.
</event>
<event>
 5   0  0.4143600E+04  0.9118800E+02  0.7546771E-02  0.1180000E+00
      -11   -1    0    0    0    0  0.00000000000E+00  0.00000000000E+00  0.34996269501E-01  0.35000000000E-01  0.51099999109E-03 0.  1.
       11   -1    0    0    0    0 -0.00000000000E+00 -0.00000000000E+00 -0.34996269501E-01  0.35000000000E-01  0.51099999109E-03 0. -1.
       22    1    1    2    0    0  0.23643269818E-02  0.34385716797E-02  0.34579478620E-01  0.34830362601E-01  0.00000000000E+00 0.  1.
       22    1    1    2    0    0 -0.27782021532E-02 -0.24511944686E-02 -0.33281527428E-01  0.33487114379E-01  0.00000000000E+00 0. -1.
       22    1    1    2    0    0  0.41387517139E-03 -0.98737721104E-03 -0.12979511925E-02  0.16825230199E-02  0.00000000000E+00 0.  1.
</event>
<event>
 5   0  0.4143600E+04  0.9118800E+02  0.7546771E-02  0.1180000E+00
      -11   -1    0    0    0    0  0.00000000000E+00  0.00000000000E+00  0.34996269501E-01  0.35000000000E-01  0.51099999109E-03 0.  1.
       11   -1    0    0    0    0 -0.00000000000E+00 -0.00000000000E+00 -0.34996269501E-01  0.35000000000E-01  0.51099999109E-03 0. -1.
       22    1    1    2    0    0  0.30356290548E-02 -0.22413638809E-01 -0.24673261923E-01  0.33471720935E-01  0.00000000000E+00 0. -1.
       22    1    1    2    0    0 -0.16780817811E-03 -0.23248762653E-03 -0.16564662727E-02  0.16810980322E-02  0.00000000000E+00 0.  1.
       22    1    1    2    0    0 -0.28678208767E-02  0.22646126435E-01  0.26329728196E-01  0.34847181033E-01  0.00000000000E+00 0.  1.
</event>
<event>
 5   0  0.4143600E+04  0.9118800E+02  0.7546771E-02  0.1180000E+00
      -11   -1    0    0    0    0  0.00000000000E+00  0.00000000000E+00  0.34996269501E-01  0.35000000000E-01  0.51099999109E-03 0. -1.
       11   -1    0    0    0    0 -0.00000000000E+00 -0.00000000000E+00 -0.34996269501E-01  0.35000000000E-01  0.51099999109E-03 0.  1.
       22    1    1    2    0    0  0.14581694194E-02  0.38232580388E-04  0.14192498689E-01  0.14267261083E-01  0.00000000000E+00 0.  1.
       22    1    1    2    0    0 -0.10641558770E-01 -0.17618963767E-01  0.11262003280E-01  0.23462808339E-01  0.00000000000E+00 0. -1.
       22    1    1    2    0    0  0.91833893501E-02  0.17580731187E-01 -0.25454501969E-01  0.32269930578E-01  0.00000000000E+00 0.  1.
</event>
<event>
 5   0  0.4143600E+04  0.9118800E+02  0.7546771E-02  0.1180000E+00
      -11   -1    0    0    0    0  0.00000000000E+00  0.00000000000E+00  0.34996269501E-01  0.35000000000E-01  0.51099999109E-03 0. -1.
       11   -1    0    0    0    0 -0.00000000000E+00 -0.00000000000E+00 -0.34996269501E-01  0.35000000000E-01  0.51099999109E-03 0.  1.
       22    1    1    2    0    0 -0.93213552322E-03  0.27862276414E-01 -0.20406836830E-01  0.34548723753E-01  0.00000000000E+00 0.  1.
       22    1    1    2    0    0 -0.41250345450E-03  0.59999205600E-04 -0.41965369120E-03  0.59149659778E-03  0.00000000000E+00 0.  1.
       22    1    1    2    0    0  0.13446389777E-02 -0.27922275619E-01  0.20826490521E-01  0.34859779649E-01  0.00000000000E+00 0. -1.
</event>
<event>
 5   0  0.4143600E+04  0.9118800E+02  0.7546771E-02  0.1180000E+00
      -11   -1    0    0    0    0  0.00000000000E+00  0.00000000000E+00  0.34996269501E-01  0.35000000000E-01  0.51099999109E-03 0. -1.
       11   -1    0    0    0    0 -0.00000000000E+00 -0.00000000000E+00 -0.34996269501E-01  0.35000000000E-01  0.51099999109E-03 0.  1.
       22    1    1    2    0    0 -0.24489221962E-03  0.49240333637E-03  0.31453155507E-01  0.31457962817E-01  0.00000000000E+00 0. -1.
       22    1    1    2    0    0 -0.62537235621E-02 -0.84437075743E-02 -0.89345768718E-02  0.13792458804E-01  0.00000000000E+00 0. -1.
       22    1    1    2    0    0  0.64986157817E-02  0.79513042379E-02 -0.22518578635E-01  0.24749578379E-01  0.00000000000E+00 0.  1.
</event>
<event>
 5   0  0.4143600E+04  0.9118800E+02  0.7546771E-02  0.1180000E+00
      -11   -1    0    0    0    0  0.00000000000E+00  0.00000000000E+00  0.34996269501E-01  0.35000000000E-01  0.51099999109E-03 0. -1.
       11   -1    0    0    0    0 -0.00000000000E+00 -0.00000000000E+00 -0.34996269501E-01  0.35000000000E-01  0.51099999109E-03 0.  1.
       22    1    1    2    0    0 -0.94482079008E-02  0.51175374018E-02 -0.20995656180E-01  0.23585491303E-01  0.00000000000E+00 0.  1.
       22    1    1    2    0    0  0.10103619678E-01 -0.48618873407E-02  0.32761776913E-01  0.34627375090E-01  0.00000000000E+00 0. -1.
       22    1    1    2    0    0 -0.65541177716E-03 -0.25565006114E-03 -0.11766120733E-01  0.11787133607E-01  0.00000000000E+00 0.  1.
</event>
<event>
 5   0  0.4143600E+04  0.9118800E+02  0.7546771E-02  0.1180000E+00
      -11   -1    0    0    0    0  0.00000000000E+00  0.00000000000E+00  0.34996269501E-01  0.35000000000E-01  0.51099999109E-03 0.  1.
       11   -1    0    0    0    0 -0.00000000000E+00 -0.00000000000E+00 -0.34996269501E-01  0.35000000000E-01  0.51099999109E-03 0. -1.
       22    1    1    2    0    0 -0.22953601911E-02  0.10682679740E-02  0.34860457541E-01  0.34952272814E-01  0.00000000000E+00 0.  1.
       22    1    1    2    0    0 -0.23909360357E-03  0.15124680140E-03 -0.51746328244E-03  0.58975384261E-03  0.00000000000E+00 0.  1.
       22    1    1    2    0    0  0.25344537946E-02 -0.12195147754E-02 -0.34342994258E-01  0.34457973344E-01  0.00000000000E+00 0. -1.
</event>
<event>
 5   0  0.4143600E+04  0.9118800E+02  0.7546771E-02  0.1180000E+00
      -11   -1    0    0    0    0  0.00000000000E+00  0.00000000000E+00  0.34996269501E-01  0.35000000000E-01  0.51099999109E-03 0.  1.
       11   -1    0    0    0    0 -0.00000000000E+00 -0.00000000000E+00 -0.34996269501E-01  0.35000000000E-01  0.51099999109E-03 0. -1.
       22    1    1    2    0    0 -0.13410379760E-01  0.17835047294E-02  0.31551874964E-01  0.34329870203E-01  0.00000000000E+00 0.  1.
       22    1    1    2    0    0  0.13384308722E-01 -0.17853178176E-02 -0.32254593464E-01  0.34966925504E-01  0.00000000000E+00 0. -1.
       22    1    1    2    0    0  0.26071038090E-04  0.18130881638E-05  0.70271850042E-03  0.70320429262E-03  0.00000000000E+00 0. -1.
</event>
<event>
 5   0  0.4143600E+04  0.9118800E+02  0.7546771E-02  0.1180000E+00
      -11   -1    0    0    0    0  0.00000000000E+00  0.00000000000E+00  0.34996269501E-01  0.35000000000E-01  0.51099999109E-03 0.  1.
       11   -1    0    0    0    0 -0.00000000000E+00 -0.00000000000E+00 -0.34996269501E-01  0.35000000000E-01  0.51099999109E-03 0. -1.
       22    1    1    2    0    0  0.77986482396E-03 -0.24875770524E-02 -0.14811964366E-02  0.29983614890E-02  0.00000000000E+00 0. -1.
       22    1    1    2    0    0  0.82795739485E-02 -0.10731520869E-01 -0.29308571706E-01  0.32291008972E-01  0.00000000000E+00 0. -1.
       22    1    1    2    0    0 -0.90594387725E-02  0.13219097921E-01  0.30789768143E-01  0.34710629539E-01  0.00000000000E+00 0.  1.
</event>
<event>
 5   0  0.4143600E+04  0.9118800E+02  0.7546771E-02  0.1180000E+00
      -11   -1    0    0    0    0  0.00000000000E+00  0.00000000000E+00  0.34996269501E-01  0.35000000000E-01  0.51099999109E-03 0.  1.
       11   -1    0    0    0    0 -0.00000000000E+00 -0.00000000000E+00 -0.34996269501E-01  0.35000000000E-01  0.51099999109E-03 0. -1.
       22    1    1    2    0    0  0.16779249341E-02  0.37972141114E-03  0.38139154605E-02  0.41839660102E-02  0.00000000000E+00 0.  1.
       22    1    1    2    0    0 -0.18067857034E-02 -0.19052874614E-01 -0.28826820564E-01  0.34601475250E-01  0.00000000000E+00 0. -1.
       22    1    1    2    0    0  0.12886076937E-03  0.18673153203E-01  0.25012905103E-01  0.31214558740E-01  0.00000000000E+00 0.  1.
</event>
<event>
 5   0  0.4143600E+04  0.9118800E+02  0.7546771E-02  0.1180000E+00
      -11   -1    0    0    0    0  0.00000000000E+00  0.00000000000E+00  0.34996269501E-01  0.35000000000E-01  0.51099999109E-03 0. -1.
       11   -1    0    0    0    0 -0.00000000000E+00 -0.00000000000E+00 -0.34996269501E-01  0.35000000000E-01  0.51099999109E-03 0.  1.
       22    1    1    2    0    0  0.10532354991E-01  0.87314001858E-03 -0.27955853956E-01  0.29886830638E-01  0.00000000000E+00 0.  1.
       22    1    1    2    0    0 -0.10470214380E-01 -0.66104936744E-03  0.33223678062E-01  0.34840711235E-01  0.00000000000E+00 0. -1.
       22    1    1    2    0    0 -0.62140611040E-04 -0.21209065114E-03 -0.52678241052E-02  0.52724581272E-02  0.00000000000E+00 0.  1.
</event>
<event>
 5   0  0.4143600E+04  0.9118800E+02  0.7546771E-02  0.1180000E+00
      -11   -1    0    0    0    0  0.00000000000E+00  0.00000000000E+00  0.34996269501E-01  0.35000000000E-01  0.51099999109E-03 0. -1.
       11   -1    0    0    0    0 -0.00000000000E+00 -0.00000000000E+00 -0.34996269501E-01  0.35000000000E-01  0.51099999109E-03 0.  1.
       22    1    1    2    0    0  0.23099513933E-02 -0.27697834618E-02  0.34705918898E-01  0.34892812761E-01  0.00000000000E+00 0. -1.
       22    1    1    2    0    0 -0.28586988266E-02  0.29468868816E-02 -0.33688280636E-01  0.33937539002E-01  0.00000000000E+00 0.  1.
       22    1    1    2    0    0  0.54874743329E-03 -0.17710341982E-03 -0.10176382615E-02  0.11696482369E-02  0.00000000000E+00 0. -1.
</event>
<event>
 5   0  0.4143600E+04  0.9118800E+02  0.7546771E-02  0.1180000E+00
      -11   -1    0    0    0    0  0.00000000000E+00  0.00000000000E+00  0.34996269501E-01  0.35000000000E-01  0.51099999109E-03 0. -1.
       11   -1    0    0    0    0 -0.00000000000E+00 -0.00000000000E+00 -0.34996269501E-01  0.35000000000E-01  0.51099999109E-03 0.  1.
       22    1    1    2    0    0 -0.29340707857E-01 -0.98869440062E-02 -0.24574262732E-02  0.31059100811E-01  0.00000000000E+00 0. -1.
       22    1    1    2    0    0  0.29516493023E-01  0.72800596891E-02  0.91567467105E-02  0.31750096689E-01  0.00000000000E+00 0.  1.
       22    1    1    2    0    0 -0.17578516636E-03  0.26068843171E-02 -0.66993204373E-02  0.71908024997E-02  0.00000000000E+00 0.  1.
</event>
<event>
 5   0  0.4143600E+04  0.9118800E+02  0.7546771E-02  0.1180000E+00
      -11   -1    0    0    0    0  0.00000000000E+00  0.00000000000E+00  0.34996269501E-01  0.35000000000E-01  0.51099999109E-03 0. -1.
       11   -1    0    0    0    0 -0.00000000000E+00 -0.00000000000E+00 -0.34996269501E-01  0.35000000000E-01  0.51099999109E-03 0. -1.
       22    1    1    2    0    0  0.15178952617E-03  0.30706984889E-03  0.34692758897E-01  0.34694449871E-01  0.00000000000E+00 0. -1.
       22    1    1    2    0    0  0.55202638346E-03 -0.14071128729E-02 -0.16526100700E-02  0.22396026006E-02  0.00000000000E+00 0.  1.
       22    1    1    2    0    0 -0.70381590963E-03  0.11000430240E-02 -0.33040148827E-01  0.33065947529E-01  0.00000000000E+00 0. -1.
</event>
<event>
 5   0  0.4143600E+04  0.9118800E+02  0.7546771E-02  0.1180000E+00
      -11   -1    0    0    0    0  0.00000000000E+00  0.00000000000E+00  0.34996269501E-01  0.35000000000E-01  0.51099999109E-03 0.  1.
       11   -1    0    0    0    0 -0.00000000000E+00 -0.00000000000E+00 -0.34996269501E-01  0.35000000000E-01  0.51099999109E-03 0. -1.
       22    1    1    2    0    0  0.35669638285E-02 -0.29802806241E-02  0.25426840490E-02  0.52981643732E-02  0.00000000000E+00 0.  1.
       22    1    1    2    0    0 -0.15206844679E-01  0.13534560666E-01 -0.28100954740E-01  0.34700088109E-01  0.00000000000E+00 0. -1.
       22    1    1    2    0    0  0.11639880850E-01 -0.10554280042E-01  0.25558270691E-01  0.30001747518E-01  0.00000000000E+00 0.  1.
</event>
<event>
 5   0  0.4143600E+04  0.9118800E+02  0.7546771E-02  0.1180000E+00
      -11   -1    0    0    0    0  0.00000000000E+00  0.00000000000E+00  0.34996269501E-01  0.35000000000E-01  0.51099999109E-03 0.  1.
       11   -1    0    0    0    0 -0.00000000000E+00 -0.00000000000E+00 -0.34996269501E-01  0.35000000000E-01  0.51099999109E-03 0. -1.
       22    1    1    2    0    0 -0.33915421920E-02 -0.47202380149E-02  0.34370737939E-01  0.34858726767E-01  0.00000000000E+00 0.  1.
       22    1    1    2    0    0  0.39208491499E-03  0.15794714399E-02 -0.25467475076E-02  0.30223142585E-02  0.00000000000E+00 0. -1.
       22    1    1    2    0    0  0.29994572770E-02  0.31407665749E-02 -0.31823990431E-01  0.32118958974E-01  0.00000000000E+00 0. -1.
</event>
<event>
 5   0  0.4143600E+04  0.9118800E+02  0.7546771E-02  0.1180000E+00
      -11   -1    0    0    0    0  0.00000000000E+00  0.00000000000E+00  0.34996269501E-01  0.35000000000E-01  0.51099999109E-03 0.  1.
       11   -1    0    0    0    0 -0.00000000000E+00 -0.00000000000E+00 -0.34996269501E-01  0.35000000000E-01  0.51099999109E-03 0. -1.
       22    1    1    2    0    0 -0.24750010436E-03 -0.29307219392E-03 -0.13702701983E-03  0.40733771820E-03  0.00000000000E+00 0.  1.
       22    1    1    2    0    0  0.13770809654E-01  0.54126534566E-02 -0.31503135562E-01  0.34804878483E-01  0.00000000000E+00 0. -1.
       22    1    1    2    0    0 -0.13523309549E-01 -0.51195812627E-02  0.31640162582E-01  0.34787783799E-01  0.00000000000E+00 0.  1.
</event>
<event>
 5   0  0.4143600E+04  0.9118800E+02  0.7546771E-02  0.1180000E+00
      -11   -1    0    0    0    0  0.00000000000E+00  0.00000000000E+00  0.34996269501E-01  0.35000000000E-01  0.51099999109E-03 0.  1.
       11   -1    0    0    0    0 -0.00000000000E+00 -0.00000000000E+00 -0.34996269501E-01  0.35000000000E-01  0.51099999109E-03 0. -1.
       22    1    1    2    0    0  0.72252888624E-03  0.48895305411E-03 -0.30080760211E-01  0.30093408879E-01  0.00000000000E+00 0. -1.
       22    1    1    2    0    0 -0.13162635127E-02 -0.16116374116E-02 -0.46804641078E-02  0.51221742498E-02  0.00000000000E+00 0. -1.
       22    1    1    2    0    0  0.59373462648E-03  0.11226843575E-02  0.34761224319E-01  0.34784416872E-01  0.00000000000E+00 0.  1.
</event>
<event>
 5   0  0.4143600E+04  0.9118800E+02  0.7546771E-02  0.1180000E+00
      -11   -1    0    0    0    0  0.00000000000E+00  0.00000000000E+00  0.34996269501E-01  0.35000000000E-01  0.51099999109E-03 0.  1.
       11   -1    0    0    0    0 -0.00000000000E+00 -0.00000000000E+00 -0.34996269501E-01  0.35000000000E-01  0.51099999109E-03 0. -1.
       22    1    1    2    0    0  0.85869986188E-03  0.33826728507E-03 -0.21742357131E-02  0.23620099799E-02  0.00000000000E+00 0.  1.
       22    1    1    2    0    0  0.22995369348E-01 -0.62160950448E-02  0.24694070360E-01  0.34310697457E-01  0.00000000000E+00 0.  1.
       22    1    1    2    0    0 -0.23854069210E-01  0.58778277598E-02 -0.22519834647E-01  0.33327292563E-01  0.00000000000E+00 0. -1.
</event>
<event>
 5   0  0.4143600E+04  0.9118800E+02  0.7546771E-02  0.1180000E+00
      -11   -1    0    0    0    0  0.00000000000E+00  0.00000000000E+00  0.34996269501E-01  0.35000000000E-01  0.51099999109E-03 0. -1.
       11   -1    0    0    0    0 -0.00000000000E+00 -0.00000000000E+00 -0.34996269501E-01  0.35000000000E-01  0.51099999109E-03 0.  1.
       22    1    1    2    0    0 -0.18116037018E-01  0.93399528762E-02  0.21457597687E-01  0.29594830890E-01  0.00000000000E+00 0.  1.
       22    1    1    2    0    0  0.20420841387E-01 -0.15721701522E-01 -0.11185593419E-01  0.28094486324E-01  0.00000000000E+00 0. -1.
       22    1    1    2    0    0 -0.23048043694E-02  0.63817486459E-02 -0.10272004268E-01  0.12310682785E-01  0.00000000000E+00 0. -1.
</event>
<event>
 5   0  0.4143600E+04  0.9118800E+02  0.7546771E-02  0.1180000E+00
      -11   -1    0    0    0    0  0.00000000000E+00  0.00000000000E+00  0.34996269501E-01  0.35000000000E-01  0.51099999109E-03 0. -1.
       11   -1    0    0    0    0 -0.00000000000E+00 -0.00000000000E+00 -0.34996269501E-01  0.35000000000E-01  0.51099999109E-03 0.  1.
       22    1    1    2    0    0 -0.32358641385E-02  0.11086198877E-01 -0.31686782956E-01  0.33725759241E-01  0.00000000000E+00 0.  1.
       22    1    1    2    0    0  0.33356811791E-02 -0.10986988493E-01  0.33006691471E-01  0.34946850602E-01  0.00000000000E+00 0. -1.
       22    1    1    2    0    0 -0.99817040652E-04 -0.99210383977E-04 -0.13199085148E-02  0.13273901572E-02  0.00000000000E+00 0.  1.
</event>
<event>
 5   0  0.4143600E+04  0.9118800E+02  0.7546771E-02  0.1180000E+00
      -11   -1    0    0    0    0  0.00000000000E+00  0.00000000000E+00  0.34996269501E-01  0.35000000000E-01  0.51099999109E-03 0. -1.
       11   -1    0    0    0    0 -0.00000000000E+00 -0.00000000000E+00 -0.34996269501E-01  0.35000000000E-01  0.51099999109E-03 0.  1.
       22    1    1    2    0    0 -0.13039530194E-03  0.38729900058E-02  0.34696934202E-01  0.34912666721E-01  0.00000000000E+00 0. -1.
       22    1    1    2    0    0 -0.13859770646E-03 -0.41717450691E-02 -0.34172826759E-01  0.34426802857E-01  0.00000000000E+00 0.  1.
       22    1    1    2    0    0  0.26899300840E-03  0.29875506330E-03 -0.52410744305E-03  0.66053042192E-03  0.00000000000E+00 0. -1.
</event>
<event>
 5   0  0.4143600E+04  0.9118800E+02  0.7546771E-02  0.1180000E+00
      -11   -1    0    0    0    0  0.00000000000E+00  0.00000000000E+00  0.34996269501E-01  0.35000000000E-01  0.51099999109E-03 0. -1.
       11   -1    0    0    0    0 -0.00000000000E+00 -0.00000000000E+00 -0.34996269501E-01  0.35000000000E-01  0.51099999109E-03 0.  1.
       22    1    1    2    0    0  0.31184194738E-02  0.19903331238E-01 -0.28541164032E-01  0.34935156772E-01  0.00000000000E+00 0.  1.
       22    1    1    2    0    0 -0.30892822555E-02 -0.19932603948E-01  0.27928239466E-01  0.34450528656E-01  0.00000000000E+00 0. -1.
       22    1    1    2    0    0 -0.29137218375E-04  0.29272710462E-04  0.61292456592E-03  0.61431457135E-03  0.00000000000E+00 0.  1.
</event>
<event>
 5   0  0.4143600E+04  0.9118800E+02  0.7546771E-02  0.1180000E+00
      -11   -1    0    0    0    0  0.00000000000E+00  0.00000000000E+00  0.34996269501E-01  0.35000000000E-01  0.51099999109E-03 0. -1.
       11   -1    0    0    0    0 -0.00000000000E+00 -0.00000000000E+00 -0.34996269501E-01  0.35000000000E-01  0.51099999109E-03 0.  1.
       22    1    1    2    0    0 -0.28940965450E-02  0.11779659008E-01  0.32292633837E-01  0.34495657136E-01  0.00000000000E+00 0. -1.
       22    1    1    2    0    0  0.13422882008E-02 -0.81547433823E-03 -0.23499377402E-03  0.15880674054E-02  0.00000000000E+00 0. -1.
       22    1    1    2    0    0  0.15518083442E-02 -0.10964184669E-01 -0.32057640063E-01  0.33916275459E-01  0.00000000000E+00 0.  1.
</event>
<event>
 5   0  0.4143600E+04  0.9118800E+02  0.7546771E-02  0.1180000E+00
      -11   -1    0    0    0    0  0.00000000000E+00  0.00000000000E+00  0.34996269501E-01  0.35000000000E-01  0.51099999109E-03 0.  1.
       11   -1    0    0    0    0 -0.00000000000E+00 -0.00000000000E+00 -0.34996269501E-01  0.35000000000E-01  0.51099999109E-03 0. -1.
       22    1    1    2    0    0  0.58149354509E-02  0.18495203095E-02 -0.29114355947E-01  0.29746931302E-01  0.00000000000E+00 0. -1.
       22    1    1    2    0    0 -0.10915906024E-02 -0.36591119666E-02 -0.47038886444E-02  0.60586499162E-02  0.00000000000E+00 0. -1.
       22    1    1    2    0    0 -0.47233448486E-02  0.18095916572E-02  0.33818244592E-01  0.34194418781E-01  0.00000000000E+00 0.  1.
</event>
<event>
 5   0  0.4143600E+04  0.9118800E+02  0.7546771E-02  0.1180000E+00
      -11   -1    0    0    0    0  0.00000000000E+00  0.00000000000E+00  0.34996269501E-01  0.35000000000E-01  0.51099999109E-03 0.  1.
       11   -1    0    0    0    0 -0.00000000000E+00 -0.00000000000E+00 -0.34996269501E-01  0.35000000000E-01  0.51099999109E-03 0. -1.
       22    1    1    2    0    0  0.10402586096E-02  0.62616842186E-03  0.34951945629E-01  0.34973028581E-01  0.00000000000E+00 0.  1.
       22    1    1    2    0    0 -0.11808355270E-02 -0.36497947933E-03 -0.34142946599E-01  0.34165309672E-01  0.00000000000E+00 0. -1.
       22    1    1    2    0    0  0.14057691743E-03 -0.26118894253E-03 -0.80899903055E-03  0.86166174619E-03  0.00000000000E+00 0. -1.
</event>
<event>
 5   0  0.4143600E+04  0.9118800E+02  0.7546771E-02  0.1180000E+00
      -11   -1    0    0    0    0  0.00000000000E+00  0.00000000000E+00  0.34996269501E-01  0.35000000000E-01  0.51099999109E-03 0. -1.
       11   -1    0    0    0    0 -0.00000000000E+00 -0.00000000000E+00 -0.34996269501E-01  0.35000000000E-01  0.51099999109E-03 0.  1.
       22    1    1    2    0    0 -0.16433013804E-02  0.33267665427E-02 -0.33566811552E-01  0.33771269636E-01  0.00000000000E+00 0.  1.
       22    1    1    2    0    0  0.19270839509E-02 -0.37477560289E-02  0.34716808492E-01  0.34971647369E-01  0.00000000000E+00 0. -1.
       22    1    1    2    0    0 -0.28378257053E-03  0.42098948622E-03 -0.11499969401E-02  0.12570829953E-02  0.00000000000E+00 0.  1.
</event>
<event>
 5   0  0.4143600E+04  0.9118800E+02  0.7546771E-02  0.1180000E+00
      -11   -1    0    0    0    0  0.00000000000E+00  0.00000000000E+00  0.34996269501E-01  0.35000000000E-01  0.51099999109E-03 0. -1.
       11   -1    0    0    0    0 -0.00000000000E+00 -0.00000000000E+00 -0.34996269501E-01  0.35000000000E-01  0.51099999109E-03 0.  1.
       22    1    1    2    0    0  0.35403457639E-04 -0.38965571070E-03 -0.21053768739E-03  0.44430968424E-03  0.00000000000E+00 0.  1.
       22    1    1    2    0    0 -0.12485069573E-01  0.68037841960E-02 -0.31680551714E-01  0.34725002499E-01  0.00000000000E+00 0.  1.
       22    1    1    2    0    0  0.12449666115E-01 -0.64141284853E-02  0.31891089401E-01  0.34830687817E-01  0.00000000000E+00 0. -1.
</event>
<event>
 5   0  0.4143600E+04  0.9118800E+02  0.7546771E-02  0.1180000E+00
      -11   -1    0    0    0    0  0.00000000000E+00  0.00000000000E+00  0.34996269501E-01  0.35000000000E-01  0.51099999109E-03 0.  1.
       11   -1    0    0    0    0 -0.00000000000E+00 -0.00000000000E+00 -0.34996269501E-01  0.35000000000E-01  0.51099999109E-03 0. -1.
       22    1    1    2    0    0  0.23782840276E-03  0.21379467529E-04  0.12957545325E-02  0.13175732386E-02  0.00000000000E+00 0.  1.
       22    1    1    2    0    0 -0.16023704101E-01  0.10368407706E-01  0.27960424954E-01  0.33853335656E-01  0.00000000000E+00 0.  1.
       22    1    1    2    0    0  0.15785875698E-01 -0.10389787174E-01 -0.29256179486E-01  0.34829091105E-01  0.00000000000E+00 0. -1.
</event>
<event>
 5   0  0.4143600E+04  0.9118800E+02  0.7546771E-02  0.1180000E+00
      -11   -1    0    0    0    0  0.00000000000E+00  0.00000000000E+00  0.34996269501E-01  0.35000000000E-01  0.51099999109E-03 0. -1.
       11   -1    0    0    0    0 -0.00000000000E+00 -0.00000000000E+00 -0.34996269501E-01  0.35000000000E-01  0.51099999109E-03 0. -1.
       22    1    1    2    0    0  0.00000000000E+00 -0.00000000000E+00  0.34786503255E-01  0.34783382298E-01  0.00000000000E+00 0. -1.
       22    1    1    2    0    0  0.16603436255E-02  0.40254893214E-03 -0.31171029035E-01  0.31217812827E-01  0.00000000000E+00 0. -1.
       22    1    1    2    0    0 -0.16603436255E-02 -0.40254893214E-03 -0.36154742194E-02  0.39988048750E-02  0.00000000000E+00 0.  1.
</event>
<event>
 5   0  0.4143600E+04  0.9118800E+02  0.7546771E-02  0.1180000E+00
      -11   -1    0    0    0    0  0.00000000000E+00  0.00000000000E+00  0.34996269501E-01  0.35000000000E-01  0.51099999109E-03 0.  1.
       11   -1    0    0    0    0 -0.00000000000E+00 -0.00000000000E+00 -0.34996269501E-01  0.35000000000E-01  0.51099999109E-03 0. -1.
       22    1    1    2    0    0  0.16963336064E-02 -0.13897596817E-01 -0.30419231143E-01  0.33486569970E-01  0.00000000000E+00 0. -1.
       22    1    1    2    0    0 -0.20010747780E-02  0.12405184123E-02  0.19939797005E-01  0.20078313944E-01  0.00000000000E+00 0.  1.
       22    1    1    2    0    0  0.30474117165E-03  0.12657078405E-01  0.10479434138E-01  0.16435116087E-01  0.00000000000E+00 0.  1.
</event>
<event>
 5   0  0.4143600E+04  0.9118800E+02  0.7546771E-02  0.1180000E+00
      -11   -1    0    0    0    0  0.00000000000E+00  0.00000000000E+00  0.34996269501E-01  0.35000000000E-01  0.51099999109E-03 0.  1.
       11   -1    0    0    0    0 -0.00000000000E+00 -0.00000000000E+00 -0.34996269501E-01  0.35000000000E-01  0.51099999109E-03 0. -1.
       22    1    1    2    0    0  0.24825168086E-02  0.14304240461E-01 -0.31732588099E-01  0.34896007398E-01  0.00000000000E+00 0. -1.
       22    1    1    2    0    0 -0.12569630090E-05 -0.25789582044E-04  0.22679994880E-02  0.22681464592E-02  0.00000000000E+00 0. -1.
       22    1    1    2    0    0 -0.24812598456E-02 -0.14278450879E-01  0.29464588611E-01  0.32835846143E-01  0.00000000000E+00 0.  1.
</event>
<event>
 5   0  0.4143600E+04  0.9118800E+02  0.7546771E-02  0.1180000E+00
      -11   -1    0    0    0    0  0.00000000000E+00  0.00000000000E+00  0.34996269501E-01  0.35000000000E-01  0.51099999109E-03 0.  1.
       11   -1    0    0    0    0 -0.00000000000E+00 -0.00000000000E+00 -0.34996269501E-01  0.35000000000E-01  0.51099999109E-03 0. -1.
       22    1    1    2    0    0 -0.13704309501E-01 -0.12367992897E-01 -0.27831803255E-01  0.33397374442E-01  0.00000000000E+00 0. -1.
       22    1    1    2    0    0 -0.77581783890E-03 -0.19213565574E-02 -0.68397957521E-04  0.20732058799E-02  0.00000000000E+00 0. -1.
       22    1    1    2    0    0  0.14480127340E-01  0.14289349454E-01  0.27900201212E-01  0.34529419678E-01  0.00000000000E+00 0.  1.
</event>
<event>
 5   0  0.4143600E+04  0.9118800E+02  0.7546771E-02  0.1180000E+00
      -11   -1    0    0    0    0  0.00000000000E+00  0.00000000000E+00  0.34996269501E-01  0.35000000000E-01  0.51099999109E-03 0.  1.
       11   -1    0    0    0    0 -0.00000000000E+00 -0.00000000000E+00 -0.34996269501E-01  0.35000000000E-01  0.51099999109E-03 0. -1.
       22    1    1    2    0    0 -0.21037093894E-02 -0.73102580700E-03 -0.34209294964E-01  0.34281713112E-01  0.00000000000E+00 0. -1.
       22    1    1    2    0    0  0.16073038886E-02  0.84510381450E-03  0.34851409606E-01  0.34898687336E-01  0.00000000000E+00 0.  1.
       22    1    1    2    0    0  0.49640550075E-03 -0.11407800750E-03 -0.64211464171E-03  0.81959955226E-03  0.00000000000E+00 0.  1.
</event>
<event>
 5   0  0.4143600E+04  0.9118800E+02  0.7546771E-02  0.1180000E+00
      -11   -1    0    0    0    0  0.00000000000E+00  0.00000000000E+00  0.34996269501E-01  0.35000000000E-01  0.51099999109E-03 0. -1.
       11   -1    0    0    0    0 -0.00000000000E+00 -0.00000000000E+00 -0.34996269501E-01  0.35000000000E-01  0.51099999109E-03 0.  1.
       22    1    1    2    0    0  0.46561052530E-03  0.93310318912E-04 -0.68216862395E-02  0.68381944347E-02  0.00000000000E+00 0.  1.
       22    1    1    2    0    0 -0.89127083435E-02 -0.60227778233E-02  0.33166679661E-01  0.34867447031E-01  0.00000000000E+00 0. -1.
       22    1    1    2    0    0  0.84470978182E-02  0.59294675043E-02 -0.26344993422E-01  0.28294358534E-01  0.00000000000E+00 0.  1.
</event>
<event>
 5   0  0.4143600E+04  0.9118800E+02  0.7546771E-02  0.1180000E+00
      -11   -1    0    0    0    0  0.00000000000E+00  0.00000000000E+00  0.34996269501E-01  0.35000000000E-01  0.51099999109E-03 0.  1.
       11   -1    0    0    0    0 -0.00000000000E+00 -0.00000000000E+00 -0.34996269501E-01  0.35000000000E-01  0.51099999109E-03 0. -1.
       22    1    1    2    0    0 -0.83031989097E-03 -0.45923181540E-03  0.34851119349E-01  0.34864033686E-01  0.00000000000E+00 0.  1.
       22    1    1    2    0    0  0.10493943523E-02 -0.52477015905E-03 -0.33058652004E-01  0.33079466207E-01  0.00000000000E+00 0. -1.
       22    1    1    2    0    0 -0.21907446134E-03  0.98400197445E-03 -0.17924673449E-02  0.20565001065E-02  0.00000000000E+00 0. -1.
</event>
<event>
 5   0  0.4143600E+04  0.9118800E+02  0.7546771E-02  0.1180000E+00
      -11   -1    0    0    0    0  0.00000000000E+00  0.00000000000E+00  0.34996269501E-01  0.35000000000E-01  0.51099999109E-03 0. -1.
       11   -1    0    0    0    0 -0.00000000000E+00 -0.00000000000E+00 -0.34996269501E-01  0.35000000000E-01  0.51099999109E-03 0.  1.
       22    1    1    2    0    0  0.58235092930E-03 -0.49687417394E-03 -0.21083412175E-02  0.22430156573E-02  0.00000000000E+00 0.  1.
       22    1    1    2    0    0 -0.15131017806E-02 -0.64128843767E-03  0.34896851607E-01  0.34935526044E-01  0.00000000000E+00 0. -1.
       22    1    1    2    0    0  0.93075085133E-03  0.11381626116E-02 -0.32788510390E-01  0.32821458299E-01  0.00000000000E+00 0.  1.
</event>
<event>
 5   0  0.4143600E+04  0.9118800E+02  0.7546771E-02  0.1180000E+00
      -11   -1    0    0    0    0  0.00000000000E+00  0.00000000000E+00  0.34996269501E-01  0.35000000000E-01  0.51099999109E-03 0.  1.
       11   -1    0    0    0    0 -0.00000000000E+00 -0.00000000000E+00 -0.34996269501E-01  0.35000000000E-01  0.51099999109E-03 0. -1.
       22    1    1    2    0    0  0.81696542961E-03 -0.14125730782E-01 -0.22345424588E-02  0.14324694853E-01  0.00000000000E+00 0.  1.
       22    1    1    2    0    0 -0.12871373739E-02 -0.30520537527E-02  0.26076433483E-01  0.26285968461E-01  0.00000000000E+00 0.  1.
       22    1    1    2    0    0  0.47017194429E-03  0.17177784535E-01 -0.23841891025E-01  0.29389336685E-01  0.00000000000E+00 0. -1.
</event>
<event>
 5   0  0.4143600E+04  0.9118800E+02  0.7546771E-02  0.1180000E+00
      -11   -1    0    0    0    0  0.00000000000E+00  0.00000000000E+00  0.34996269501E-01  0.35000000000E-01  0.51099999109E-03 0. -1.
       11   -1    0    0    0    0 -0.00000000000E+00 -0.00000000000E+00 -0.34996269501E-01  0.35000000000E-01  0.51099999109E-03 0.  1.
       22    1    1    2    0    0 -0.63066910308E-02 -0.19198513071E-01  0.14399200783E-01  0.24813186798E-01  0.00000000000E+00 0. -1.
       22    1    1    2    0    0  0.58154430195E-02  0.19022191257E-01 -0.26466636578E-01  0.33108095528E-01  0.00000000000E+00 0.  1.
       22    1    1    2    0    0  0.49124801128E-03  0.17632181403E-03  0.12067435795E-01  0.12078717674E-01  0.00000000000E+00 0.  1.
</event>
<event>
 5   0  0.4143600E+04  0.9118800E+02  0.7546771E-02  0.1180000E+00
      -11   -1    0    0    0    0  0.00000000000E+00  0.00000000000E+00  0.34996269501E-01  0.35000000000E-01  0.51099999109E-03 0. -1.
       11   -1    0    0    0    0 -0.00000000000E+00 -0.00000000000E+00 -0.34996269501E-01  0.35000000000E-01  0.51099999109E-03 0.  1.
       22    1    1    2    0    0 -0.34665026477E-03  0.27786719247E-03  0.10921871021E-02  0.11790883125E-02  0.00000000000E+00 0.  1.
       22    1    1    2    0    0  0.11114705083E-01  0.18418934661E-01  0.26283408855E-01  0.33964855426E-01  0.00000000000E+00 0. -1.
       22    1    1    2    0    0 -0.10768054818E-01 -0.18696801853E-01 -0.27375595957E-01  0.34856056261E-01  0.00000000000E+00 0.  1.
</event>
<event>
 5   0  0.4143600E+04  0.9118800E+02  0.7546771E-02  0.1180000E+00
      -11   -1    0    0    0    0  0.00000000000E+00  0.00000000000E+00  0.34996269501E-01  0.35000000000E-01  0.51099999109E-03 0. -1.
       11   -1    0    0    0    0 -0.00000000000E+00 -0.00000000000E+00 -0.34996269501E-01  0.35000000000E-01  0.51099999109E-03 0. -1.
       22    1    1    2    0    0  0.26274936361E-03 -0.14651455339E-03 -0.34114599369E-01  0.34115925810E-01  0.00000000000E+00 0. -1.
       22    1    1    2    0    0 -0.00000000000E+00 -0.00000000000E+00  0.34974637535E-01  0.34972937873E-01  0.00000000000E+00 0. -1.
       22    1    1    2    0    0 -0.26274936361E-03  0.14651455339E-03 -0.86003816588E-03  0.91113631758E-03  0.00000000000E+00 0.  1.
</event>
<event>
 5   0  0.4143600E+04  0.9118800E+02  0.7546771E-02  0.1180000E+00
      -11   -1    0    0    0    0  0.00000000000E+00  0.00000000000E+00  0.34996269501E-01  0.35000000000E-01  0.51099999109E-03 0. -1.
       11   -1    0    0    0    0 -0.00000000000E+00 -0.00000000000E+00 -0.34996269501E-01  0.35000000000E-01  0.51099999109E-03 0.  1.
       22    1    1    2    0    0  0.32776261129E-02 -0.14418248300E-02  0.34781458987E-01  0.34965291091E-01  0.00000000000E+00 0. -1.
       22    1    1    2    0    0 -0.17153969009E-03 -0.11710933700E-03 -0.23399144548E-03  0.31287770558E-03  0.00000000000E+00 0.  1.
       22    1    1    2    0    0 -0.31060864228E-02  0.15589341670E-02 -0.34547467542E-01  0.34721831204E-01  0.00000000000E+00 0.  1.
</event>
<event>
 5   0  0.4143600E+04  0.9118800E+02  0.7546771E-02  0.1180000E+00
      -11   -1    0    0    0    0  0.00000000000E+00  0.00000000000E+00  0.34996269501E-01  0.35000000000E-01  0.51099999109E-03 0.  1.
       11   -1    0    0    0    0 -0.00000000000E+00 -0.00000000000E+00 -0.34996269501E-01  0.35000000000E-01  0.51099999109E-03 0. -1.
       22    1    1    2    0    0 -0.28292380699E-02 -0.47697415828E-02 -0.12163367390E-01  0.13367966527E-01  0.00000000000E+00 0.  1.
       22    1    1    2    0    0 -0.11891993789E-02 -0.20990543614E-03  0.33926358311E-01  0.33947842991E-01  0.00000000000E+00 0.  1.
       22    1    1    2    0    0  0.40184374488E-02  0.49796470189E-02 -0.21762990922E-01  0.22684190482E-01  0.00000000000E+00 0. -1.
</event>
<event>
 5   0  0.4143600E+04  0.9118800E+02  0.7546771E-02  0.1180000E+00
      -11   -1    0    0    0    0  0.00000000000E+00  0.00000000000E+00  0.34996269501E-01  0.35000000000E-01  0.51099999109E-03 0. -1.
       11   -1    0    0    0    0 -0.00000000000E+00 -0.00000000000E+00 -0.34996269501E-01  0.35000000000E-01  0.51099999109E-03 0.  1.
       22    1    1    2    0    0 -0.25503297375E-02 -0.39310135313E-02 -0.12563557848E-01  0.13408953537E-01  0.00000000000E+00 0. -1.
       22    1    1    2    0    0  0.21488610132E-02  0.81936201318E-04  0.34373359923E-01  0.34440560239E-01  0.00000000000E+00 0. -1.
       22    1    1    2    0    0  0.40146872433E-03  0.38490773300E-02 -0.21809802075E-01  0.22150486224E-01  0.00000000000E+00 0.  1.
</event>
<event>
 5   0  0.4143600E+04  0.9118800E+02  0.7546771E-02  0.1180000E+00
      -11   -1    0    0    0    0  0.00000000000E+00  0.00000000000E+00  0.34996269501E-01  0.35000000000E-01  0.51099999109E-03 0.  1.
       11   -1    0    0    0    0 -0.00000000000E+00 -0.00000000000E+00 -0.34996269501E-01  0.35000000000E-01  0.51099999109E-03 0. -1.
       22    1    1    2    0    0  0.12772288379E-01  0.14948142224E-02 -0.19338927167E-02  0.13004067096E-01  0.00000000000E+00 0.  1.
       22    1    1    2    0    0  0.78118094428E-03 -0.57281196314E-03  0.27780150647E-01  0.27797034503E-01  0.00000000000E+00 0.  1.
       22    1    1    2    0    0 -0.13553469323E-01 -0.92200225925E-03 -0.25846257930E-01  0.29198898401E-01  0.00000000000E+00 0. -1.
</event>
<event>
 5   0  0.4143600E+04  0.9118800E+02  0.7546771E-02  0.1180000E+00
      -11   -1    0    0    0    0  0.00000000000E+00  0.00000000000E+00  0.34996269501E-01  0.35000000000E-01  0.51099999109E-03 0.  1.
       11   -1    0    0    0    0 -0.00000000000E+00 -0.00000000000E+00 -0.34996269501E-01  0.35000000000E-01  0.51099999109E-03 0. -1.
       22    1    1    2    0    0 -0.54492862148E-02 -0.17522576805E-01 -0.24998081478E-01  0.31010312732E-01  0.00000000000E+00 0. -1.
       22    1    1    2    0    0  0.54712737532E-04  0.71131374212E-03  0.20838515951E-01  0.20850724394E-01  0.00000000000E+00 0.  1.
       22    1    1    2    0    0  0.53945734773E-02  0.16811263063E-01  0.41595655270E-02  0.18138962874E-01  0.00000000000E+00 0.  1.
</event>
<event>
 5   0  0.4143600E+04  0.9118800E+02  0.7546771E-02  0.1180000E+00
      -11   -1    0    0    0    0  0.00000000000E+00  0.00000000000E+00  0.34996269501E-01  0.35000000000E-01  0.51099999109E-03 0.  1.
       11   -1    0    0    0    0 -0.00000000000E+00 -0.00000000000E+00 -0.34996269501E-01  0.35000000000E-01  0.51099999109E-03 0. -1.
       22    1    1    2    0    0  0.38857750041E-02 -0.66064049664E-02 -0.12965833565E-01  0.15061761982E-01  0.00000000000E+00 0.  1.
       22    1    1    2    0    0  0.79674397132E-03  0.25641022009E-03  0.33205036033E-01  0.33215583167E-01  0.00000000000E+00 0.  1.
       22    1    1    2    0    0 -0.46825189754E-02  0.63499947463E-02 -0.20239202468E-01  0.21722654851E-01  0.00000000000E+00 0. -1.
</event>
<event>
 5   0  0.4143600E+04  0.9118800E+02  0.7546771E-02  0.1180000E+00
      -11   -1    0    0    0    0  0.00000000000E+00  0.00000000000E+00  0.34996269501E-01  0.35000000000E-01  0.51099999109E-03 0. -1.
       11   -1    0    0    0    0 -0.00000000000E+00 -0.00000000000E+00 -0.34996269501E-01  0.35000000000E-01  0.51099999109E-03 0.  1.
       22    1    1    2    0    0 -0.10635051366E-03  0.11843336018E-02 -0.10730222055E-02  0.16016657471E-02  0.00000000000E+00 0. -1.
       22    1    1    2    0    0  0.94869534908E-02  0.71525507849E-02 -0.31406406068E-01  0.33578618366E-01  0.00000000000E+00 0.  1.
       22    1    1    2    0    0 -0.93806029771E-02 -0.83368843867E-02  0.32479428273E-01  0.34819715887E-01  0.00000000000E+00 0. -1.
</event>
<event>
 5   0  0.4143600E+04  0.9118800E+02  0.7546771E-02  0.1180000E+00
      -11   -1    0    0    0    0  0.00000000000E+00  0.00000000000E+00  0.34996269501E-01  0.35000000000E-01  0.51099999109E-03 0.  1.
       11   -1    0    0    0    0 -0.00000000000E+00 -0.00000000000E+00 -0.34996269501E-01  0.35000000000E-01  0.51099999109E-03 0. -1.
       22    1    1    2    0    0 -0.27771541662E-02 -0.10766188104E-01  0.31522856250E-01  0.33426245043E-01  0.00000000000E+00 0.  1.
       22    1    1    2    0    0 -0.39371353368E-02 -0.12653629024E-02 -0.38021463279E-02  0.56176947793E-02  0.00000000000E+00 0. -1.
       22    1    1    2    0    0  0.67142895030E-02  0.12031551006E-01 -0.27720709922E-01  0.30956060177E-01  0.00000000000E+00 0. -1.
</event>
<event>
 5   0  0.4143600E+04  0.9118800E+02  0.7546771E-02  0.1180000E+00
      -11   -1    0    0    0    0  0.00000000000E+00  0.00000000000E+00  0.34996269501E-01  0.35000000000E-01  0.51099999109E-03 0. -1.
       11   -1    0    0    0    0 -0.00000000000E+00 -0.00000000000E+00 -0.34996269501E-01  0.35000000000E-01  0.51099999109E-03 0.  1.
       22    1    1    2    0    0  0.13100872782E-01 -0.14297949123E-01  0.23575479013E-01  0.30526503689E-01  0.00000000000E+00 0. -1.
       22    1    1    2    0    0 -0.13220890100E-01  0.14383983515E-01 -0.28496333829E-01  0.34550426314E-01  0.00000000000E+00 0.  1.
       22    1    1    2    0    0  0.12001731787E-03 -0.86034391794E-04  0.49208548157E-02  0.49230699965E-02  0.00000000000E+00 0.  1.
</event>
<event>
 5   0  0.4143600E+04  0.9118800E+02  0.7546771E-02  0.1180000E+00
      -11   -1    0    0    0    0  0.00000000000E+00  0.00000000000E+00  0.34996269501E-01  0.35000000000E-01  0.51099999109E-03 0.  1.
       11   -1    0    0    0    0 -0.00000000000E+00 -0.00000000000E+00 -0.34996269501E-01  0.35000000000E-01  0.51099999109E-03 0. -1.
       22    1    1    2    0    0 -0.50092301005E-02 -0.30243304388E-02 -0.12227265908E-02  0.59777940010E-02  0.00000000000E+00 0. -1.
       22    1    1    2    0    0 -0.94574108039E-02  0.19438271509E-02  0.30151577849E-01  0.31659733573E-01  0.00000000000E+00 0.  1.
       22    1    1    2    0    0  0.14466640904E-01  0.10805032880E-02 -0.28928851258E-01  0.32362472426E-01  0.00000000000E+00 0. -1.
</event>
<event>
 5   0  0.4143600E+04  0.9118800E+02  0.7546771E-02  0.1180000E+00
      -11   -1    0    0    0    0  0.00000000000E+00  0.00000000000E+00  0.34996269501E-01  0.35000000000E-01  0.51099999109E-03 0.  1.
       11   -1    0    0    0    0 -0.00000000000E+00 -0.00000000000E+00 -0.34996269501E-01  0.35000000000E-01  0.51099999109E-03 0. -1.
       22    1    1    2    0    0 -0.31354408784E-02  0.24076977085E-02  0.34757618412E-01  0.34981710012E-01  0.00000000000E+00 0.  1.
       22    1    1    2    0    0 -0.91216450071E-04  0.73521371445E-04 -0.31659644275E-03  0.33757834703E-03  0.00000000000E+00 0. -1.
       22    1    1    2    0    0  0.32266573285E-02 -0.24812190799E-02 -0.34441021969E-01  0.34680711640E-01  0.00000000000E+00 0. -1.
</event>
<event>
 5   0  0.4143600E+04  0.9118800E+02  0.7546771E-02  0.1180000E+00
      -11   -1    0    0    0    0  0.00000000000E+00  0.00000000000E+00  0.34996269501E-01  0.35000000000E-01  0.51099999109E-03 0.  1.
       11   -1    0    0    0    0 -0.00000000000E+00 -0.00000000000E+00 -0.34996269501E-01  0.35000000000E-01  0.51099999109E-03 0. -1.
       22    1    1    2    0    0  0.70257374312E-02  0.10953164900E-01 -0.31806610983E-01  0.34365583219E-01  0.00000000000E+00 0. -1.
       22    1    1    2    0    0 -0.82640649394E-02 -0.10666195185E-01  0.22457383027E-01  0.26199170625E-01  0.00000000000E+00 0.  1.
       22    1    1    2    0    0  0.12383275082E-02 -0.28696971564E-03  0.93492279560E-02  0.94352461551E-02  0.00000000000E+00 0.  1.
</event>
<event>
 5   0  0.4143600E+04  0.9118800E+02  0.7546771E-02  0.1180000E+00
      -11   -1    0    0    0    0  0.00000000000E+00  0.00000000000E+00  0.34996269501E-01  0.35000000000E-01  0.51099999109E-03 0. -1.
       11   -1    0    0    0    0 -0.00000000000E+00 -0.00000000000E+00 -0.34996269501E-01  0.35000000000E-01  0.51099999109E-03 0.  1.
       22    1    1    2    0    0  0.10041715836E-03  0.16218388997E-03  0.65635560028E-03  0.68351290688E-03  0.00000000000E+00 0. -1.
       22    1    1    2    0    0  0.16108229242E-01 -0.16426812919E-01  0.25611224697E-01  0.34427460878E-01  0.00000000000E+00 0. -1.
       22    1    1    2    0    0 -0.16208646400E-01  0.16264629029E-01 -0.26267580297E-01  0.34889026216E-01  0.00000000000E+00 0.  1.
</event>
<event>
 5   0  0.4143600E+04  0.9118800E+02  0.7546771E-02  0.1180000E+00
      -11   -1    0    0    0    0  0.00000000000E+00  0.00000000000E+00  0.34996269501E-01  0.35000000000E-01  0.51099999109E-03 0. -1.
       11   -1    0    0    0    0 -0.00000000000E+00 -0.00000000000E+00 -0.34996269501E-01  0.35000000000E-01  0.51099999109E-03 0.  1.
       22    1    1    2    0    0 -0.64856335416E-02 -0.14752275682E-01 -0.17929050911E-01  0.24106927361E-01  0.00000000000E+00 0.  1.
       22    1    1    2    0    0 -0.71594486529E-03  0.47170909813E-02 -0.12324174679E-01  0.13215476000E-01  0.00000000000E+00 0. -1.
       22    1    1    2    0    0  0.72015784069E-02  0.10035184701E-01  0.30253225590E-01  0.32677596639E-01  0.00000000000E+00 0. -1.
</event>
<event>
 5   0  0.4143600E+04  0.9118800E+02  0.7546771E-02  0.1180000E+00
      -11   -1    0    0    0    0  0.00000000000E+00  0.00000000000E+00  0.34996269501E-01  0.35000000000E-01  0.51099999109E-03 0. -1.
       11   -1    0    0    0    0 -0.00000000000E+00 -0.00000000000E+00 -0.34996269501E-01  0.35000000000E-01  0.51099999109E-03 0.  1.
       22    1    1    2    0    0  0.13769104757E-01  0.66104412791E-02 -0.30549513260E-01  0.34154925562E-01  0.00000000000E+00 0.  1.
       22    1    1    2    0    0 -0.15070104680E-02  0.61463530722E-03  0.13668296327E-01  0.13764853127E-01  0.00000000000E+00 0. -1.
       22    1    1    2    0    0 -0.12262094289E-01 -0.72250765863E-02  0.16881216932E-01  0.22080221311E-01  0.00000000000E+00 0. -1.
</event>
<event>
 5   0  0.4143600E+04  0.9118800E+02  0.7546771E-02  0.1180000E+00
      -11   -1    0    0    0    0  0.00000000000E+00  0.00000000000E+00  0.34996269501E-01  0.35000000000E-01  0.51099999109E-03 0.  1.
       11   -1    0    0    0    0 -0.00000000000E+00 -0.00000000000E+00 -0.34996269501E-01  0.35000000000E-01  0.51099999109E-03 0. -1.
       22    1    1    2    0    0  0.11148363311E-01  0.15552453197E-01 -0.28562099532E-01  0.34379620921E-01  0.00000000000E+00 0. -1.
       22    1    1    2    0    0 -0.36178464735E-03  0.25774635980E-03  0.60742082106E-02  0.60904291066E-02  0.00000000000E+00 0. -1.
       22    1    1    2    0    0 -0.10786578663E-01 -0.15810199557E-01  0.22487891322E-01  0.29529949973E-01  0.00000000000E+00 0.  1.
</event>
<event>
 5   0  0.4143600E+04  0.9118800E+02  0.7546771E-02  0.1180000E+00
      -11   -1    0    0    0    0  0.00000000000E+00  0.00000000000E+00  0.34996269501E-01  0.35000000000E-01  0.51099999109E-03 0. -1.
       11   -1    0    0    0    0 -0.00000000000E+00 -0.00000000000E+00 -0.34996269501E-01  0.35000000000E-01  0.51099999109E-03 0.  1.
       22    1    1    2    0    0 -0.79475300290E-04 -0.13930108028E-01  0.31078691991E-01  0.34057881935E-01  0.00000000000E+00 0. -1.
       22    1    1    2    0    0  0.16903365525E-03  0.14048700749E-01 -0.32031757218E-01  0.34977536156E-01  0.00000000000E+00 0.  1.
       22    1    1    2    0    0 -0.89558354959E-04 -0.11859272072E-03  0.95306522698E-03  0.96458190903E-03  0.00000000000E+00 0.  1.
</event>
<event>
 5   0  0.4143600E+04  0.9118800E+02  0.7546771E-02  0.1180000E+00
      -11   -1    0    0    0    0  0.00000000000E+00  0.00000000000E+00  0.34996269501E-01  0.35000000000E-01  0.51099999109E-03 0. -1.
       11   -1    0    0    0    0 -0.00000000000E+00 -0.00000000000E+00 -0.34996269501E-01  0.35000000000E-01  0.51099999109E-03 0.  1.
       22    1    1    2    0    0 -0.13849046748E-01  0.17210628747E-02 -0.88583945795E-02  0.16529649354E-01  0.00000000000E+00 0. -1.
       22    1    1    2    0    0  0.13980070622E-01 -0.19708129957E-02 -0.20071218928E-01  0.24539362414E-01  0.00000000000E+00 0.  1.
       22    1    1    2    0    0 -0.13102387436E-03  0.24975012097E-03  0.28929613507E-01  0.28930988232E-01  0.00000000000E+00 0. -1.
</event>
<event>
 5   0  0.4143600E+04  0.9118800E+02  0.7546771E-02  0.1180000E+00
      -11   -1    0    0    0    0  0.00000000000E+00  0.00000000000E+00  0.34996269501E-01  0.35000000000E-01  0.51099999109E-03 0. -1.
       11   -1    0    0    0    0 -0.00000000000E+00 -0.00000000000E+00 -0.34996269501E-01  0.35000000000E-01  0.51099999109E-03 0.  1.
       22    1    1    2    0    0  0.22296430792E-01 -0.59494884088E-02 -0.25497237034E-01  0.34389480001E-01  0.00000000000E+00 0.  1.
       22    1    1    2    0    0  0.40598104499E-03 -0.33406894969E-03 -0.35620004836E-03  0.63505995504E-03  0.00000000000E+00 0. -1.
       22    1    1    2    0    0 -0.22702411837E-01  0.62835573585E-02  0.25853437083E-01  0.34975460044E-01  0.00000000000E+00 0. -1.
</event>
<event>
 5   0  0.4143600E+04  0.9118800E+02  0.7546771E-02  0.1180000E+00
      -11   -1    0    0    0    0  0.00000000000E+00  0.00000000000E+00  0.34996269501E-01  0.35000000000E-01  0.51099999109E-03 0.  1.
       11   -1    0    0    0    0 -0.00000000000E+00 -0.00000000000E+00 -0.34996269501E-01  0.35000000000E-01  0.51099999109E-03 0. -1.
       22    1    1    2    0    0 -0.10688907093E-01  0.95952309892E-02  0.29377118715E-01  0.32700707891E-01  0.00000000000E+00 0.  1.
       22    1    1    2    0    0 -0.88170304175E-03 -0.57124471872E-03  0.22228775735E-02  0.24586389506E-02  0.00000000000E+00 0. -1.
       22    1    1    2    0    0  0.11570610135E-01 -0.90239862705E-02 -0.31599996288E-01  0.34840653159E-01  0.00000000000E+00 0. -1.
</event>
<event>
 5   0  0.4143600E+04  0.9118800E+02  0.7546771E-02  0.1180000E+00
      -11   -1    0    0    0    0  0.00000000000E+00  0.00000000000E+00  0.34996269501E-01  0.35000000000E-01  0.51099999109E-03 0.  1.
       11   -1    0    0    0    0 -0.00000000000E+00 -0.00000000000E+00 -0.34996269501E-01  0.35000000000E-01  0.51099999109E-03 0. -1.
       22    1    1    2    0    0 -0.16722402221E-03  0.27599419955E-03  0.10263404029E-02  0.10758769885E-02  0.00000000000E+00 0.  1.
       22    1    1    2    0    0  0.11174610799E-01 -0.17976863435E-01 -0.27832834931E-01  0.34967216729E-01  0.00000000000E+00 0. -1.
       22    1    1    2    0    0 -0.11007386777E-01  0.17700869236E-01  0.26806494529E-01  0.33956906282E-01  0.00000000000E+00 0.  1.
</event>
<event>
 5   0  0.4143600E+04  0.9118800E+02  0.7546771E-02  0.1180000E+00
      -11   -1    0    0    0    0  0.00000000000E+00  0.00000000000E+00  0.34996269501E-01  0.35000000000E-01  0.51099999109E-03 0. -1.
       11   -1    0    0    0    0 -0.00000000000E+00 -0.00000000000E+00 -0.34996269501E-01  0.35000000000E-01  0.51099999109E-03 0.  1.
       22    1    1    2    0    0 -0.79124776344E-02  0.43534750403E-02 -0.29280868620E-01  0.30641953502E-01  0.00000000000E+00 0.  1.
       22    1    1    2    0    0  0.63525131627E-02 -0.61051410872E-02  0.33441018142E-01  0.34582204464E-01  0.00000000000E+00 0. -1.
       22    1    1    2    0    0  0.15599644717E-02  0.17516660470E-02 -0.41601495221E-02  0.47758420345E-02  0.00000000000E+00 0. -1.
</event>
<event>
 5   0  0.4143600E+04  0.9118800E+02  0.7546771E-02  0.1180000E+00
      -11   -1    0    0    0    0  0.00000000000E+00  0.00000000000E+00  0.34996269501E-01  0.35000000000E-01  0.51099999109E-03 0. -1.
       11   -1    0    0    0    0 -0.00000000000E+00 -0.00000000000E+00 -0.34996269501E-01  0.35000000000E-01  0.51099999109E-03 0.  1.
       22    1    1    2    0    0 -0.10665769407E-01 -0.26730041333E-01  0.14271767228E-01  0.32123777588E-01  0.00000000000E+00 0. -1.
       22    1    1    2    0    0  0.26718230566E-02  0.16581361930E-01 -0.17811414480E-01  0.24481149639E-01  0.00000000000E+00 0.  1.
       22    1    1    2    0    0  0.79939463508E-02  0.10148679404E-01  0.35396472523E-02  0.13395072772E-01  0.00000000000E+00 0.  1.
</event>
<event>
 5   0  0.4143600E+04  0.9118800E+02  0.7546771E-02  0.1180000E+00
      -11   -1    0    0    0    0  0.00000000000E+00  0.00000000000E+00  0.34996269501E-01  0.35000000000E-01  0.51099999109E-03 0.  1.
       11   -1    0    0    0    0 -0.00000000000E+00 -0.00000000000E+00 -0.34996269501E-01  0.35000000000E-01  0.51099999109E-03 0. -1.
       22    1    1    2    0    0 -0.17045796952E-01  0.55913951642E-03 -0.30246878466E-01  0.34723846095E-01  0.00000000000E+00 0. -1.
       22    1    1    2    0    0  0.16712682772E-01 -0.97040505837E-03  0.25527421570E-01  0.30527114233E-01  0.00000000000E+00 0.  1.
       22    1    1    2    0    0  0.33311417999E-03  0.41126554196E-03  0.47194568961E-02  0.47490396711E-02  0.00000000000E+00 0.  1.
</event>
<event>
 5   0  0.4143600E+04  0.9118800E+02  0.7546771E-02  0.1180000E+00
      -11   -1    0    0    0    0  0.00000000000E+00  0.00000000000E+00  0.34996269501E-01  0.35000000000E-01  0.51099999109E-03 0.  1.
       11   -1    0    0    0    0 -0.00000000000E+00 -0.00000000000E+00 -0.34996269501E-01  0.35000000000E-01  0.51099999109E-03 0. -1.
       22    1    1    2    0    0  0.30125602612E-03 -0.20957307036E-03 -0.46402937835E-03  0.59160741127E-03  0.00000000000E+00 0. -1.
       22    1    1    2    0    0  0.33086571038E-01  0.62560294632E-02  0.80901252465E-02  0.34631044082E-01  0.00000000000E+00 0. -1.
       22    1    1    2    0    0 -0.33387827064E-01 -0.60464563928E-02 -0.76260958681E-02  0.34777348507E-01  0.00000000000E+00 0.  1.
</event>
<event>
 5   0  0.4143600E+04  0.9118800E+02  0.7546771E-02  0.1180000E+00
      -11   -1    0    0    0    0  0.00000000000E+00  0.00000000000E+00  0.34996269501E-01  0.35000000000E-01  0.51099999109E-03 0.  1.
       11   -1    0    0    0    0 -0.00000000000E+00 -0.00000000000E+00 -0.34996269501E-01  0.35000000000E-01  0.51099999109E-03 0. -1.
       22    1    1    2    0    0  0.89380643478E-03  0.84442549160E-03 -0.34048293343E-01  0.34070489047E-01  0.00000000000E+00 0. -1.
       22    1    1    2    0    0 -0.65845104901E-03 -0.10566379381E-02  0.34950808248E-01  0.34972975834E-01  0.00000000000E+00 0.  1.
       22    1    1    2    0    0 -0.23535538578E-03  0.21221244647E-03 -0.90251490494E-03  0.95653511890E-03  0.00000000000E+00 0.  1.
</event>
<event>
 5   0  0.4143600E+04  0.9118800E+02  0.7546771E-02  0.1180000E+00
      -11   -1    0    0    0    0  0.00000000000E+00  0.00000000000E+00  0.34996269501E-01  0.35000000000E-01  0.51099999109E-03 0.  1.
       11   -1    0    0    0    0 -0.00000000000E+00 -0.00000000000E+00 -0.34996269501E-01  0.35000000000E-01  0.51099999109E-03 0. -1.
       22    1    1    2    0    0 -0.14192968544E-02 -0.19359790376E-01 -0.28653120398E-01  0.34609495741E-01  0.00000000000E+00 0. -1.
       22    1    1    2    0    0  0.14830925971E-02  0.19667695052E-01  0.25578299716E-01  0.32299647191E-01  0.00000000000E+00 0.  1.
       22    1    1    2    0    0 -0.63795742652E-04 -0.30790467627E-03  0.30748206816E-02  0.30908570673E-02  0.00000000000E+00 0. -1.
</event>
<event>
 5   0  0.4143600E+04  0.9118800E+02  0.7546771E-02  0.1180000E+00
      -11   -1    0    0    0    0  0.00000000000E+00  0.00000000000E+00  0.34996269501E-01  0.35000000000E-01  0.51099999109E-03 0.  1.
       11   -1    0    0    0    0 -0.00000000000E+00 -0.00000000000E+00 -0.34996269501E-01  0.35000000000E-01  0.51099999109E-03 0. -1.
       22    1    1    2    0    0 -0.20712399451E-04  0.18021588127E-03 -0.51772406259E-03  0.54858451704E-03  0.00000000000E+00 0. -1.
       22    1    1    2    0    0  0.12241065691E-01  0.45614225884E-02 -0.31906867477E-01  0.34477506544E-01  0.00000000000E+00 0. -1.
       22    1    1    2    0    0 -0.12220353291E-01 -0.47416384696E-02  0.32424591540E-01  0.34973908939E-01  0.00000000000E+00 0.  1.
</event>
<event>
 5   0  0.4143600E+04  0.9118800E+02  0.7546771E-02  0.1180000E+00
      -11   -1    0    0    0    0  0.00000000000E+00  0.00000000000E+00  0.34996269501E-01  0.35000000000E-01  0.51099999109E-03 0. -1.
       11   -1    0    0    0    0 -0.00000000000E+00 -0.00000000000E+00 -0.34996269501E-01  0.35000000000E-01  0.51099999109E-03 0.  1.
       22    1    1    2    0    0  0.11558909252E-02  0.14858065628E-01  0.15950622850E-01  0.21829351052E-01  0.00000000000E+00 0. -1.
       22    1    1    2    0    0 -0.11936136000E-02 -0.16173563678E-01 -0.29976990901E-01  0.34082676816E-01  0.00000000000E+00 0.  1.
       22    1    1    2    0    0  0.37722674819E-04  0.13154980497E-02  0.14026368050E-01  0.14087972132E-01  0.00000000000E+00 0. -1.
</event>
<event>
 5   0  0.4143600E+04  0.9118800E+02  0.7546771E-02  0.1180000E+00
      -11   -1    0    0    0    0  0.00000000000E+00  0.00000000000E+00  0.34996269501E-01  0.35000000000E-01  0.51099999109E-03 0. -1.
       11   -1    0    0    0    0 -0.00000000000E+00 -0.00000000000E+00 -0.34996269501E-01  0.35000000000E-01  0.51099999109E-03 0.  1.
       22    1    1    2    0    0  0.16621834826E-02  0.58374785970E-03  0.20300903774E-02  0.26879141418E-02  0.00000000000E+00 0. -1.
       22    1    1    2    0    0 -0.28068347537E-02  0.19165267752E-01 -0.28381752896E-01  0.34361456704E-01  0.00000000000E+00 0.  1.
       22    1    1    2    0    0  0.11446512712E-02 -0.19749015612E-01  0.26351662519E-01  0.32950629154E-01  0.00000000000E+00 0. -1.
</event>
<event>
 5   0  0.4143600E+04  0.9118800E+02  0.7546771E-02  0.1180000E+00
      -11   -1    0    0    0    0  0.00000000000E+00  0.00000000000E+00  0.34996269501E-01  0.35000000000E-01  0.51099999109E-03 0.  1.
       11   -1    0    0    0    0 -0.00000000000E+00 -0.00000000000E+00 -0.34996269501E-01  0.35000000000E-01  0.51099999109E-03 0. -1.
       22    1    1    2    0    0  0.14284568714E-01  0.80589731163E-02  0.30829617982E-01  0.34920786015E-01  0.00000000000E+00 0.  1.
       22    1    1    2    0    0  0.46721272751E-04 -0.72447497680E-04 -0.12608682736E-02  0.12638118217E-02  0.00000000000E+00 0. -1.
       22    1    1    2    0    0 -0.14331289987E-01 -0.79865256186E-02 -0.29568749708E-01  0.33815402163E-01  0.00000000000E+00 0. -1.
</event>
<event>
 5   0  0.4143600E+04  0.9118800E+02  0.7546771E-02  0.1180000E+00
      -11   -1    0    0    0    0  0.00000000000E+00  0.00000000000E+00  0.34996269501E-01  0.35000000000E-01  0.51099999109E-03 0.  1.
       11   -1    0    0    0    0 -0.00000000000E+00 -0.00000000000E+00 -0.34996269501E-01  0.35000000000E-01  0.51099999109E-03 0. -1.
       22    1    1    2    0    0 -0.38932431051E-04 -0.62121377764E-05  0.13825498883E-02  0.13831118966E-02  0.00000000000E+00 0.  1.
       22    1    1    2    0    0 -0.68589219380E-02 -0.14893877991E-01  0.29437343456E-01  0.33696136300E-01  0.00000000000E+00 0.  1.
       22    1    1    2    0    0  0.68978543691E-02  0.14900090129E-01 -0.30819893345E-01  0.34920751804E-01  0.00000000000E+00 0. -1.
</event>
<event>
 5   0  0.4143600E+04  0.9118800E+02  0.7546771E-02  0.1180000E+00
      -11   -1    0    0    0    0  0.00000000000E+00  0.00000000000E+00  0.34996269501E-01  0.35000000000E-01  0.51099999109E-03 0. -1.
       11   -1    0    0    0    0 -0.00000000000E+00 -0.00000000000E+00 -0.34996269501E-01  0.35000000000E-01  0.51099999109E-03 0.  1.
       22    1    1    2    0    0 -0.96607199988E-02 -0.18224321478E-01  0.25386429118E-01  0.32709726193E-01  0.00000000000E+00 0. -1.
       22    1    1    2    0    0  0.10018034236E-01  0.20310219572E-01 -0.26532793495E-01  0.34883451087E-01  0.00000000000E+00 0.  1.
       22    1    1    2    0    0 -0.35731423712E-03 -0.20858980942E-02  0.11463643774E-02  0.24068227207E-02  0.00000000000E+00 0. -1.
</event>
<event>
 5   0  0.4143600E+04  0.9118800E+02  0.7546771E-02  0.1180000E+00
      -11   -1    0    0    0    0  0.00000000000E+00  0.00000000000E+00  0.34996269501E-01  0.35000000000E-01  0.51099999109E-03 0.  1.
       11   -1    0    0    0    0 -0.00000000000E+00 -0.00000000000E+00 -0.34996269501E-01  0.35000000000E-01  0.51099999109E-03 0. -1.
       22    1    1    2    0    0 -0.13437708826E-02  0.75195586106E-03 -0.31709555783E-01  0.31746922461E-01  0.00000000000E+00 0. -1.
       22    1    1    2    0    0 -0.12096717078E-02 -0.20923120092E-02 -0.27568479782E-02  0.36662359388E-02  0.00000000000E+00 0. -1.
       22    1    1    2    0    0  0.25534425904E-02  0.13403561481E-02  0.34466403761E-01  0.34586841600E-01  0.00000000000E+00 0.  1.
</event>
<event>
 5   0  0.4143600E+04  0.9118800E+02  0.7546771E-02  0.1180000E+00
      -11   -1    0    0    0    0  0.00000000000E+00  0.00000000000E+00  0.34996269501E-01  0.35000000000E-01  0.51099999109E-03 0.  1.
       11   -1    0    0    0    0 -0.00000000000E+00 -0.00000000000E+00 -0.34996269501E-01  0.35000000000E-01  0.51099999109E-03 0. -1.
       22    1    1    2    0    0  0.59398631452E-02  0.59325175214E-02 -0.18796350647E-01  0.20585906246E-01  0.00000000000E+00 0. -1.
       22    1    1    2    0    0 -0.90018297614E-02 -0.69666660335E-02  0.32968447436E-01  0.34878157936E-01  0.00000000000E+00 0.  1.
       22    1    1    2    0    0  0.30619666162E-02  0.10341485121E-02 -0.14172096789E-01  0.14535935818E-01  0.00000000000E+00 0. -1.
</event>
<event>
 5   0  0.4143600E+04  0.9118800E+02  0.7546771E-02  0.1180000E+00
      -11   -1    0    0    0    0  0.00000000000E+00  0.00000000000E+00  0.34996269501E-01  0.35000000000E-01  0.51099999109E-03 0.  1.
       11   -1    0    0    0    0 -0.00000000000E+00 -0.00000000000E+00 -0.34996269501E-01  0.35000000000E-01  0.51099999109E-03 0. -1.
       22    1    1    2    0    0 -0.53879967206E-02  0.17159587266E-01  0.29580874511E-01  0.34619504338E-01  0.00000000000E+00 0.  1.
       22    1    1    2    0    0  0.25131241211E-03  0.88085682803E-04  0.35974252807E-03  0.44758429653E-03  0.00000000000E+00 0. -1.
       22    1    1    2    0    0  0.51366843085E-02 -0.17247672948E-01 -0.29940617039E-01  0.34932911366E-01  0.00000000000E+00 0. -1.
</event>
<event>
 5   0  0.4143600E+04  0.9118800E+02  0.7546771E-02  0.1180000E+00
      -11   -1    0    0    0    0  0.00000000000E+00  0.00000000000E+00  0.34996269501E-01  0.35000000000E-01  0.51099999109E-03 0.  1.
       11   -1    0    0    0    0 -0.00000000000E+00 -0.00000000000E+00 -0.34996269501E-01  0.35000000000E-01  0.51099999109E-03 0. -1.
       22    1    1    2    0    0 -0.40992794996E-03 -0.11787570285E-01  0.30947090048E-01  0.33118533128E-01  0.00000000000E+00 0.  1.
       22    1    1    2    0    0  0.38168931928E-03  0.20107933816E-03  0.19533547208E-02  0.20004285296E-02  0.00000000000E+00 0.  1.
       22    1    1    2    0    0  0.28238630678E-04  0.11586490947E-01 -0.32900444768E-01  0.34881038342E-01  0.00000000000E+00 0. -1.
</event>
<event>
 5   0  0.4143600E+04  0.9118800E+02  0.7546771E-02  0.1180000E+00
      -11   -1    0    0    0    0  0.00000000000E+00  0.00000000000E+00  0.34996269501E-01  0.35000000000E-01  0.51099999109E-03 0.  1.
       11   -1    0    0    0    0 -0.00000000000E+00 -0.00000000000E+00 -0.34996269501E-01  0.35000000000E-01  0.51099999109E-03 0. -1.
       22    1    1    2    0    0  0.12305585412E-01  0.94540179697E-03  0.32075996078E-01  0.34368455614E-01  0.00000000000E+00 0.  1.
       22    1    1    2    0    0  0.15898423432E-03 -0.14147764163E-03  0.60694165838E-03  0.64317189501E-03  0.00000000000E+00 0.  1.
       22    1    1    2    0    0 -0.12464569646E-01 -0.80392415534E-03 -0.32682937736E-01  0.34988372491E-01  0.00000000000E+00 0. -1.
</event>
<event>
 5   0  0.4143600E+04  0.9118800E+02  0.7546771E-02  0.1180000E+00
      -11   -1    0    0    0    0  0.00000000000E+00  0.00000000000E+00  0.34996269501E-01  0.35000000000E-01  0.51099999109E-03 0.  1.
       11   -1    0    0    0    0 -0.00000000000E+00 -0.00000000000E+00 -0.34996269501E-01  0.35000000000E-01  0.51099999109E-03 0. -1.
       22    1    1    2    0    0 -0.50738061149E-02 -0.55758429216E-02 -0.27889330778E-01  0.28890280442E-01  0.00000000000E+00 0. -1.
       22    1    1    2    0    0  0.74469949284E-02  0.73599299896E-02  0.33316783411E-01  0.34923263877E-01  0.00000000000E+00 0.  1.
       22    1    1    2    0    0 -0.23731888135E-02 -0.17840870681E-02 -0.54274526337E-02  0.61864556817E-02  0.00000000000E+00 0. -1.
</event>
<event>
 5   0  0.4143600E+04  0.9118800E+02  0.7546771E-02  0.1180000E+00
      -11   -1    0    0    0    0  0.00000000000E+00  0.00000000000E+00  0.34996269501E-01  0.35000000000E-01  0.51099999109E-03 0.  1.
       11   -1    0    0    0    0 -0.00000000000E+00 -0.00000000000E+00 -0.34996269501E-01  0.35000000000E-01  0.51099999109E-03 0. -1.
       22    1    1    2    0    0  0.48083484258E-02 -0.11268689972E-01 -0.32653973614E-01  0.34876719758E-01  0.00000000000E+00 0. -1.
       22    1    1    2    0    0 -0.53625200513E-03  0.42494289522E-02  0.72198368005E-02  0.83947159606E-02  0.00000000000E+00 0.  1.
       22    1    1    2    0    0 -0.42720964207E-02  0.70192610195E-02  0.25434136814E-01  0.26728564282E-01  0.00000000000E+00 0.  1.
</event>
<event>
 5   0  0.4143600E+04  0.9118800E+02  0.7546771E-02  0.1180000E+00
      -11   -1    0    0    0    0  0.00000000000E+00  0.00000000000E+00  0.34996269501E-01  0.35000000000E-01  0.51099999109E-03 0. -1.
       11   -1    0    0    0    0 -0.00000000000E+00 -0.00000000000E+00 -0.34996269501E-01  0.35000000000E-01  0.51099999109E-03 0.  1.
       22    1    1    2    0    0 -0.53317624232E-02 -0.33843863206E-01  0.12739726311E-03  0.34261508976E-01  0.00000000000E+00 0.  1.
       22    1    1    2    0    0 -0.59683142546E-03  0.21279981924E-03 -0.14299378802E-02  0.15640376769E-02  0.00000000000E+00 0. -1.
       22    1    1    2    0    0  0.59285938486E-02  0.33631063387E-01  0.13025406171E-02  0.34174453347E-01  0.00000000000E+00 0. -1.
</event>
<event>
 5   0  0.4143600E+04  0.9118800E+02  0.7546771E-02  0.1180000E+00
      -11   -1    0    0    0    0  0.00000000000E+00  0.00000000000E+00  0.34996269501E-01  0.35000000000E-01  0.51099999109E-03 0. -1.
       11   -1    0    0    0    0 -0.00000000000E+00 -0.00000000000E+00 -0.34996269501E-01  0.35000000000E-01  0.51099999109E-03 0.  1.
       22    1    1    2    0    0 -0.13581521365E-01 -0.23310498849E-02 -0.32154147428E-01  0.34982577277E-01  0.00000000000E+00 0.  1.
       22    1    1    2    0    0  0.98329801401E-04  0.17618726348E-03  0.67475025579E-03  0.70427168717E-03  0.00000000000E+00 0. -1.
       22    1    1    2    0    0  0.13483191564E-01  0.21548626214E-02  0.31479397172E-01  0.34313151035E-01  0.00000000000E+00 0. -1.
</event>
<event>
 5   0  0.4143600E+04  0.9118800E+02  0.7546771E-02  0.1180000E+00
      -11   -1    0    0    0    0  0.00000000000E+00  0.00000000000E+00  0.34996269501E-01  0.35000000000E-01  0.51099999109E-03 0. -1.
       11   -1    0    0    0    0 -0.00000000000E+00 -0.00000000000E+00 -0.34996269501E-01  0.35000000000E-01  0.51099999109E-03 0.  1.
       22    1    1    2    0    0 -0.57609500350E-03  0.17795618364E-01  0.29907331526E-01  0.34806097130E-01  0.00000000000E+00 0. -1.
       22    1    1    2    0    0 -0.31003780983E-03  0.28683816891E-03 -0.99721875475E-03  0.10829796044E-02  0.00000000000E+00 0. -1.
       22    1    1    2    0    0  0.88613281333E-03 -0.18082456532E-01 -0.28910112771E-01  0.34110923266E-01  0.00000000000E+00 0.  1.
</event>
<event>
 5   0  0.4143600E+04  0.9118800E+02  0.7546771E-02  0.1180000E+00
      -11   -1    0    0    0    0  0.00000000000E+00  0.00000000000E+00  0.34996269501E-01  0.35000000000E-01  0.51099999109E-03 0. -1.
       11   -1    0    0    0    0 -0.00000000000E+00 -0.00000000000E+00 -0.34996269501E-01  0.35000000000E-01  0.51099999109E-03 0.  1.
       22    1    1    2    0    0  0.16888746538E-02  0.35636491907E-03  0.29778596901E-01  0.29828579030E-01  0.00000000000E+00 0. -1.
       22    1    1    2    0    0 -0.10948840400E-01  0.77322094405E-02 -0.94015117869E-02  0.16372311774E-01  0.00000000000E+00 0.  1.
       22    1    1    2    0    0  0.92599657461E-02 -0.80885743595E-02 -0.20377085114E-01  0.23799109196E-01  0.00000000000E+00 0. -1.
</event>
<event>
 5   0  0.4143600E+04  0.9118800E+02  0.7546771E-02  0.1180000E+00
      -11   -1    0    0    0    0  0.00000000000E+00  0.00000000000E+00  0.34996269501E-01  0.35000000000E-01  0.51099999109E-03 0. -1.
       11   -1    0    0    0    0 -0.00000000000E+00 -0.00000000000E+00 -0.34996269501E-01  0.35000000000E-01  0.51099999109E-03 0. -1.
       22    1    1    2    0    0  0.62110776015E-03  0.15911347051E-02 -0.31004456201E-01  0.31051469994E-01  0.00000000000E+00 0. -1.
       22    1    1    2    0    0 -0.62110776015E-03 -0.15911347051E-02 -0.37891709580E-02  0.41563567037E-02  0.00000000000E+00 0.  1.
       22    1    1    2    0    0  0.00000000000E+00 -0.00000000000E+00  0.34793627159E-01  0.34792173302E-01  0.00000000000E+00 0. -1.
</event>
<event>
 5   0  0.4143600E+04  0.9118800E+02  0.7546771E-02  0.1180000E+00
      -11   -1    0    0    0    0  0.00000000000E+00  0.00000000000E+00  0.34996269501E-01  0.35000000000E-01  0.51099999109E-03 0.  1.
       11   -1    0    0    0    0 -0.00000000000E+00 -0.00000000000E+00 -0.34996269501E-01  0.35000000000E-01  0.51099999109E-03 0. -1.
       22    1    1    2    0    0  0.24961055022E-02 -0.34683105776E-03 -0.42544493854E-02  0.49448128411E-02  0.00000000000E+00 0.  1.
       22    1    1    2    0    0  0.19654448129E-02  0.27923961941E-02  0.34356706504E-01  0.34525986323E-01  0.00000000000E+00 0.  1.
       22    1    1    2    0    0 -0.44615503151E-02 -0.24455651363E-02 -0.30102257118E-01  0.30529200836E-01  0.00000000000E+00 0. -1.
</event>
<event>
 5   0  0.4143600E+04  0.9118800E+02  0.7546771E-02  0.1180000E+00
      -11   -1    0    0    0    0  0.00000000000E+00  0.00000000000E+00  0.34996269501E-01  0.35000000000E-01  0.51099999109E-03 0. -1.
       11   -1    0    0    0    0 -0.00000000000E+00 -0.00000000000E+00 -0.34996269501E-01  0.35000000000E-01  0.51099999109E-03 0.  1.
       22    1    1    2    0    0  0.47592154594E-02 -0.95594417220E-02 -0.21034164098E-01  0.23589597646E-01  0.00000000000E+00 0.  1.
       22    1    1    2    0    0  0.48740105029E-02  0.10838630541E-01  0.30567976131E-01  0.32796845201E-01  0.00000000000E+00 0. -1.
       22    1    1    2    0    0 -0.96332259622E-02 -0.12791888192E-02 -0.95338120333E-02  0.13613557153E-01  0.00000000000E+00 0.  1.
</event>
<event>
 5   0  0.4143600E+04  0.9118800E+02  0.7546771E-02  0.1180000E+00
      -11   -1    0    0    0    0  0.00000000000E+00  0.00000000000E+00  0.34996269501E-01  0.35000000000E-01  0.51099999109E-03 0.  1.
       11   -1    0    0    0    0 -0.00000000000E+00 -0.00000000000E+00 -0.34996269501E-01  0.35000000000E-01  0.51099999109E-03 0. -1.
       22    1    1    2    0    0  0.36835090891E-03  0.49010916314E-03 -0.25839707937E-02  0.26557097821E-02  0.00000000000E+00 0. -1.
       22    1    1    2    0    0  0.11687096832E-01  0.48126364990E-02  0.32384326252E-01  0.34763404453E-01  0.00000000000E+00 0.  1.
       22    1    1    2    0    0 -0.12055447741E-01 -0.53027456621E-02 -0.29800355458E-01  0.32580885764E-01  0.00000000000E+00 0. -1.
</event>
<event>
 5   0  0.4143600E+04  0.9118800E+02  0.7546771E-02  0.1180000E+00
      -11   -1    0    0    0    0  0.00000000000E+00  0.00000000000E+00  0.34996269501E-01  0.35000000000E-01  0.51099999109E-03 0.  1.
       11   -1    0    0    0    0 -0.00000000000E+00 -0.00000000000E+00 -0.34996269501E-01  0.35000000000E-01  0.51099999109E-03 0. -1.
       22    1    1    2    0    0  0.57992579128E-04  0.24262825468E-03  0.20097759450E-03  0.32034918869E-03  0.00000000000E+00 0. -1.
       22    1    1    2    0    0 -0.39903255482E-02 -0.22706727635E-01 -0.26330616173E-01  0.34997421704E-01  0.00000000000E+00 0. -1.
       22    1    1    2    0    0  0.39323329691E-02  0.22464099381E-01  0.26129638579E-01  0.34682229107E-01  0.00000000000E+00 0.  1.
</event>
<event>
 5   0  0.4143600E+04  0.9118800E+02  0.7546771E-02  0.1180000E+00
      -11   -1    0    0    0    0  0.00000000000E+00  0.00000000000E+00  0.34996269501E-01  0.35000000000E-01  0.51099999109E-03 0. -1.
       11   -1    0    0    0    0 -0.00000000000E+00 -0.00000000000E+00 -0.34996269501E-01  0.35000000000E-01  0.51099999109E-03 0.  1.
       22    1    1    2    0    0 -0.81478707473E-02 -0.88316892822E-02 -0.26408977376E-01  0.29014145160E-01  0.00000000000E+00 0.  1.
       22    1    1    2    0    0  0.79378901502E-02  0.78240960766E-02  0.32733040514E-01  0.34578584713E-01  0.00000000000E+00 0. -1.
       22    1    1    2    0    0  0.20998059704E-03  0.10075932056E-02 -0.63240631375E-02  0.64072701274E-02  0.00000000000E+00 0. -1.
</event>
<event>
 5   0  0.4143600E+04  0.9118800E+02  0.7546771E-02  0.1180000E+00
      -11   -1    0    0    0    0  0.00000000000E+00  0.00000000000E+00  0.34996269501E-01  0.35000000000E-01  0.51099999109E-03 0.  1.
       11   -1    0    0    0    0 -0.00000000000E+00 -0.00000000000E+00 -0.34996269501E-01  0.35000000000E-01  0.51099999109E-03 0. -1.
       22    1    1    2    0    0 -0.14252836339E-01  0.12309987189E-01 -0.29439200926E-01  0.34947756429E-01  0.00000000000E+00 0. -1.
       22    1    1    2    0    0  0.12673061797E-05  0.68729560238E-04  0.47298268268E-03  0.47795185598E-03  0.00000000000E+00 0.  1.
       22    1    1    2    0    0  0.14251569033E-01 -0.12378716749E-01  0.28966218243E-01  0.34574291715E-01  0.00000000000E+00 0.  1.
</event>
<event>
 5   0  0.4143600E+04  0.9118800E+02  0.7546771E-02  0.1180000E+00
      -11   -1    0    0    0    0  0.00000000000E+00  0.00000000000E+00  0.34996269501E-01  0.35000000000E-01  0.51099999109E-03 0.  1.
       11   -1    0    0    0    0 -0.00000000000E+00 -0.00000000000E+00 -0.34996269501E-01  0.35000000000E-01  0.51099999109E-03 0. -1.
       22    1    1    2    0    0 -0.78327623887E-02 -0.83755999000E-02  0.27358405290E-01  0.29664544162E-01  0.00000000000E+00 0.  1.
       22    1    1    2    0    0 -0.78618158867E-04  0.54290028183E-04  0.55143470077E-02  0.55151746249E-02  0.00000000000E+00 0.  1.
       22    1    1    2    0    0  0.79113805476E-02  0.83213098718E-02 -0.32872752298E-01  0.34820281213E-01  0.00000000000E+00 0. -1.
</event>
<event>
 5   0  0.4143600E+04  0.9118800E+02  0.7546771E-02  0.1180000E+00
      -11   -1    0    0    0    0  0.00000000000E+00  0.00000000000E+00  0.34996269501E-01  0.35000000000E-01  0.51099999109E-03 0. -1.
       11   -1    0    0    0    0 -0.00000000000E+00 -0.00000000000E+00 -0.34996269501E-01  0.35000000000E-01  0.51099999109E-03 0.  1.
       22    1    1    2    0    0  0.77491760371E-04  0.49194593634E-03  0.29821889613E-02  0.30234858654E-02  0.00000000000E+00 0.  1.
       22    1    1    2    0    0  0.19468725434E-01  0.13056664242E-01 -0.25209275527E-01  0.34424051530E-01  0.00000000000E+00 0.  1.
       22    1    1    2    0    0 -0.19546217194E-01 -0.13548610179E-01  0.22227086566E-01  0.32552462604E-01  0.00000000000E+00 0. -1.
</event>
<event>
 5   0  0.4143600E+04  0.9118800E+02  0.7546771E-02  0.1180000E+00
      -11   -1    0    0    0    0  0.00000000000E+00  0.00000000000E+00  0.34996269501E-01  0.35000000000E-01  0.51099999109E-03 0.  1.
       11   -1    0    0    0    0 -0.00000000000E+00 -0.00000000000E+00 -0.34996269501E-01  0.35000000000E-01  0.51099999109E-03 0. -1.
       22    1    1    2    0    0  0.87177815558E-02  0.76433909841E-02 -0.31663649999E-01  0.33719547332E-01  0.00000000000E+00 0. -1.
       22    1    1    2    0    0 -0.93383831957E-02 -0.79961091821E-02  0.32749468661E-01  0.34981007137E-01  0.00000000000E+00 0.  1.
       22    1    1    2    0    0  0.62060163994E-03  0.35271819802E-03 -0.10858186617E-02  0.12994455313E-02  0.00000000000E+00 0. -1.
</event>
<event>
 5   0  0.4143600E+04  0.9118800E+02  0.7546771E-02  0.1180000E+00
      -11   -1    0    0    0    0  0.00000000000E+00  0.00000000000E+00  0.34996269501E-01  0.35000000000E-01  0.51099999109E-03 0.  1.
       11   -1    0    0    0    0 -0.00000000000E+00 -0.00000000000E+00 -0.34996269501E-01  0.35000000000E-01  0.51099999109E-03 0. -1.
       22    1    1    2    0    0  0.80832172520E-04 -0.11723427769E-03 -0.95778160119E-03  0.96830951227E-03  0.00000000000E+00 0.  1.
       22    1    1    2    0    0  0.95641718974E-02  0.77379850416E-02 -0.31771488750E-01  0.34070181890E-01  0.00000000000E+00 0. -1.
       22    1    1    2    0    0 -0.96450040699E-02 -0.76207507640E-02  0.32729270351E-01  0.34961508598E-01  0.00000000000E+00 0.  1.
</event>
<event>
 5   0  0.4143600E+04  0.9118800E+02  0.7546771E-02  0.1180000E+00
      -11   -1    0    0    0    0  0.00000000000E+00  0.00000000000E+00  0.34996269501E-01  0.35000000000E-01  0.51099999109E-03 0.  1.
       11   -1    0    0    0    0 -0.00000000000E+00 -0.00000000000E+00 -0.34996269501E-01  0.35000000000E-01  0.51099999109E-03 0. -1.
       22    1    1    2    0    0 -0.79611500843E-02 -0.20489944246E-02 -0.17121505318E-02  0.83970082923E-02  0.00000000000E+00 0.  1.
       22    1    1    2    0    0 -0.64643504838E-02 -0.30696222835E-02  0.29241500209E-01  0.30104414005E-01  0.00000000000E+00 0.  1.
       22    1    1    2    0    0  0.14425500568E-01  0.51186167081E-02 -0.27529349677E-01  0.31498577703E-01  0.00000000000E+00 0. -1.
</event>
<event>
 5   0  0.4143600E+04  0.9118800E+02  0.7546771E-02  0.1180000E+00
      -11   -1    0    0    0    0  0.00000000000E+00  0.00000000000E+00  0.34996269501E-01  0.35000000000E-01  0.51099999109E-03 0. -1.
       11   -1    0    0    0    0 -0.00000000000E+00 -0.00000000000E+00 -0.34996269501E-01  0.35000000000E-01  0.51099999109E-03 0.  1.
       22    1    1    2    0    0 -0.31107786281E-01  0.90749481820E-03  0.71998142312E-03  0.31129347686E-01  0.00000000000E+00 0. -1.
       22    1    1    2    0    0  0.41665488951E-02 -0.48144117212E-02 -0.84417665656E-02  0.10573651813E-01  0.00000000000E+00 0.  1.
       22    1    1    2    0    0  0.26941237385E-01  0.39069169030E-02  0.77217851425E-02  0.28297000501E-01  0.00000000000E+00 0.  1.
</event>
<event>
 5   0  0.4143600E+04  0.9118800E+02  0.7546771E-02  0.1180000E+00
      -11   -1    0    0    0    0  0.00000000000E+00  0.00000000000E+00  0.34996269501E-01  0.35000000000E-01  0.51099999109E-03 0. -1.
       11   -1    0    0    0    0 -0.00000000000E+00 -0.00000000000E+00 -0.34996269501E-01  0.35000000000E-01  0.51099999109E-03 0.  1.
       22    1    1    2    0    0  0.56055956923E-04 -0.94142422284E-05  0.15374763403E-02  0.15385266963E-02  0.00000000000E+00 0.  1.
       22    1    1    2    0    0  0.12551430313E-01  0.19404845521E-01  0.24467611320E-01  0.33656358037E-01  0.00000000000E+00 0. -1.
       22    1    1    2    0    0 -0.12607486270E-01 -0.19395431279E-01 -0.26005087660E-01  0.34805115267E-01  0.00000000000E+00 0.  1.
</event>
<event>
 5   0  0.4143600E+04  0.9118800E+02  0.7546771E-02  0.1180000E+00
      -11   -1    0    0    0    0  0.00000000000E+00  0.00000000000E+00  0.34996269501E-01  0.35000000000E-01  0.51099999109E-03 0.  1.
       11   -1    0    0    0    0 -0.00000000000E+00 -0.00000000000E+00 -0.34996269501E-01  0.35000000000E-01  0.51099999109E-03 0. -1.
       22    1    1    2    0    0  0.96744892775E-03  0.44135381646E-02  0.34474426128E-01  0.34769258454E-01  0.00000000000E+00 0.  1.
       22    1    1    2    0    0 -0.12454314358E-02 -0.26207600050E-02 -0.32157012562E-01  0.32287659243E-01  0.00000000000E+00 0. -1.
       22    1    1    2    0    0  0.27798250809E-03 -0.17927781596E-02 -0.23174135661E-02  0.29430823028E-02  0.00000000000E+00 0.  1.
</event>
<event>
 5   0  0.4143600E+04  0.9118800E+02  0.7546771E-02  0.1180000E+00
      -11   -1    0    0    0    0  0.00000000000E+00  0.00000000000E+00  0.34996269501E-01  0.35000000000E-01  0.51099999109E-03 0.  1.
       11   -1    0    0    0    0 -0.00000000000E+00 -0.00000000000E+00 -0.34996269501E-01  0.35000000000E-01  0.51099999109E-03 0. -1.
       22    1    1    2    0    0  0.56991409722E-02 -0.12753092498E-01  0.10107764467E-01  0.17242055521E-01  0.00000000000E+00 0.  1.
       22    1    1    2    0    0  0.16781703346E-02  0.16635947706E-03  0.19594019515E-01  0.19666457024E-01  0.00000000000E+00 0.  1.
       22    1    1    2    0    0 -0.73773113068E-02  0.12586733021E-01 -0.29701783982E-01  0.33091487454E-01  0.00000000000E+00 0. -1.
</event>
<event>
 5   0  0.4143600E+04  0.9118800E+02  0.7546771E-02  0.1180000E+00
      -11   -1    0    0    0    0  0.00000000000E+00  0.00000000000E+00  0.34996269501E-01  0.35000000000E-01  0.51099999109E-03 0. -1.
       11   -1    0    0    0    0 -0.00000000000E+00 -0.00000000000E+00 -0.34996269501E-01  0.35000000000E-01  0.51099999109E-03 0.  1.
       22    1    1    2    0    0 -0.53116847977E-02 -0.54349527916E-03  0.73455397243E-02  0.90810977503E-02  0.00000000000E+00 0.  1.
       22    1    1    2    0    0 -0.13762909718E-02 -0.17322176553E-01  0.20683503443E-01  0.27014057304E-01  0.00000000000E+00 0. -1.
       22    1    1    2    0    0  0.66879757696E-02  0.17865671832E-01 -0.28029043167E-01  0.33904844945E-01  0.00000000000E+00 0.  1.
</event>
<event>
 5   0  0.4143600E+04  0.9118800E+02  0.7546771E-02  0.1180000E+00
      -11   -1    0    0    0    0  0.00000000000E+00  0.00000000000E+00  0.34996269501E-01  0.35000000000E-01  0.51099999109E-03 0. -1.
       11   -1    0    0    0    0 -0.00000000000E+00 -0.00000000000E+00 -0.34996269501E-01  0.35000000000E-01  0.51099999109E-03 0.  1.
       22    1    1    2    0    0 -0.27162312432E-01  0.21100426346E-01 -0.44680626038E-02  0.34684042326E-01  0.00000000000E+00 0.  1.
       22    1    1    2    0    0  0.27160894573E-01 -0.21257145349E-01  0.49183174064E-02  0.34839205911E-01  0.00000000000E+00 0. -1.
       22    1    1    2    0    0  0.14178593195E-05  0.15671900299E-03 -0.45025480259E-03  0.47675176296E-03  0.00000000000E+00 0.  1.
</event>
<event>
 5   0  0.4143600E+04  0.9118800E+02  0.7546771E-02  0.1180000E+00
      -11   -1    0    0    0    0  0.00000000000E+00  0.00000000000E+00  0.34996269501E-01  0.35000000000E-01  0.51099999109E-03 0.  1.
       11   -1    0    0    0    0 -0.00000000000E+00 -0.00000000000E+00 -0.34996269501E-01  0.35000000000E-01  0.51099999109E-03 0. -1.
       22    1    1    2    0    0 -0.33549742205E-02  0.61981051435E-03  0.33290552827E-01  0.33464920807E-01  0.00000000000E+00 0.  1.
       22    1    1    2    0    0  0.79267879023E-02  0.86224932172E-03 -0.10184573839E-01  0.12934565498E-01  0.00000000000E+00 0.  1.
       22    1    1    2    0    0 -0.45718136818E-02 -0.14820598361E-02 -0.23105978988E-01  0.23600513696E-01  0.00000000000E+00 0. -1.
</event>
<event>
 5   0  0.4143600E+04  0.9118800E+02  0.7546771E-02  0.1180000E+00
      -11   -1    0    0    0    0  0.00000000000E+00  0.00000000000E+00  0.34996269501E-01  0.35000000000E-01  0.51099999109E-03 0.  1.
       11   -1    0    0    0    0 -0.00000000000E+00 -0.00000000000E+00 -0.34996269501E-01  0.35000000000E-01  0.51099999109E-03 0. -1.
       22    1    1    2    0    0 -0.68351319505E-02  0.62767090631E-02 -0.19718648615E-01  0.21793145910E-01  0.00000000000E+00 0. -1.
       22    1    1    2    0    0  0.40482927055E-03 -0.51213121764E-02 -0.13451658888E-01  0.14399265675E-01  0.00000000000E+00 0. -1.
       22    1    1    2    0    0  0.64303026800E-02 -0.11553968867E-02  0.33170307504E-01  0.33807588414E-01  0.00000000000E+00 0.  1.
</event>
<event>
 5   0  0.4143600E+04  0.9118800E+02  0.7546771E-02  0.1180000E+00
      -11   -1    0    0    0    0  0.00000000000E+00  0.00000000000E+00  0.34996269501E-01  0.35000000000E-01  0.51099999109E-03 0.  1.
       11   -1    0    0    0    0 -0.00000000000E+00 -0.00000000000E+00 -0.34996269501E-01  0.35000000000E-01  0.51099999109E-03 0. -1.
       22    1    1    2    0    0  0.53292280695E-04  0.34430074933E-04  0.51600268486E-03  0.51988870734E-03  0.00000000000E+00 0.  1.
       22    1    1    2    0    0  0.99671481290E-02 -0.67414437641E-02 -0.32842801518E-01  0.34977717442E-01  0.00000000000E+00 0. -1.
       22    1    1    2    0    0 -0.10020440410E-01  0.67070136892E-02  0.32326798834E-01  0.34502393851E-01  0.00000000000E+00 0.  1.
</event>
<event>
 5   0  0.4143600E+04  0.9118800E+02  0.7546771E-02  0.1180000E+00
      -11   -1    0    0    0    0  0.00000000000E+00  0.00000000000E+00  0.34996269501E-01  0.35000000000E-01  0.51099999109E-03 0.  1.
       11   -1    0    0    0    0 -0.00000000000E+00 -0.00000000000E+00 -0.34996269501E-01  0.35000000000E-01  0.51099999109E-03 0. -1.
       22    1    1    2    0    0  0.72772109361E-02 -0.69329650102E-02 -0.19550699886E-01  0.21983031385E-01  0.00000000000E+00 0. -1.
       22    1    1    2    0    0 -0.10398822350E-02  0.36094146586E-02 -0.13606214906E-01  0.14115180243E-01  0.00000000000E+00 0. -1.
       22    1    1    2    0    0 -0.62373287011E-02  0.33235503515E-02  0.33156914792E-01  0.33901788371E-01  0.00000000000E+00 0.  1.
</event>
<event>
 5   0  0.4143600E+04  0.9118800E+02  0.7546771E-02  0.1180000E+00
      -11   -1    0    0    0    0  0.00000000000E+00  0.00000000000E+00  0.34996269501E-01  0.35000000000E-01  0.51099999109E-03 0.  1.
       11   -1    0    0    0    0 -0.00000000000E+00 -0.00000000000E+00 -0.34996269501E-01  0.35000000000E-01  0.51099999109E-03 0. -1.
       22    1    1    2    0    0 -0.22358642831E-01  0.37328923187E-02 -0.26386679358E-01  0.34786495107E-01  0.00000000000E+00 0. -1.
       22    1    1    2    0    0  0.21372761849E-01 -0.39154744418E-02  0.26423670351E-01  0.34210177492E-01  0.00000000000E+00 0.  1.
       22    1    1    2    0    0  0.98588098128E-03  0.18258212313E-03 -0.36990993583E-04  0.10033274015E-02  0.00000000000E+00 0. -1.
</event>
<event>
 5   0  0.4143600E+04  0.9118800E+02  0.7546771E-02  0.1180000E+00
      -11   -1    0    0    0    0  0.00000000000E+00  0.00000000000E+00  0.34996269501E-01  0.35000000000E-01  0.51099999109E-03 0. -1.
       11   -1    0    0    0    0 -0.00000000000E+00 -0.00000000000E+00 -0.34996269501E-01  0.35000000000E-01  0.51099999109E-03 0.  1.
       22    1    1    2    0    0  0.14931583692E-01  0.95410695378E-02 -0.29423567103E-01  0.34347205134E-01  0.00000000000E+00 0.  1.
       22    1    1    2    0    0 -0.14362596060E-01 -0.10159448550E-01  0.29896445653E-01  0.34688557524E-01  0.00000000000E+00 0. -1.
       22    1    1    2    0    0 -0.56898763208E-03  0.61837901230E-03 -0.47287854997E-03  0.96423734180E-03  0.00000000000E+00 0.  1.
</event>
<event>
 5   0  0.4143600E+04  0.9118800E+02  0.7546771E-02  0.1180000E+00
      -11   -1    0    0    0    0  0.00000000000E+00  0.00000000000E+00  0.34996269501E-01  0.35000000000E-01  0.51099999109E-03 0.  1.
       11   -1    0    0    0    0 -0.00000000000E+00 -0.00000000000E+00 -0.34996269501E-01  0.35000000000E-01  0.51099999109E-03 0. -1.
       22    1    1    2    0    0 -0.19771196351E-01 -0.11598632972E-01 -0.25223092242E-01  0.34082735721E-01  0.00000000000E+00 0. -1.
       22    1    1    2    0    0  0.19791955391E-01  0.12552433725E-01  0.25757034085E-01  0.34823984486E-01  0.00000000000E+00 0.  1.
       22    1    1    2    0    0 -0.20759039266E-04 -0.95380075332E-03 -0.53394184304E-03  0.10932797933E-02  0.00000000000E+00 0. -1.
</event>
<event>
 5   0  0.4143600E+04  0.9118800E+02  0.7546771E-02  0.1180000E+00
      -11   -1    0    0    0    0  0.00000000000E+00  0.00000000000E+00  0.34996269501E-01  0.35000000000E-01  0.51099999109E-03 0.  1.
       11   -1    0    0    0    0 -0.00000000000E+00 -0.00000000000E+00 -0.34996269501E-01  0.35000000000E-01  0.51099999109E-03 0. -1.
       22    1    1    2    0    0  0.17735491347E-02 -0.14461927208E-01 -0.28929723950E-01  0.32391692499E-01  0.00000000000E+00 0. -1.
       22    1    1    2    0    0 -0.37632401803E-02  0.13788269682E-01  0.31319469049E-01  0.34426552238E-01  0.00000000000E+00 0.  1.
       22    1    1    2    0    0  0.19896910456E-02  0.67365752641E-03 -0.23897450988E-02  0.31817552635E-02  0.00000000000E+00 0. -1.
</event>
<event>
 5   0  0.4143600E+04  0.9118800E+02  0.7546771E-02  0.1180000E+00
      -11   -1    0    0    0    0  0.00000000000E+00  0.00000000000E+00  0.34996269501E-01  0.35000000000E-01  0.51099999109E-03 0. -1.
       11   -1    0    0    0    0 -0.00000000000E+00 -0.00000000000E+00 -0.34996269501E-01  0.35000000000E-01  0.51099999109E-03 0.  1.
       22    1    1    2    0    0  0.65356514268E-02  0.12028620264E-01  0.22574335896E-01  0.26400816013E-01  0.00000000000E+00 0. -1.
       22    1    1    2    0    0  0.30522427996E-03 -0.42051831546E-04  0.90704828892E-02  0.90757143003E-02  0.00000000000E+00 0.  1.
       22    1    1    2    0    0 -0.68408757068E-02 -0.11986568433E-01 -0.31644818785E-01  0.34523469686E-01  0.00000000000E+00 0.  1.
</event>
<event>
 5   0  0.4143600E+04  0.9118800E+02  0.7546771E-02  0.1180000E+00
      -11   -1    0    0    0    0  0.00000000000E+00  0.00000000000E+00  0.34996269501E-01  0.35000000000E-01  0.51099999109E-03 0. -1.
       11   -1    0    0    0    0 -0.00000000000E+00 -0.00000000000E+00 -0.34996269501E-01  0.35000000000E-01  0.51099999109E-03 0.  1.
       22    1    1    2    0    0  0.43884608164E-02 -0.51908438287E-02  0.34280562628E-01  0.34947967353E-01  0.00000000000E+00 0. -1.
       22    1    1    2    0    0 -0.45591191406E-02  0.46034677638E-02 -0.33035395021E-01  0.33664741302E-01  0.00000000000E+00 0.  1.
       22    1    1    2    0    0  0.17065832426E-03  0.58737606498E-03 -0.12451676073E-02  0.13872913449E-02  0.00000000000E+00 0.  1.
</event>
<event>
 5   0  0.4143600E+04  0.9118800E+02  0.7546771E-02  0.1180000E+00
      -11   -1    0    0    0    0  0.00000000000E+00  0.00000000000E+00  0.34996269501E-01  0.35000000000E-01  0.51099999109E-03 0.  1.
       11   -1    0    0    0    0 -0.00000000000E+00 -0.00000000000E+00 -0.34996269501E-01  0.35000000000E-01  0.51099999109E-03 0. -1.
       22    1    1    2    0    0  0.95046600099E-04 -0.73224614677E-04 -0.11344576916E-02  0.11407847976E-02  0.00000000000E+00 0.  1.
       22    1    1    2    0    0  0.41208845367E-02 -0.11438638605E-01  0.32758502107E-01  0.34942003417E-01  0.00000000000E+00 0.  1.
       22    1    1    2    0    0 -0.42159311368E-02  0.11511863220E-01 -0.31624044415E-01  0.33917211786E-01  0.00000000000E+00 0. -1.
</event>
<event>
 5   0  0.4143600E+04  0.9118800E+02  0.7546771E-02  0.1180000E+00
      -11   -1    0    0    0    0  0.00000000000E+00  0.00000000000E+00  0.34996269501E-01  0.35000000000E-01  0.51099999109E-03 0. -1.
       11   -1    0    0    0    0 -0.00000000000E+00 -0.00000000000E+00 -0.34996269501E-01  0.35000000000E-01  0.51099999109E-03 0.  1.
       22    1    1    2    0    0  0.98180843011E-02  0.83808287354E-02 -0.15565342438E-01  0.20221596248E-01  0.00000000000E+00 0.  1.
       22    1    1    2    0    0 -0.14246406168E-02 -0.18223519528E-02 -0.16153744233E-01  0.16318517711E-01  0.00000000000E+00 0.  1.
       22    1    1    2    0    0 -0.83934436843E-02 -0.65584767826E-02  0.31719086671E-01  0.33459886040E-01  0.00000000000E+00 0. -1.
</event>
<event>
 5   0  0.4143600E+04  0.9118800E+02  0.7546771E-02  0.1180000E+00
      -11   -1    0    0    0    0  0.00000000000E+00  0.00000000000E+00  0.34996269501E-01  0.35000000000E-01  0.51099999109E-03 0. -1.
       11   -1    0    0    0    0 -0.00000000000E+00 -0.00000000000E+00 -0.34996269501E-01  0.35000000000E-01  0.51099999109E-03 0.  1.
       22    1    1    2    0    0 -0.49207654388E-02 -0.59513064404E-02  0.34017554020E-01  0.34883032585E-01  0.00000000000E+00 0. -1.
       22    1    1    2    0    0 -0.48748184252E-03  0.13879146508E-02 -0.36378004916E-02  0.39239696790E-02  0.00000000000E+00 0. -1.
       22    1    1    2    0    0  0.54082472813E-02  0.45633917895E-02 -0.30379753528E-01  0.31192997736E-01  0.00000000000E+00 0.  1.
</event>
<event>
 5   0  0.4143600E+04  0.9118800E+02  0.7546771E-02  0.1180000E+00
      -11   -1    0    0    0    0  0.00000000000E+00  0.00000000000E+00  0.34996269501E-01  0.35000000000E-01  0.51099999109E-03 0. -1.
       11   -1    0    0    0    0 -0.00000000000E+00 -0.00000000000E+00 -0.34996269501E-01  0.35000000000E-01  0.51099999109E-03 0. -1.
       22    1    1    2    0    0  0.00000000000E+00  0.00000000000E+00  0.26220549525E-01  0.26218092340E-01  0.00000000000E+00 0. -1.
       22    1    1    2    0    0  0.98710271612E-02 -0.10190652823E-01 -0.25969362945E-01  0.29592133988E-01  0.00000000000E+00 0. -1.
       22    1    1    2    0    0 -0.98710271612E-02  0.10190652823E-01 -0.25118657979E-03  0.14189773672E-01  0.00000000000E+00 0.  1.
</event>
<event>
 5   0  0.4143600E+04  0.9118800E+02  0.7546771E-02  0.1180000E+00
      -11   -1    0    0    0    0  0.00000000000E+00  0.00000000000E+00  0.34996269501E-01  0.35000000000E-01  0.51099999109E-03 0.  1.
       11   -1    0    0    0    0 -0.00000000000E+00 -0.00000000000E+00 -0.34996269501E-01  0.35000000000E-01  0.51099999109E-03 0. -1.
       22    1    1    2    0    0 -0.11034038714E-01  0.37377565757E-02  0.28027843965E-01  0.30352608980E-01  0.00000000000E+00 0.  1.
       22    1    1    2    0    0  0.53187928206E-03  0.16215538325E-02  0.46256526695E-02  0.49304152991E-02  0.00000000000E+00 0.  1.
       22    1    1    2    0    0  0.10502159432E-01 -0.53593104082E-02 -0.32653496634E-01  0.34716975721E-01  0.00000000000E+00 0. -1.
</event>
<event>
 5   0  0.4143600E+04  0.9118800E+02  0.7546771E-02  0.1180000E+00
      -11   -1    0    0    0    0  0.00000000000E+00  0.00000000000E+00  0.34996269501E-01  0.35000000000E-01  0.51099999109E-03 0. -1.
       11   -1    0    0    0    0 -0.00000000000E+00 -0.00000000000E+00 -0.34996269501E-01  0.35000000000E-01  0.51099999109E-03 0.  1.
       22    1    1    2    0    0 -0.88344627849E-02 -0.73522361595E-02  0.27743236068E-01  0.30029822790E-01  0.00000000000E+00 0. -1.
       22    1    1    2    0    0 -0.25755099209E-03  0.11217920836E-03  0.51120383047E-02  0.51197511968E-02  0.00000000000E+00 0.  1.
       22    1    1    2    0    0  0.90920137770E-02  0.72400569512E-02 -0.32855274373E-01  0.34850426013E-01  0.00000000000E+00 0.  1.
</event>
<event>
 5   0  0.4143600E+04  0.9118800E+02  0.7546771E-02  0.1180000E+00
      -11   -1    0    0    0    0  0.00000000000E+00  0.00000000000E+00  0.34996269501E-01  0.35000000000E-01  0.51099999109E-03 0. -1.
       11   -1    0    0    0    0 -0.00000000000E+00 -0.00000000000E+00 -0.34996269501E-01  0.35000000000E-01  0.51099999109E-03 0.  1.
       22    1    1    2    0    0  0.48713791984E-02 -0.17065809668E-02  0.20199411014E-01  0.20848476184E-01  0.00000000000E+00 0. -1.
       22    1    1    2    0    0  0.18763622898E-02  0.15431640726E-01  0.76903610961E-02  0.17343526883E-01  0.00000000000E+00 0.  1.
       22    1    1    2    0    0 -0.67477414882E-02 -0.13725059759E-01 -0.27889772110E-01  0.31807996934E-01  0.00000000000E+00 0.  1.
</event>
<event>
 5   0  0.4143600E+04  0.9118800E+02  0.7546771E-02  0.1180000E+00
      -11   -1    0    0    0    0  0.00000000000E+00  0.00000000000E+00  0.34996269501E-01  0.35000000000E-01  0.51099999109E-03 0. -1.
       11   -1    0    0    0    0 -0.00000000000E+00 -0.00000000000E+00 -0.34996269501E-01  0.35000000000E-01  0.51099999109E-03 0.  1.
       22    1    1    2    0    0  0.64400551948E-02 -0.19255812851E-01  0.22816116911E-01  0.30542361244E-01  0.00000000000E+00 0. -1.
       22    1    1    2    0    0 -0.62345786994E-02  0.19099704704E-01 -0.27892177172E-01  0.34375023472E-01  0.00000000000E+00 0.  1.
       22    1    1    2    0    0 -0.20547649540E-03  0.15610814743E-03  0.50760602615E-02  0.50826152837E-02  0.00000000000E+00 0. -1.
</event>
<event>
 5   0  0.4143600E+04  0.9118800E+02  0.7546771E-02  0.1180000E+00
      -11   -1    0    0    0    0  0.00000000000E+00  0.00000000000E+00  0.34996269501E-01  0.35000000000E-01  0.51099999109E-03 0.  1.
       11   -1    0    0    0    0 -0.00000000000E+00 -0.00000000000E+00 -0.34996269501E-01  0.35000000000E-01  0.51099999109E-03 0. -1.
       22    1    1    2    0    0 -0.57219344928E-03  0.13933499138E-02 -0.34568336210E-01  0.34601137231E-01  0.00000000000E+00 0. -1.
       22    1    1    2    0    0  0.50979383930E-03 -0.12558365227E-02  0.34956289703E-01  0.34982555723E-01  0.00000000000E+00 0.  1.
       22    1    1    2    0    0  0.62399609984E-04 -0.13751339107E-03 -0.38795349283E-03  0.41630704612E-03  0.00000000000E+00 0. -1.
</event>
<event>
 5   0  0.4143600E+04  0.9118800E+02  0.7546771E-02  0.1180000E+00
      -11   -1    0    0    0    0  0.00000000000E+00  0.00000000000E+00  0.34996269501E-01  0.35000000000E-01  0.51099999109E-03 0. -1.
       11   -1    0    0    0    0 -0.00000000000E+00 -0.00000000000E+00 -0.34996269501E-01  0.35000000000E-01  0.51099999109E-03 0.  1.
       22    1    1    2    0    0  0.47436801734E-02 -0.11574524073E-01 -0.32608676448E-01  0.34925605059E-01  0.00000000000E+00 0.  1.
       22    1    1    2    0    0 -0.47310103260E-02  0.11528811389E-01  0.30264524952E-01  0.32729763539E-01  0.00000000000E+00 0. -1.
       22    1    1    2    0    0 -0.12669847472E-04  0.45712683508E-04  0.23441514958E-02  0.23446314017E-02  0.00000000000E+00 0. -1.
</event>
<event>
 5   0  0.4143600E+04  0.9118800E+02  0.7546771E-02  0.1180000E+00
      -11   -1    0    0    0    0  0.00000000000E+00  0.00000000000E+00  0.34996269501E-01  0.35000000000E-01  0.51099999109E-03 0. -1.
       11   -1    0    0    0    0 -0.00000000000E+00 -0.00000000000E+00 -0.34996269501E-01  0.35000000000E-01  0.51099999109E-03 0. -1.
       22    1    1    2    0    0  0.11523646516E-02  0.22211890513E-03 -0.25622545850E-02  0.28182316542E-02  0.00000000000E+00 0.  1.
       22    1    1    2    0    0 -0.00000000000E+00  0.00000000000E+00  0.34862783304E-01  0.34859926866E-01  0.00000000000E+00 0. -1.
       22    1    1    2    0    0 -0.11523646516E-02 -0.22211890513E-03 -0.32300528719E-01  0.32321841480E-01  0.00000000000E+00 0. -1.
</event>
<event>
 5   0  0.4143600E+04  0.9118800E+02  0.7546771E-02  0.1180000E+00
      -11   -1    0    0    0    0  0.00000000000E+00  0.00000000000E+00  0.34996269501E-01  0.35000000000E-01  0.51099999109E-03 0.  1.
       11   -1    0    0    0    0 -0.00000000000E+00 -0.00000000000E+00 -0.34996269501E-01  0.35000000000E-01  0.51099999109E-03 0. -1.
       22    1    1    2    0    0 -0.69208025104E-02 -0.21509690226E-01 -0.26474910336E-01  0.34806395365E-01  0.00000000000E+00 0. -1.
       22    1    1    2    0    0  0.70421916703E-02  0.21739140258E-01  0.25769650378E-01  0.34442089996E-01  0.00000000000E+00 0.  1.
       22    1    1    2    0    0 -0.12138915990E-03 -0.22945003177E-03  0.70525995766E-03  0.75151463931E-03  0.00000000000E+00 0.  1.
</event>
<event>
 5   0  0.4143600E+04  0.9118800E+02  0.7546771E-02  0.1180000E+00
      -11   -1    0    0    0    0  0.00000000000E+00  0.00000000000E+00  0.34996269501E-01  0.35000000000E-01  0.51099999109E-03 0. -1.
       11   -1    0    0    0    0 -0.00000000000E+00 -0.00000000000E+00 -0.34996269501E-01  0.35000000000E-01  0.51099999109E-03 0. -1.
       22    1    1    2    0    0  0.89781262524E-02 -0.14529682327E-02  0.33202932716E-01  0.34426045498E-01  0.00000000000E+00 0. -1.
       22    1    1    2    0    0 -0.88051071546E-02  0.15075553870E-02 -0.15650358866E-01  0.18020443054E-01  0.00000000000E+00 0.  1.
       22    1    1    2    0    0 -0.17301909785E-03 -0.54587154308E-04 -0.17552573851E-01  0.17553511448E-01  0.00000000000E+00 0. -1.
</event>
<event>
 5   0  0.4143600E+04  0.9118800E+02  0.7546771E-02  0.1180000E+00
      -11   -1    0    0    0    0  0.00000000000E+00  0.00000000000E+00  0.34996269501E-01  0.35000000000E-01  0.51099999109E-03 0.  1.
       11   -1    0    0    0    0 -0.00000000000E+00 -0.00000000000E+00 -0.34996269501E-01  0.35000000000E-01  0.51099999109E-03 0.  1.
       22    1    1    2    0    0 -0.38800971873E-02 -0.64570371045E-02 -0.14125005752E-01  0.16008256303E-01  0.00000000000E+00 0. -1.
       22    1    1    2    0    0  0.43381454934E-02  0.65531803023E-02  0.33602159748E-01  0.34508967213E-01  0.00000000000E+00 0.  1.
       22    1    1    2    0    0 -0.45804830612E-03 -0.96143197782E-04 -0.19477153996E-01  0.19482776484E-01  0.00000000000E+00 0.  1.
</event>
<event>
 5   0  0.4143600E+04  0.9118800E+02  0.7546771E-02  0.1180000E+00
      -11   -1    0    0    0    0  0.00000000000E+00  0.00000000000E+00  0.34996269501E-01  0.35000000000E-01  0.51099999109E-03 0.  1.
       11   -1    0    0    0    0 -0.00000000000E+00 -0.00000000000E+00 -0.34996269501E-01  0.35000000000E-01  0.51099999109E-03 0. -1.
       22    1    1    2    0    0 -0.22293339003E-01  0.17318151972E-02 -0.23294582044E-01  0.32289777026E-01  0.00000000000E+00 0. -1.
       22    1    1    2    0    0  0.21791621290E-01 -0.12773079575E-02  0.93466401297E-02  0.23745861866E-01  0.00000000000E+00 0.  1.
       22    1    1    2    0    0  0.50171771367E-03 -0.45450723972E-03  0.13947941914E-01  0.13964361108E-01  0.00000000000E+00 0.  1.
</event>
<event>
 5   0  0.4143600E+04  0.9118800E+02  0.7546771E-02  0.1180000E+00
      -11   -1    0    0    0    0  0.00000000000E+00  0.00000000000E+00  0.34996269501E-01  0.35000000000E-01  0.51099999109E-03 0.  1.
       11   -1    0    0    0    0 -0.00000000000E+00 -0.00000000000E+00 -0.34996269501E-01  0.35000000000E-01  0.51099999109E-03 0. -1.
       22    1    1    2    0    0 -0.17958938761E-02  0.12980427093E-01 -0.14910772602E-01  0.19850638829E-01  0.00000000000E+00 0. -1.
       22    1    1    2    0    0 -0.53064566791E-03  0.71771658018E-03 -0.16122744577E-01  0.16147433066E-01  0.00000000000E+00 0. -1.
       22    1    1    2    0    0  0.23265395440E-02 -0.13698143673E-01  0.31033517180E-01  0.34001928105E-01  0.00000000000E+00 0.  1.
</event>
<event>
 5   0  0.4143600E+04  0.9118800E+02  0.7546771E-02  0.1180000E+00
      -11   -1    0    0    0    0  0.00000000000E+00  0.00000000000E+00  0.34996269501E-01  0.35000000000E-01  0.51099999109E-03 0.  1.
       11   -1    0    0    0    0 -0.00000000000E+00 -0.00000000000E+00 -0.34996269501E-01  0.35000000000E-01  0.51099999109E-03 0.  1.
       22    1    1    2    0    0  0.00000000000E+00  0.00000000000E+00  0.34139399987E-01  0.34138079256E-01  0.00000000000E+00 0.  1.
       22    1    1    2    0    0 -0.31224571940E-02  0.31991497199E-02 -0.66596393114E-02  0.80209160086E-02  0.00000000000E+00 0. -1.
       22    1    1    2    0    0  0.31224571940E-02 -0.31991497199E-02 -0.27479760676E-01  0.27841004735E-01  0.00000000000E+00 0.  1.
</event>
<event>
 5   0  0.4143600E+04  0.9118800E+02  0.7546771E-02  0.1180000E+00
      -11   -1    0    0    0    0  0.00000000000E+00  0.00000000000E+00  0.34996269501E-01  0.35000000000E-01  0.51099999109E-03 0. -1.
       11   -1    0    0    0    0 -0.00000000000E+00 -0.00000000000E+00 -0.34996269501E-01  0.35000000000E-01  0.51099999109E-03 0.  1.
       22    1    1    2    0    0 -0.17358652668E-02 -0.58209442375E-02 -0.33099960497E-01  0.33652696845E-01  0.00000000000E+00 0.  1.
       22    1    1    2    0    0  0.23972359583E-02  0.56380634065E-02  0.34365697396E-01  0.34907530087E-01  0.00000000000E+00 0. -1.
       22    1    1    2    0    0 -0.66137069148E-03  0.18288083098E-03 -0.12657368993E-02  0.14397730683E-02  0.00000000000E+00 0.  1.
</event>
<event>
 5   0  0.4143600E+04  0.9118800E+02  0.7546771E-02  0.1180000E+00
      -11   -1    0    0    0    0  0.00000000000E+00  0.00000000000E+00  0.34996269501E-01  0.35000000000E-01  0.51099999109E-03 0. -1.
       11   -1    0    0    0    0 -0.00000000000E+00 -0.00000000000E+00 -0.34996269501E-01  0.35000000000E-01  0.51099999109E-03 0.  1.
       22    1    1    2    0    0  0.41334349216E-03  0.49635694221E-02  0.60999427328E-04  0.49811238873E-02  0.00000000000E+00 0. -1.
       22    1    1    2    0    0  0.49809534997E-02 -0.20514150808E-01 -0.26496622120E-01  0.33877887551E-01  0.00000000000E+00 0.  1.
       22    1    1    2    0    0 -0.53942969918E-02  0.15550581386E-01  0.26435622692E-01  0.31140988562E-01  0.00000000000E+00 0. -1.
</event>
<event>
 5   0  0.4143600E+04  0.9118800E+02  0.7546771E-02  0.1180000E+00
      -11   -1    0    0    0    0  0.00000000000E+00  0.00000000000E+00  0.34996269501E-01  0.35000000000E-01  0.51099999109E-03 0.  1.
       11   -1    0    0    0    0 -0.00000000000E+00 -0.00000000000E+00 -0.34996269501E-01  0.35000000000E-01  0.51099999109E-03 0.  1.
       22    1    1    2    0    0 -0.11163158583E-01 -0.14487908118E-03 -0.26191852642E-01  0.28471920278E-01  0.00000000000E+00 0.  1.
       22    1    1    2    0    0  0.11163158583E-01  0.14487908118E-03 -0.36070252749E-02  0.11732336972E-01  0.00000000000E+00 0. -1.
       22    1    1    2    0    0  0.00000000000E+00  0.00000000000E+00  0.29798877917E-01  0.29795742750E-01  0.00000000000E+00 0.  1.
</event>
<event>
 5   0  0.4143600E+04  0.9118800E+02  0.7546771E-02  0.1180000E+00
      -11   -1    0    0    0    0  0.00000000000E+00  0.00000000000E+00  0.34996269501E-01  0.35000000000E-01  0.51099999109E-03 0.  1.
       11   -1    0    0    0    0 -0.00000000000E+00 -0.00000000000E+00 -0.34996269501E-01  0.35000000000E-01  0.51099999109E-03 0. -1.
       22    1    1    2    0    0  0.94076688688E-03  0.19664539565E-02  0.34861150726E-01  0.34929240093E-01  0.00000000000E+00 0.  1.
       22    1    1    2    0    0 -0.22843677973E-03 -0.11042275872E-02 -0.32541785913E-02  0.34440064214E-02  0.00000000000E+00 0.  1.
       22    1    1    2    0    0 -0.71233010715E-03 -0.86222636936E-03 -0.31606972135E-01  0.31626753486E-01  0.00000000000E+00 0. -1.
</event>
<event>
 5   0  0.4143600E+04  0.9118800E+02  0.7546771E-02  0.1180000E+00
      -11   -1    0    0    0    0  0.00000000000E+00  0.00000000000E+00  0.34996269501E-01  0.35000000000E-01  0.51099999109E-03 0.  1.
       11   -1    0    0    0    0 -0.00000000000E+00 -0.00000000000E+00 -0.34996269501E-01  0.35000000000E-01  0.51099999109E-03 0.  1.
       22    1    1    2    0    0  0.63771690786E-04  0.39597646428E-03  0.34967001255E-01  0.34969301408E-01  0.00000000000E+00 0.  1.
       22    1    1    2    0    0  0.12369238517E-03 -0.13544610704E-03 -0.34183648554E-01  0.34184140679E-01  0.00000000000E+00 0.  1.
       22    1    1    2    0    0 -0.18746407596E-03 -0.26053035724E-03 -0.78335270092E-03  0.84655791347E-03  0.00000000000E+00 0. -1.
</event>
<event>
 5   0  0.4143600E+04  0.9118800E+02  0.7546771E-02  0.1180000E+00
      -11   -1    0    0    0    0  0.00000000000E+00  0.00000000000E+00  0.34996269501E-01  0.35000000000E-01  0.51099999109E-03 0. -1.
       11   -1    0    0    0    0 -0.00000000000E+00 -0.00000000000E+00 -0.34996269501E-01  0.35000000000E-01  0.51099999109E-03 0.  1.
       22    1    1    2    0    0 -0.31944184784E-02  0.34847368815E-02 -0.67965509497E-02  0.82789374536E-02  0.00000000000E+00 0.  1.
       22    1    1    2    0    0  0.17312458862E-01 -0.13761914701E-01 -0.19946148173E-01  0.29781879642E-01  0.00000000000E+00 0.  1.
       22    1    1    2    0    0 -0.14118040383E-01  0.10277177819E-01  0.26742699123E-01  0.31939182904E-01  0.00000000000E+00 0. -1.
</event>
<event>
 5   0  0.4143600E+04  0.9118800E+02  0.7546771E-02  0.1180000E+00
      -11   -1    0    0    0    0  0.00000000000E+00  0.00000000000E+00  0.34996269501E-01  0.35000000000E-01  0.51099999109E-03 0.  1.
       11   -1    0    0    0    0 -0.00000000000E+00 -0.00000000000E+00 -0.34996269501E-01  0.35000000000E-01  0.51099999109E-03 0. -1.
       22    1    1    2    0    0  0.11730208461E-01  0.78454509047E-02 -0.31225901036E-01  0.34266686241E-01  0.00000000000E+00 0. -1.
       22    1    1    2    0    0  0.13153379753E-02  0.17532073163E-03  0.52901303590E-03  0.14285328629E-02  0.00000000000E+00 0.  1.
       22    1    1    2    0    0 -0.13045546436E-01 -0.80207716363E-02  0.30696888000E-01  0.34304780896E-01  0.00000000000E+00 0.  1.
</event>
<event>
 5   0  0.4143600E+04  0.9118800E+02  0.7546771E-02  0.1180000E+00
      -11   -1    0    0    0    0  0.00000000000E+00  0.00000000000E+00  0.34996269501E-01  0.35000000000E-01  0.51099999109E-03 0. -1.
       11   -1    0    0    0    0 -0.00000000000E+00 -0.00000000000E+00 -0.34996269501E-01  0.35000000000E-01  0.51099999109E-03 0.  1.
       22    1    1    2    0    0  0.10252807527E-04  0.11756076349E-03 -0.31646290345E-03  0.33774905246E-03  0.00000000000E+00 0. -1.
       22    1    1    2    0    0  0.26953507554E-03  0.92156447559E-03  0.34974416634E-01  0.34987594218E-01  0.00000000000E+00 0. -1.
       22    1    1    2    0    0 -0.27978788307E-03 -0.10391252391E-02 -0.34657953731E-01  0.34674656730E-01  0.00000000000E+00 0.  1.
</event>
<event>
 5   0  0.4143600E+04  0.9118800E+02  0.7546771E-02  0.1180000E+00
      -11   -1    0    0    0    0  0.00000000000E+00  0.00000000000E+00  0.34996269501E-01  0.35000000000E-01  0.51099999109E-03 0.  1.
       11   -1    0    0    0    0 -0.00000000000E+00 -0.00000000000E+00 -0.34996269501E-01  0.35000000000E-01  0.51099999109E-03 0. -1.
       22    1    1    2    0    0 -0.31834200320E-02 -0.13170179770E-01 -0.32138917108E-01  0.34878328388E-01  0.00000000000E+00 0. -1.
       22    1    1    2    0    0  0.32130952382E-03  0.65376662167E-03  0.29351790202E-03  0.78536829864E-03  0.00000000000E+00 0. -1.
       22    1    1    2    0    0  0.28621105082E-02  0.12516413149E-01  0.31845399206E-01  0.34336303313E-01  0.00000000000E+00 0.  1.
</event>
<event>
 5   0  0.4143600E+04  0.9118800E+02  0.7546771E-02  0.1180000E+00
      -11   -1    0    0    0    0  0.00000000000E+00  0.00000000000E+00  0.34996269501E-01  0.35000000000E-01  0.51099999109E-03 0. -1.
       11   -1    0    0    0    0 -0.00000000000E+00 -0.00000000000E+00 -0.34996269501E-01  0.35000000000E-01  0.51099999109E-03 0.  1.
       22    1    1    2    0    0  0.30167394244E-02 -0.11886921747E-02 -0.16546939569E-01  0.16861640339E-01  0.00000000000E+00 0.  1.
       22    1    1    2    0    0  0.72284026242E-02 -0.67913571296E-02  0.31680466295E-01  0.33196751058E-01  0.00000000000E+00 0. -1.
       22    1    1    2    0    0 -0.10245142049E-01  0.79800493043E-02 -0.15133526726E-01  0.19941608602E-01  0.00000000000E+00 0.  1.
</event>
<event>
 5   0  0.4143600E+04  0.9118800E+02  0.7546771E-02  0.1180000E+00
      -11   -1    0    0    0    0  0.00000000000E+00  0.00000000000E+00  0.34996269501E-01  0.35000000000E-01  0.51099999109E-03 0. -1.
       11   -1    0    0    0    0 -0.00000000000E+00 -0.00000000000E+00 -0.34996269501E-01  0.35000000000E-01  0.51099999109E-03 0.  1.
       22    1    1    2    0    0  0.25410399363E-02  0.14879947542E-02 -0.30799209301E-02  0.42610943761E-02  0.00000000000E+00 0.  1.
       22    1    1    2    0    0 -0.22428632214E-02  0.31652665050E-02 -0.31050272606E-01  0.31291672636E-01  0.00000000000E+00 0.  1.
       22    1    1    2    0    0 -0.29817671488E-03 -0.46532612592E-02  0.34130193536E-01  0.34447232988E-01  0.00000000000E+00 0. -1.
</event>
<event>
 5   0  0.4143600E+04  0.9118800E+02  0.7546771E-02  0.1180000E+00
      -11   -1    0    0    0    0  0.00000000000E+00  0.00000000000E+00  0.34996269501E-01  0.35000000000E-01  0.51099999109E-03 0. -1.
       11   -1    0    0    0    0 -0.00000000000E+00 -0.00000000000E+00 -0.34996269501E-01  0.35000000000E-01  0.51099999109E-03 0.  1.
       22    1    1    2    0    0 -0.17050299607E-02 -0.57397957908E-04 -0.25748530082E-01  0.25804984462E-01  0.00000000000E+00 0.  1.
       22    1    1    2    0    0  0.18022628736E-03 -0.47437558572E-02  0.34107069249E-01  0.34435851578E-01  0.00000000000E+00 0. -1.
       22    1    1    2    0    0  0.15248036733E-02  0.48011538151E-02 -0.83585391666E-02  0.97591639600E-02  0.00000000000E+00 0.  1.
</event>
<event>
 5   0  0.4143600E+04  0.9118800E+02  0.7546771E-02  0.1180000E+00
      -11   -1    0    0    0    0  0.00000000000E+00  0.00000000000E+00  0.34996269501E-01  0.35000000000E-01  0.51099999109E-03 0. -1.
       11   -1    0    0    0    0 -0.00000000000E+00 -0.00000000000E+00 -0.34996269501E-01  0.35000000000E-01  0.51099999109E-03 0.  1.
       22    1    1    2    0    0 -0.15743571678E-01 -0.32433804819E-02  0.29532685357E-01  0.33623787273E-01  0.00000000000E+00 0. -1.
       22    1    1    2    0    0 -0.97256055795E-03  0.78614424711E-03  0.91859945776E-03  0.15516835309E-02  0.00000000000E+00 0.  1.
       22    1    1    2    0    0  0.16716132236E-01  0.24572362348E-02 -0.30451284815E-01  0.34824529196E-01  0.00000000000E+00 0.  1.
</event>
<event>
 5   0  0.4143600E+04  0.9118800E+02  0.7546771E-02  0.1180000E+00
      -11   -1    0    0    0    0  0.00000000000E+00  0.00000000000E+00  0.34996269501E-01  0.35000000000E-01  0.51099999109E-03 0.  1.
       11   -1    0    0    0    0 -0.00000000000E+00 -0.00000000000E+00 -0.34996269501E-01  0.35000000000E-01  0.51099999109E-03 0. -1.
       22    1    1    2    0    0  0.62361874970E-02  0.16050082786E-01 -0.30309823236E-01  0.34859440278E-01  0.00000000000E+00 0. -1.
       22    1    1    2    0    0 -0.10552598812E-03 -0.12261162269E-04  0.21950621902E-02  0.21976314726E-02  0.00000000000E+00 0. -1.
       22    1    1    2    0    0 -0.61306615089E-02 -0.16037821624E-01  0.28114761046E-01  0.32942928249E-01  0.00000000000E+00 0.  1.
</event>
<event>
 5   0  0.4143600E+04  0.9118800E+02  0.7546771E-02  0.1180000E+00
      -11   -1    0    0    0    0  0.00000000000E+00  0.00000000000E+00  0.34996269501E-01  0.35000000000E-01  0.51099999109E-03 0.  1.
       11   -1    0    0    0    0 -0.00000000000E+00 -0.00000000000E+00 -0.34996269501E-01  0.35000000000E-01  0.51099999109E-03 0. -1.
       22    1    1    2    0    0 -0.14300616617E-02  0.13178780920E-02 -0.30934872253E-01  0.30995938449E-01  0.00000000000E+00 0. -1.
       22    1    1    2    0    0 -0.00000000000E+00 -0.00000000000E+00  0.34736195925E-01  0.34734173885E-01  0.00000000000E+00 0.  1.
       22    1    1    2    0    0  0.14300616617E-02 -0.13178780920E-02 -0.38013236723E-02  0.42698876664E-02  0.00000000000E+00 0.  1.
</event>
<event>
 5   0  0.4143600E+04  0.9118800E+02  0.7546771E-02  0.1180000E+00
      -11   -1    0    0    0    0  0.00000000000E+00  0.00000000000E+00  0.34996269501E-01  0.35000000000E-01  0.51099999109E-03 0. -1.
       11   -1    0    0    0    0 -0.00000000000E+00 -0.00000000000E+00 -0.34996269501E-01  0.35000000000E-01  0.51099999109E-03 0.  1.
       22    1    1    2    0    0 -0.18463648786E-01 -0.15227599753E-01  0.25405065740E-01  0.34902771896E-01  0.00000000000E+00 0. -1.
       22    1    1    2    0    0  0.20354096527E-02  0.41430901729E-03 -0.25750901869E-02  0.33084186384E-02  0.00000000000E+00 0.  1.
       22    1    1    2    0    0  0.16428239134E-01  0.14813290736E-01 -0.22829975553E-01  0.31788809466E-01  0.00000000000E+00 0.  1.
</event>
<event>
 5   0  0.4143600E+04  0.9118800E+02  0.7546771E-02  0.1180000E+00
      -11   -1    0    0    0    0  0.00000000000E+00  0.00000000000E+00  0.34996269501E-01  0.35000000000E-01  0.51099999109E-03 0.  1.
       11   -1    0    0    0    0 -0.00000000000E+00 -0.00000000000E+00 -0.34996269501E-01  0.35000000000E-01  0.51099999109E-03 0. -1.
       22    1    1    2    0    0 -0.42712124307E-02 -0.18736131119E-01 -0.25040453312E-01  0.31564381302E-01  0.00000000000E+00 0. -1.
       22    1    1    2    0    0 -0.29920474560E-03  0.17369038891E-03  0.18091788416E-01  0.18095096019E-01  0.00000000000E+00 0.  1.
       22    1    1    2    0    0  0.45704171763E-02  0.18562440730E-01  0.69486648952E-02  0.20340522679E-01  0.00000000000E+00 0.  1.
</event>
<event>
 5   0  0.4143600E+04  0.9118800E+02  0.7546771E-02  0.1180000E+00
      -11   -1    0    0    0    0  0.00000000000E+00  0.00000000000E+00  0.34996269501E-01  0.35000000000E-01  0.51099999109E-03 0.  1.
       11   -1    0    0    0    0 -0.00000000000E+00 -0.00000000000E+00 -0.34996269501E-01  0.35000000000E-01  0.51099999109E-03 0. -1.
       22    1    1    2    0    0 -0.60176660102E-03 -0.25657633448E-03 -0.14637390326E-02  0.16032736550E-02  0.00000000000E+00 0. -1.
       22    1    1    2    0    0 -0.10575260438E-01 -0.64260472387E-02  0.32480070460E-01  0.34757519956E-01  0.00000000000E+00 0.  1.
       22    1    1    2    0    0  0.11177027039E-01  0.66826235732E-02 -0.31016331427E-01  0.33639206389E-01  0.00000000000E+00 0. -1.
</event>
<event>
 5   0  0.4143600E+04  0.9118800E+02  0.7546771E-02  0.1180000E+00
      -11   -1    0    0    0    0  0.00000000000E+00  0.00000000000E+00  0.34996269501E-01  0.35000000000E-01  0.51099999109E-03 0. -1.
       11   -1    0    0    0    0 -0.00000000000E+00 -0.00000000000E+00 -0.34996269501E-01  0.35000000000E-01  0.51099999109E-03 0.  1.
       22    1    1    2    0    0  0.17220343020E-01 -0.12533460326E-01 -0.27722434657E-01  0.34959422547E-01  0.00000000000E+00 0.  1.
       22    1    1    2    0    0 -0.24810262429E-03  0.20195254899E-03  0.10995108735E-02  0.11451043207E-02  0.00000000000E+00 0.  1.
       22    1    1    2    0    0 -0.16972240396E-01  0.12331507777E-01  0.26622923784E-01  0.33895473133E-01  0.00000000000E+00 0. -1.
</event>
<event>
 5   0  0.4143600E+04  0.9118800E+02  0.7546771E-02  0.1180000E+00
      -11   -1    0    0    0    0  0.00000000000E+00  0.00000000000E+00  0.34996269501E-01  0.35000000000E-01  0.51099999109E-03 0. -1.
       11   -1    0    0    0    0 -0.00000000000E+00 -0.00000000000E+00 -0.34996269501E-01  0.35000000000E-01  0.51099999109E-03 0.  1.
       22    1    1    2    0    0 -0.13086826703E-01  0.52265382615E-02 -0.31753505382E-01  0.34739989053E-01  0.00000000000E+00 0.  1.
       22    1    1    2    0    0 -0.15564094175E-03 -0.33109473121E-03 -0.13174883481E-03  0.38885161599E-03  0.00000000000E+00 0. -1.
       22    1    1    2    0    0  0.13242467645E-01 -0.48954435303E-02  0.31885254216E-01  0.34871159331E-01  0.00000000000E+00 0. -1.
</event>
<event>
 5   0  0.4143600E+04  0.9118800E+02  0.7546771E-02  0.1180000E+00
      -11   -1    0    0    0    0  0.00000000000E+00  0.00000000000E+00  0.34996269501E-01  0.35000000000E-01  0.51099999109E-03 0. -1.
       11   -1    0    0    0    0 -0.00000000000E+00 -0.00000000000E+00 -0.34996269501E-01  0.35000000000E-01  0.51099999109E-03 0.  1.
       22    1    1    2    0    0 -0.31440101878E-02  0.90392805778E-03 -0.14560467430E-01  0.14923441218E-01  0.00000000000E+00 0.  1.
       22    1    1    2    0    0 -0.13522414318E-02 -0.78831482149E-02  0.33476551440E-01  0.34418775094E-01  0.00000000000E+00 0. -1.
       22    1    1    2    0    0  0.44962516195E-02  0.69792201571E-02 -0.18916084010E-01  0.20657783688E-01  0.00000000000E+00 0.  1.
</event>
<event>
 5   0  0.4143600E+04  0.9118800E+02  0.7546771E-02  0.1180000E+00
      -11   -1    0    0    0    0  0.00000000000E+00  0.00000000000E+00  0.34996269501E-01  0.35000000000E-01  0.51099999109E-03 0. -1.
       11   -1    0    0    0    0 -0.00000000000E+00 -0.00000000000E+00 -0.34996269501E-01  0.35000000000E-01  0.51099999109E-03 0.  1.
       22    1    1    2    0    0 -0.12362271271E-02 -0.21334112101E-02  0.34508046342E-01  0.34596025252E-01  0.00000000000E+00 0. -1.
       22    1    1    2    0    0  0.19068994092E-02  0.26887845888E-02 -0.57130441833E-02  0.65958094092E-02  0.00000000000E+00 0.  1.
       22    1    1    2    0    0 -0.67067228212E-03 -0.55537337869E-03 -0.28795002158E-01  0.28808165339E-01  0.00000000000E+00 0.  1.
</event>
<event>
 5   0  0.4143600E+04  0.9118800E+02  0.7546771E-02  0.1180000E+00
      -11   -1    0    0    0    0  0.00000000000E+00  0.00000000000E+00  0.34996269501E-01  0.35000000000E-01  0.51099999109E-03 0. -1.
       11   -1    0    0    0    0 -0.00000000000E+00 -0.00000000000E+00 -0.34996269501E-01  0.35000000000E-01  0.51099999109E-03 0.  1.
       22    1    1    2    0    0 -0.27891452537E-02  0.35068251950E-02  0.12441191045E-01  0.13223478696E-01  0.00000000000E+00 0. -1.
       22    1    1    2    0    0  0.22083337553E-01 -0.56529294036E-02  0.11841539658E-01  0.25687574230E-01  0.00000000000E+00 0. -1.
       22    1    1    2    0    0 -0.19294192300E-01  0.21461042086E-02 -0.24282730703E-01  0.31088947074E-01  0.00000000000E+00 0.  1.
</event>
<event>
 5   0  0.4143600E+04  0.9118800E+02  0.7546771E-02  0.1180000E+00
      -11   -1    0    0    0    0  0.00000000000E+00  0.00000000000E+00  0.34996269501E-01  0.35000000000E-01  0.51099999109E-03 0. -1.
       11   -1    0    0    0    0 -0.00000000000E+00 -0.00000000000E+00 -0.34996269501E-01  0.35000000000E-01  0.51099999109E-03 0.  1.
       22    1    1    2    0    0  0.40413325527E-02  0.14856432993E-02  0.34500329145E-01  0.34767976874E-01  0.00000000000E+00 0. -1.
       22    1    1    2    0    0 -0.14633534664E-02 -0.15200970356E-02 -0.29770214088E-01  0.29844894794E-01  0.00000000000E+00 0.  1.
       22    1    1    2    0    0 -0.25779790863E-02  0.34453736330E-04 -0.47301150561E-02  0.53871283327E-02  0.00000000000E+00 0. -1.
</event>
<event>
 5   0  0.4143600E+04  0.9118800E+02  0.7546771E-02  0.1180000E+00
      -11   -1    0    0    0    0  0.00000000000E+00  0.00000000000E+00  0.34996269501E-01  0.35000000000E-01  0.51099999109E-03 0.  1.
       11   -1    0    0    0    0 -0.00000000000E+00 -0.00000000000E+00 -0.34996269501E-01  0.35000000000E-01  0.51099999109E-03 0. -1.
       22    1    1    2    0    0 -0.59267967728E-02  0.52801807878E-02 -0.17611203515E-01  0.19317394193E-01  0.00000000000E+00 0. -1.
       22    1    1    2    0    0  0.27733741221E-02  0.10435238678E-01 -0.12532461381E-01  0.16542321438E-01  0.00000000000E+00 0. -1.
       22    1    1    2    0    0  0.31534226507E-02 -0.15715419466E-01  0.30143664896E-01  0.34140284369E-01  0.00000000000E+00 0.  1.
</event>
<event>
 5   0  0.4143600E+04  0.9118800E+02  0.7546771E-02  0.1180000E+00
      -11   -1    0    0    0    0  0.00000000000E+00  0.00000000000E+00  0.34996269501E-01  0.35000000000E-01  0.51099999109E-03 0.  1.
       11   -1    0    0    0    0 -0.00000000000E+00 -0.00000000000E+00 -0.34996269501E-01  0.35000000000E-01  0.51099999109E-03 0. -1.
       22    1    1    2    0    0  0.21235109532E-01 -0.21794344697E-01  0.15883238047E-01  0.34324926634E-01  0.00000000000E+00 0.  1.
       22    1    1    2    0    0 -0.21939125473E-01  0.22014714143E-01 -0.14959423554E-01  0.34492857498E-01  0.00000000000E+00 0. -1.
       22    1    1    2    0    0  0.70401594181E-03 -0.22036944583E-03 -0.92381449333E-03  0.11822158674E-02  0.00000000000E+00 0. -1.
</event>
<event>
 5   0  0.4143600E+04  0.9118800E+02  0.7546771E-02  0.1180000E+00
      -11   -1    0    0    0    0  0.00000000000E+00  0.00000000000E+00  0.34996269501E-01  0.35000000000E-01  0.51099999109E-03 0.  1.
       11   -1    0    0    0    0 -0.00000000000E+00 -0.00000000000E+00 -0.34996269501E-01  0.35000000000E-01  0.51099999109E-03 0. -1.
       22    1    1    2    0    0  0.19160074287E-01  0.28116355124E-02 -0.26732020092E-01  0.33009311401E-01  0.00000000000E+00 0. -1.
       22    1    1    2    0    0 -0.72107042346E-03  0.49011263731E-02  0.89920647392E-02  0.10266363064E-01  0.00000000000E+00 0.  1.
       22    1    1    2    0    0 -0.18439003864E-01 -0.77127618855E-02  0.17739955353E-01  0.26724325535E-01  0.00000000000E+00 0.  1.
</event>
<event>
 5   0  0.4143600E+04  0.9118800E+02  0.7546771E-02  0.1180000E+00
      -11   -1    0    0    0    0  0.00000000000E+00  0.00000000000E+00  0.34996269501E-01  0.35000000000E-01  0.51099999109E-03 0.  1.
       11   -1    0    0    0    0 -0.00000000000E+00 -0.00000000000E+00 -0.34996269501E-01  0.35000000000E-01  0.51099999109E-03 0. -1.
       22    1    1    2    0    0 -0.12803470704E-01  0.19921295215E-02 -0.32466596850E-01  0.34956792661E-01  0.00000000000E+00 0. -1.
       22    1    1    2    0    0  0.35968350111E-03  0.94907393701E-04  0.26181413922E-03  0.45489150118E-03  0.00000000000E+00 0. -1.
       22    1    1    2    0    0  0.12443787203E-01 -0.20870369152E-02  0.32204782711E-01  0.34588315838E-01  0.00000000000E+00 0.  1.
</event>
<event>
 5   0  0.4143600E+04  0.9118800E+02  0.7546771E-02  0.1180000E+00
      -11   -1    0    0    0    0  0.00000000000E+00  0.00000000000E+00  0.34996269501E-01  0.35000000000E-01  0.51099999109E-03 0.  1.
       11   -1    0    0    0    0 -0.00000000000E+00 -0.00000000000E+00 -0.34996269501E-01  0.35000000000E-01  0.51099999109E-03 0. -1.
       22    1    1    2    0    0  0.14735866825E-02  0.24993245287E-02  0.36572503293E-02  0.46683573965E-02  0.00000000000E+00 0.  1.
       22    1    1    2    0    0  0.97051563739E-02  0.89824030199E-02  0.27377440161E-01  0.30403911821E-01  0.00000000000E+00 0.  1.
       22    1    1    2    0    0 -0.11178743056E-01 -0.11481727549E-01 -0.31034690490E-01  0.34927730783E-01  0.00000000000E+00 0. -1.
</event>
<event>
 5   0  0.4143600E+04  0.9118800E+02  0.7546771E-02  0.1180000E+00
      -11   -1    0    0    0    0  0.00000000000E+00  0.00000000000E+00  0.34996269501E-01  0.35000000000E-01  0.51099999109E-03 0.  1.
       11   -1    0    0    0    0 -0.00000000000E+00 -0.00000000000E+00 -0.34996269501E-01  0.35000000000E-01  0.51099999109E-03 0.  1.
       22    1    1    2    0    0  0.10417373484E-01 -0.10251572475E-01 -0.19365107307E-01  0.24261570220E-01  0.00000000000E+00 0.  1.
       22    1    1    2    0    0 -0.10417373484E-01  0.10251572475E-01 -0.91385750206E-02  0.17237458105E-01  0.00000000000E+00 0. -1.
       22    1    1    2    0    0 -0.00000000000E+00 -0.00000000000E+00  0.28503682328E-01  0.28500971675E-01  0.00000000000E+00 0.  1.
</event>
<event>
 5   0  0.4143600E+04  0.9118800E+02  0.7546771E-02  0.1180000E+00
      -11   -1    0    0    0    0  0.00000000000E+00  0.00000000000E+00  0.34996269501E-01  0.35000000000E-01  0.51099999109E-03 0.  1.
       11   -1    0    0    0    0 -0.00000000000E+00 -0.00000000000E+00 -0.34996269501E-01  0.35000000000E-01  0.51099999109E-03 0. -1.
       22    1    1    2    0    0  0.23957745297E-02 -0.87829977105E-02  0.33187164361E-01  0.34413204772E-01  0.00000000000E+00 0.  1.
       22    1    1    2    0    0 -0.53882799026E-02  0.33725650835E-02 -0.20678515612E-01  0.21633510197E-01  0.00000000000E+00 0. -1.
       22    1    1    2    0    0  0.29925053729E-02  0.54104326270E-02 -0.12508648749E-01  0.13953285031E-01  0.00000000000E+00 0. -1.
</event>
<event>
 5   0  0.4143600E+04  0.9118800E+02  0.7546771E-02  0.1180000E+00
      -11   -1    0    0    0    0  0.00000000000E+00  0.00000000000E+00  0.34996269501E-01  0.35000000000E-01  0.51099999109E-03 0.  1.
       11   -1    0    0    0    0 -0.00000000000E+00 -0.00000000000E+00 -0.34996269501E-01  0.35000000000E-01  0.51099999109E-03 0. -1.
       22    1    1    2    0    0 -0.15160274992E-01  0.95665212789E-02 -0.28698160386E-01  0.33836912931E-01  0.00000000000E+00 0. -1.
       22    1    1    2    0    0  0.69179997682E-04  0.19249881168E-03 -0.12336212280E-02  0.12504651129E-02  0.00000000000E+00 0.  1.
       22    1    1    2    0    0  0.15091094994E-01 -0.97590200905E-02  0.29931781614E-01  0.34912621956E-01  0.00000000000E+00 0.  1.
</event>
<event>
 5   0  0.4143600E+04  0.9118800E+02  0.7546771E-02  0.1180000E+00
      -11   -1    0    0    0    0  0.00000000000E+00  0.00000000000E+00  0.34996269501E-01  0.35000000000E-01  0.51099999109E-03 0. -1.
       11   -1    0    0    0    0 -0.00000000000E+00 -0.00000000000E+00 -0.34996269501E-01  0.35000000000E-01  0.51099999109E-03 0.  1.
       22    1    1    2    0    0  0.16227176797E-01 -0.58400341175E-02 -0.25156468548E-01  0.30500412704E-01  0.00000000000E+00 0.  1.
       22    1    1    2    0    0 -0.64093374291E-04 -0.15306251733E-03 -0.48720213388E-02  0.48748464612E-02  0.00000000000E+00 0.  1.
       22    1    1    2    0    0 -0.16163083423E-01  0.59930966348E-02  0.30028489887E-01  0.34624740835E-01  0.00000000000E+00 0. -1.
</event>
<event>
 5   0  0.4143600E+04  0.9118800E+02  0.7546771E-02  0.1180000E+00
      -11   -1    0    0    0    0  0.00000000000E+00  0.00000000000E+00  0.34996269501E-01  0.35000000000E-01  0.51099999109E-03 0.  1.
       11   -1    0    0    0    0 -0.00000000000E+00 -0.00000000000E+00 -0.34996269501E-01  0.35000000000E-01  0.51099999109E-03 0. -1.
       22    1    1    2    0    0 -0.14889586416E-04 -0.95968702727E-05  0.49448892225E-03  0.49480611751E-03  0.00000000000E+00 0.  1.
       22    1    1    2    0    0  0.79821856377E-03  0.12249167121E-01 -0.32761645449E-01  0.34985777976E-01  0.00000000000E+00 0. -1.
       22    1    1    2    0    0 -0.78332897735E-03 -0.12239570251E-01  0.32267156527E-01  0.34519415907E-01  0.00000000000E+00 0.  1.
</event>
<event>
 5   0  0.4143600E+04  0.9118800E+02  0.7546771E-02  0.1180000E+00
      -11   -1    0    0    0    0  0.00000000000E+00  0.00000000000E+00  0.34996269501E-01  0.35000000000E-01  0.51099999109E-03 0.  1.
       11   -1    0    0    0    0 -0.00000000000E+00 -0.00000000000E+00 -0.34996269501E-01  0.35000000000E-01  0.51099999109E-03 0.  1.
       22    1    1    2    0    0 -0.41264471083E-03 -0.29001907755E-05 -0.33878811793E-01  0.33881324835E-01  0.00000000000E+00 0.  1.
       22    1    1    2    0    0 -0.00000000000E+00  0.00000000000E+00  0.34962433894E-01  0.34959140376E-01  0.00000000000E+00 0.  1.
       22    1    1    2    0    0  0.41264471083E-03  0.29001907755E-05 -0.10836221013E-02  0.11595347890E-02  0.00000000000E+00 0.  1.
</event>
<event>
 5   0  0.4143600E+04  0.9118800E+02  0.7546771E-02  0.1180000E+00
      -11   -1    0    0    0    0  0.00000000000E+00  0.00000000000E+00  0.34996269501E-01  0.35000000000E-01  0.51099999109E-03 0.  1.
       11   -1    0    0    0    0 -0.00000000000E+00 -0.00000000000E+00 -0.34996269501E-01  0.35000000000E-01  0.51099999109E-03 0. -1.
       22    1    1    2    0    0  0.13495136084E-01  0.90748984479E-02  0.28920505760E-01  0.33179332922E-01  0.00000000000E+00 0.  1.
       22    1    1    2    0    0 -0.13549071761E-01 -0.91824231623E-02 -0.30831085446E-01  0.34906304166E-01  0.00000000000E+00 0. -1.
       22    1    1    2    0    0  0.53935677159E-04  0.10752471437E-03  0.19105796866E-02  0.19143629124E-02  0.00000000000E+00 0. -1.
</event>
<event>
 5   0  0.4143600E+04  0.9118800E+02  0.7546771E-02  0.1180000E+00
      -11   -1    0    0    0    0  0.00000000000E+00  0.00000000000E+00  0.34996269501E-01  0.35000000000E-01  0.51099999109E-03 0. -1.
       11   -1    0    0    0    0 -0.00000000000E+00 -0.00000000000E+00 -0.34996269501E-01  0.35000000000E-01  0.51099999109E-03 0.  1.
       22    1    1    2    0    0 -0.65636576219E-04 -0.86729976905E-04 -0.36427350185E-03  0.38016500783E-03  0.00000000000E+00 0.  1.
       22    1    1    2    0    0 -0.10011310238E-01  0.18590106266E-01 -0.27509835434E-01  0.34678659566E-01  0.00000000000E+00 0.  1.
       22    1    1    2    0    0  0.10076946814E-01 -0.18503376289E-01  0.27874108936E-01  0.34941175426E-01  0.00000000000E+00 0. -1.
</event>
<event>
 5   0  0.4143600E+04  0.9118800E+02  0.7546771E-02  0.1180000E+00
      -11   -1    0    0    0    0  0.00000000000E+00  0.00000000000E+00  0.34996269501E-01  0.35000000000E-01  0.51099999109E-03 0. -1.
       11   -1    0    0    0    0 -0.00000000000E+00 -0.00000000000E+00 -0.34996269501E-01  0.35000000000E-01  0.51099999109E-03 0.  1.
       22    1    1    2    0    0 -0.50273423073E-02  0.28007775017E-01  0.20306227026E-01  0.34957867328E-01  0.00000000000E+00 0. -1.
       22    1    1    2    0    0 -0.10949948672E-03 -0.12634746631E-03 -0.29945253484E-03  0.34296594650E-03  0.00000000000E+00 0. -1.
       22    1    1    2    0    0  0.51368417940E-02 -0.27881427551E-01 -0.20006774491E-01  0.34699166725E-01  0.00000000000E+00 0.  1.
</event>
<event>
 5   0  0.4143600E+04  0.9118800E+02  0.7546771E-02  0.1180000E+00
      -11   -1    0    0    0    0  0.00000000000E+00  0.00000000000E+00  0.34996269501E-01  0.35000000000E-01  0.51099999109E-03 0.  1.
       11   -1    0    0    0    0 -0.00000000000E+00 -0.00000000000E+00 -0.34996269501E-01  0.35000000000E-01  0.51099999109E-03 0. -1.
       22    1    1    2    0    0 -0.14659738176E-01  0.80261297215E-02  0.26022219971E-01  0.30927053108E-01  0.00000000000E+00 0.  1.
       22    1    1    2    0    0  0.19081738004E-01 -0.11989558085E-01 -0.16818552416E-01  0.28119849461E-01  0.00000000000E+00 0. -1.
       22    1    1    2    0    0 -0.44219998276E-02  0.39634283639E-02 -0.92036675552E-02  0.10953097431E-01  0.00000000000E+00 0. -1.
</event>
<event>
 5   0  0.4143600E+04  0.9118800E+02  0.7546771E-02  0.1180000E+00
      -11   -1    0    0    0    0  0.00000000000E+00  0.00000000000E+00  0.34996269501E-01  0.35000000000E-01  0.51099999109E-03 0.  1.
       11   -1    0    0    0    0 -0.00000000000E+00 -0.00000000000E+00 -0.34996269501E-01  0.35000000000E-01  0.51099999109E-03 0. -1.
       22    1    1    2    0    0  0.39691743526E-03  0.28670651099E-03 -0.91224199761E-02  0.91355509026E-02  0.00000000000E+00 0.  1.
       22    1    1    2    0    0  0.65015487332E-02  0.13749800037E-01  0.30672896573E-01  0.34236730586E-01  0.00000000000E+00 0.  1.
       22    1    1    2    0    0 -0.68984661684E-02 -0.14036506548E-01 -0.21550476597E-01  0.26627718512E-01  0.00000000000E+00 0. -1.
</event>
<event>
 5   0  0.4143600E+04  0.9118800E+02  0.7546771E-02  0.1180000E+00
      -11   -1    0    0    0    0  0.00000000000E+00  0.00000000000E+00  0.34996269501E-01  0.35000000000E-01  0.51099999109E-03 0. -1.
       11   -1    0    0    0    0 -0.00000000000E+00 -0.00000000000E+00 -0.34996269501E-01  0.35000000000E-01  0.51099999109E-03 0.  1.
       22    1    1    2    0    0 -0.68457932966E-05  0.93845038173E-04 -0.10209011218E-02  0.10252281973E-02  0.00000000000E+00 0. -1.
       22    1    1    2    0    0 -0.43970548526E-02 -0.17684473713E-01  0.29817083726E-01  0.34944716107E-01  0.00000000000E+00 0. -1.
       22    1    1    2    0    0  0.44039006459E-02  0.17590628674E-01 -0.28796182604E-01  0.34030055696E-01  0.00000000000E+00 0.  1.
</event>
<event>
 5   0  0.4143600E+04  0.9118800E+02  0.7546771E-02  0.1180000E+00
      -11   -1    0    0    0    0  0.00000000000E+00  0.00000000000E+00  0.34996269501E-01  0.35000000000E-01  0.51099999109E-03 0. -1.
       11   -1    0    0    0    0 -0.00000000000E+00 -0.00000000000E+00 -0.34996269501E-01  0.35000000000E-01  0.51099999109E-03 0.  1.
       22    1    1    2    0    0  0.10825200442E-03 -0.20815180012E-03 -0.44648304598E-03  0.50437364988E-03  0.00000000000E+00 0. -1.
       22    1    1    2    0    0 -0.18991740836E-02  0.12773066155E-01 -0.32079501379E-01  0.34581100184E-01  0.00000000000E+00 0.  1.
       22    1    1    2    0    0  0.17909220791E-02 -0.12564914355E-01  0.32525984425E-01  0.34914526167E-01  0.00000000000E+00 0. -1.
</event>
<event>
 5   0  0.4143600E+04  0.9118800E+02  0.7546771E-02  0.1180000E+00
      -11   -1    0    0    0    0  0.00000000000E+00  0.00000000000E+00  0.34996269501E-01  0.35000000000E-01  0.51099999109E-03 0. -1.
       11   -1    0    0    0    0 -0.00000000000E+00 -0.00000000000E+00 -0.34996269501E-01  0.35000000000E-01  0.51099999109E-03 0.  1.
       22    1    1    2    0    0  0.14610515681E-01  0.83205438087E-02 -0.29647846218E-01  0.34083623679E-01  0.00000000000E+00 0.  1.
       22    1    1    2    0    0  0.21142060899E-03  0.55891900478E-03 -0.74530186098E-03  0.95528215298E-03  0.00000000000E+00 0.  1.
       22    1    1    2    0    0 -0.14821936290E-01 -0.88794628135E-02  0.30393148079E-01  0.34961094168E-01  0.00000000000E+00 0. -1.
</event>
<event>
 5   0  0.4143600E+04  0.9118800E+02  0.7546771E-02  0.1180000E+00
      -11   -1    0    0    0    0  0.00000000000E+00  0.00000000000E+00  0.34996269501E-01  0.35000000000E-01  0.51099999109E-03 0.  1.
       11   -1    0    0    0    0 -0.00000000000E+00 -0.00000000000E+00 -0.34996269501E-01  0.35000000000E-01  0.51099999109E-03 0.  1.
       22    1    1    2    0    0 -0.00000000000E+00  0.00000000000E+00  0.34036651012E-01  0.34034657784E-01  0.00000000000E+00 0.  1.
       22    1    1    2    0    0 -0.16472643729E-02 -0.54961290245E-02 -0.14194768118E-01  0.15310530889E-01  0.00000000000E+00 0. -1.
       22    1    1    2    0    0  0.16472643729E-02  0.54961290245E-02 -0.19841882894E-01  0.20654811327E-01  0.00000000000E+00 0.  1.
</event>
<event>
 5   0  0.4143600E+04  0.9118800E+02  0.7546771E-02  0.1180000E+00
      -11   -1    0    0    0    0  0.00000000000E+00  0.00000000000E+00  0.34996269501E-01  0.35000000000E-01  0.51099999109E-03 0.  1.
       11   -1    0    0    0    0 -0.00000000000E+00 -0.00000000000E+00 -0.34996269501E-01  0.35000000000E-01  0.51099999109E-03 0. -1.
       22    1    1    2    0    0  0.40499555086E-02 -0.10090983634E-02 -0.26657276109E-01  0.26982045673E-01  0.00000000000E+00 0. -1.
       22    1    1    2    0    0 -0.24333372706E-03 -0.10116921016E-02  0.34261527529E-01  0.34277324879E-01  0.00000000000E+00 0.  1.
       22    1    1    2    0    0 -0.38066217816E-02  0.20207904650E-02 -0.76042514200E-02  0.87406294482E-02  0.00000000000E+00 0.  1.
</event>
<event>
 5   0  0.4143600E+04  0.9118800E+02  0.7546771E-02  0.1180000E+00
      -11   -1    0    0    0    0  0.00000000000E+00  0.00000000000E+00  0.34996269501E-01  0.35000000000E-01  0.51099999109E-03 0.  1.
       11   -1    0    0    0    0 -0.00000000000E+00 -0.00000000000E+00 -0.34996269501E-01  0.35000000000E-01  0.51099999109E-03 0. -1.
       22    1    1    2    0    0  0.61874347651E-02  0.13625913155E-01 -0.31619326383E-01  0.34981876153E-01  0.00000000000E+00 0. -1.
       22    1    1    2    0    0 -0.61773202001E-02 -0.13617109694E-01  0.31194529545E-01  0.34593115425E-01  0.00000000000E+00 0.  1.
       22    1    1    2    0    0 -0.10114565029E-04 -0.88034603313E-05  0.42479683800E-03  0.42500842217E-03  0.00000000000E+00 0.  1.
</event>
<event>
 5   0  0.4143600E+04  0.9118800E+02  0.7546771E-02  0.1180000E+00
      -11   -1    0    0    0    0  0.00000000000E+00  0.00000000000E+00  0.34996269501E-01  0.35000000000E-01  0.51099999109E-03 0.  1.
       11   -1    0    0    0    0 -0.00000000000E+00 -0.00000000000E+00 -0.34996269501E-01  0.35000000000E-01  0.51099999109E-03 0. -1.
       22    1    1    2    0    0 -0.14571418137E-01  0.33839570665E-02  0.27164393089E-01  0.31010992307E-01  0.00000000000E+00 0.  1.
       22    1    1    2    0    0  0.14487193545E-01 -0.34139243990E-02 -0.31401811514E-01  0.34750646367E-01  0.00000000000E+00 0. -1.
       22    1    1    2    0    0  0.84224591814E-04  0.29967332556E-04  0.42374184248E-02  0.42383613260E-02  0.00000000000E+00 0.  1.
</event>
<event>
 5   0  0.4143600E+04  0.9118800E+02  0.7546771E-02  0.1180000E+00
      -11   -1    0    0    0    0  0.00000000000E+00  0.00000000000E+00  0.34996269501E-01  0.35000000000E-01  0.51099999109E-03 0. -1.
       11   -1    0    0    0    0 -0.00000000000E+00 -0.00000000000E+00 -0.34996269501E-01  0.35000000000E-01  0.51099999109E-03 0.  1.
       22    1    1    2    0    0 -0.22625817564E-01 -0.24188306904E-02 -0.25922992783E-01  0.34493186532E-01  0.00000000000E+00 0.  1.
       22    1    1    2    0    0  0.22933379192E-01  0.28104127961E-02  0.26203664291E-01  0.34935230406E-01  0.00000000000E+00 0. -1.
       22    1    1    2    0    0 -0.30756162837E-03 -0.39158210572E-03 -0.28067150804E-03  0.57158306150E-03  0.00000000000E+00 0. -1.
</event>
<event>
 5   0  0.4143600E+04  0.9118800E+02  0.7546771E-02  0.1180000E+00
      -11   -1    0    0    0    0  0.00000000000E+00  0.00000000000E+00  0.34996269501E-01  0.35000000000E-01  0.51099999109E-03 0. -1.
       11   -1    0    0    0    0 -0.00000000000E+00 -0.00000000000E+00 -0.34996269501E-01  0.35000000000E-01  0.51099999109E-03 0.  1.
       22    1    1    2    0    0  0.12871762438E-01 -0.11913887803E-02  0.32270728861E-01  0.34763509844E-01  0.00000000000E+00 0. -1.
       22    1    1    2    0    0 -0.12207818570E-01  0.59376669053E-04 -0.31322374944E-01  0.33617339751E-01  0.00000000000E+00 0.  1.
       22    1    1    2    0    0 -0.66394386798E-03  0.11320121113E-02 -0.94835391764E-03  0.16191504047E-02  0.00000000000E+00 0.  1.
</event>
<event>
 5   0  0.4143600E+04  0.9118800E+02  0.7546771E-02  0.1180000E+00
      -11   -1    0    0    0    0  0.00000000000E+00  0.00000000000E+00  0.34996269501E-01  0.35000000000E-01  0.51099999109E-03 0.  1.
       11   -1    0    0    0    0 -0.00000000000E+00 -0.00000000000E+00 -0.34996269501E-01  0.35000000000E-01  0.51099999109E-03 0. -1.
       22    1    1    2    0    0 -0.70875831082E-03 -0.16165494902E-01 -0.30327755156E-01  0.34374384309E-01  0.00000000000E+00 0. -1.
       22    1    1    2    0    0 -0.12889114658E-02 -0.21653468762E-03  0.26901621088E-03  0.13343724215E-02  0.00000000000E+00 0. -1.
       22    1    1    2    0    0  0.19976697766E-02  0.16382029589E-01  0.30058738946E-01  0.34291243270E-01  0.00000000000E+00 0.  1.
</event>
<event>
 5   0  0.4143600E+04  0.9118800E+02  0.7546771E-02  0.1180000E+00
      -11   -1    0    0    0    0  0.00000000000E+00  0.00000000000E+00  0.34996269501E-01  0.35000000000E-01  0.51099999109E-03 0. -1.
       11   -1    0    0    0    0 -0.00000000000E+00 -0.00000000000E+00 -0.34996269501E-01  0.35000000000E-01  0.51099999109E-03 0.  1.
       22    1    1    2    0    0 -0.14283412528E-02  0.34632274701E-01 -0.35335359524E-02  0.34841361713E-01  0.00000000000E+00 0.  1.
       22    1    1    2    0    0  0.15991648499E-02 -0.34374091954E-01  0.39527032348E-02  0.34637543053E-01  0.00000000000E+00 0. -1.
       22    1    1    2    0    0 -0.17082359711E-03 -0.25818274707E-03 -0.41916728247E-03  0.52109523400E-03  0.00000000000E+00 0.  1.
</event>
<event>
 5   0  0.4143600E+04  0.9118800E+02  0.7546771E-02  0.1180000E+00
      -11   -1    0    0    0    0  0.00000000000E+00  0.00000000000E+00  0.34996269501E-01  0.35000000000E-01  0.51099999109E-03 0.  1.
       11   -1    0    0    0    0 -0.00000000000E+00 -0.00000000000E+00 -0.34996269501E-01  0.35000000000E-01  0.51099999109E-03 0. -1.
       22    1    1    2    0    0  0.61931338762E-02  0.24873264502E-01 -0.44122070907E-02  0.26009647549E-01  0.00000000000E+00 0.  1.
       22    1    1    2    0    0  0.17503018908E-02  0.39086956562E-02 -0.99686061493E-02  0.10849634418E-01  0.00000000000E+00 0.  1.
       22    1    1    2    0    0 -0.79434357670E-02 -0.28781960158E-01  0.14380813240E-01  0.33140718033E-01  0.00000000000E+00 0. -1.
</event>
<event>
 5   0  0.4143600E+04  0.9118800E+02  0.7546771E-02  0.1180000E+00
      -11   -1    0    0    0    0  0.00000000000E+00  0.00000000000E+00  0.34996269501E-01  0.35000000000E-01  0.51099999109E-03 0. -1.
       11   -1    0    0    0    0 -0.00000000000E+00 -0.00000000000E+00 -0.34996269501E-01  0.35000000000E-01  0.51099999109E-03 0. -1.
       22    1    1    2    0    0  0.45074247066E-03  0.25610453290E-02 -0.59841838907E-02  0.65247665698E-02  0.00000000000E+00 0.  1.
       22    1    1    2    0    0  0.12096479612E-03  0.11865901867E-03 -0.28691230665E-01  0.28691731030E-01  0.00000000000E+00 0. -1.
       22    1    1    2    0    0 -0.57170726678E-03 -0.26797043476E-02  0.34675414556E-01  0.34783502400E-01  0.00000000000E+00 0. -1.
</event>
<event>
 5   0  0.4143600E+04  0.9118800E+02  0.7546771E-02  0.1180000E+00
      -11   -1    0    0    0    0  0.00000000000E+00  0.00000000000E+00  0.34996269501E-01  0.35000000000E-01  0.51099999109E-03 0. -1.
       11   -1    0    0    0    0 -0.00000000000E+00 -0.00000000000E+00 -0.34996269501E-01  0.35000000000E-01  0.51099999109E-03 0.  1.
       22    1    1    2    0    0  0.12093278661E-03 -0.65156233027E-04 -0.91363311117E-03  0.92390234083E-03  0.00000000000E+00 0.  1.
       22    1    1    2    0    0  0.95378749949E-02  0.17002819938E-01  0.28964494894E-01  0.34914308094E-01  0.00000000000E+00 0. -1.
       22    1    1    2    0    0 -0.96588077815E-02 -0.16937663705E-01 -0.28050861782E-01  0.34161789565E-01  0.00000000000E+00 0.  1.
</event>
<event>
 5   0  0.4143600E+04  0.9118800E+02  0.7546771E-02  0.1180000E+00
      -11   -1    0    0    0    0  0.00000000000E+00  0.00000000000E+00  0.34996269501E-01  0.35000000000E-01  0.51099999109E-03 0. -1.
       11   -1    0    0    0    0 -0.00000000000E+00 -0.00000000000E+00 -0.34996269501E-01  0.35000000000E-01  0.51099999109E-03 0.  1.
       22    1    1    2    0    0 -0.21782514592E-01  0.10811349548E-01  0.24699088399E-01  0.34661335646E-01  0.00000000000E+00 0. -1.
       22    1    1    2    0    0  0.21879489259E-01 -0.10805802382E-01 -0.25052039990E-01  0.34972591025E-01  0.00000000000E+00 0.  1.
       22    1    1    2    0    0 -0.96974667070E-04 -0.55471659716E-05  0.35295159052E-03  0.36607332921E-03  0.00000000000E+00 0. -1.
</event>
<event>
 5   0  0.4143600E+04  0.9118800E+02  0.7546771E-02  0.1180000E+00
      -11   -1    0    0    0    0  0.00000000000E+00  0.00000000000E+00  0.34996269501E-01  0.35000000000E-01  0.51099999109E-03 0.  1.
       11   -1    0    0    0    0 -0.00000000000E+00 -0.00000000000E+00 -0.34996269501E-01  0.35000000000E-01  0.51099999109E-03 0. -1.
       22    1    1    2    0    0  0.13492125469E-01 -0.17722720631E-01 -0.26716212555E-01  0.34783448499E-01  0.00000000000E+00 0. -1.
       22    1    1    2    0    0 -0.10672090213E-02  0.21773236555E-03  0.21186467571E-03  0.11096076419E-02  0.00000000000E+00 0.  1.
       22    1    1    2    0    0 -0.12424916447E-01  0.17504988265E-01  0.26504347879E-01  0.34106943859E-01  0.00000000000E+00 0.  1.
</event>
<event>
 5   0  0.4143600E+04  0.9118800E+02  0.7546771E-02  0.1180000E+00
      -11   -1    0    0    0    0  0.00000000000E+00  0.00000000000E+00  0.34996269501E-01  0.35000000000E-01  0.51099999109E-03 0. -1.
       11   -1    0    0    0    0 -0.00000000000E+00 -0.00000000000E+00 -0.34996269501E-01  0.35000000000E-01  0.51099999109E-03 0. -1.
       22    1    1    2    0    0 -0.00000000000E+00 -0.00000000000E+00  0.34663982816E-01  0.34662391805E-01  0.00000000000E+00 0. -1.
       22    1    1    2    0    0  0.10643794483E-02 -0.21758583171E-02 -0.48095798409E-02  0.53851017884E-02  0.00000000000E+00 0.  1.
       22    1    1    2    0    0 -0.10643794483E-02  0.21758583171E-02 -0.29854402975E-01  0.29952506407E-01  0.00000000000E+00 0. -1.
</event>
<event>
 5   0  0.4143600E+04  0.9118800E+02  0.7546771E-02  0.1180000E+00
      -11   -1    0    0    0    0  0.00000000000E+00  0.00000000000E+00  0.34996269501E-01  0.35000000000E-01  0.51099999109E-03 0. -1.
       11   -1    0    0    0    0 -0.00000000000E+00 -0.00000000000E+00 -0.34996269501E-01  0.35000000000E-01  0.51099999109E-03 0.  1.
       22    1    1    2    0    0  0.20645701027E-02  0.17355214142E-01  0.29875686373E-01  0.34612462262E-01  0.00000000000E+00 0. -1.
       22    1    1    2    0    0 -0.53082072957E-03 -0.68030629145E-04  0.27274572766E-03  0.60065717793E-03  0.00000000000E+00 0. -1.
       22    1    1    2    0    0 -0.15337493731E-02 -0.17287183512E-01 -0.30148432101E-01  0.34786880560E-01  0.00000000000E+00 0.  1.
</event>
<event>
 5   0  0.4143600E+04  0.9118800E+02  0.7546771E-02  0.1180000E+00
      -11   -1    0    0    0    0  0.00000000000E+00  0.00000000000E+00  0.34996269501E-01  0.35000000000E-01  0.51099999109E-03 0.  1.
       11   -1    0    0    0    0 -0.00000000000E+00 -0.00000000000E+00 -0.34996269501E-01  0.35000000000E-01  0.51099999109E-03 0. -1.
       22    1    1    2    0    0 -0.16081251628E-03  0.28798871203E-02 -0.52947400083E-02  0.60294180686E-02  0.00000000000E+00 0. -1.
       22    1    1    2    0    0  0.12498766046E-02 -0.35059870171E-02  0.34519120951E-01  0.34719214388E-01  0.00000000000E+00 0.  1.
       22    1    1    2    0    0 -0.10890640883E-02  0.62609989677E-03 -0.29224380943E-01  0.29251367543E-01  0.00000000000E+00 0. -1.
</event>
<event>
 5   0  0.4143600E+04  0.9118800E+02  0.7546771E-02  0.1180000E+00
      -11   -1    0    0    0    0  0.00000000000E+00  0.00000000000E+00  0.34996269501E-01  0.35000000000E-01  0.51099999109E-03 0. -1.
       11   -1    0    0    0    0 -0.00000000000E+00 -0.00000000000E+00 -0.34996269501E-01  0.35000000000E-01  0.51099999109E-03 0. -1.
       22    1    1    2    0    0 -0.17655977292E-03 -0.13817114831E-03 -0.34530467661E-01  0.34531195483E-01  0.00000000000E+00 0. -1.
       22    1    1    2    0    0 -0.00000000000E+00 -0.00000000000E+00  0.34972935447E-01  0.34972777944E-01  0.00000000000E+00 0. -1.
       22    1    1    2    0    0  0.17655977292E-03  0.13817114831E-03 -0.44246778585E-03  0.49602657303E-03  0.00000000000E+00 0. -1.
</event>
<event>
 5   0  0.4143600E+04  0.9118800E+02  0.7546771E-02  0.1180000E+00
      -11   -1    0    0    0    0  0.00000000000E+00  0.00000000000E+00  0.34996269501E-01  0.35000000000E-01  0.51099999109E-03 0. -1.
       11   -1    0    0    0    0 -0.00000000000E+00 -0.00000000000E+00 -0.34996269501E-01  0.35000000000E-01  0.51099999109E-03 0. -1.
       22    1    1    2    0    0 -0.00000000000E+00  0.00000000000E+00  0.29337656849E-01  0.29334967823E-01  0.00000000000E+00 0. -1.
       22    1    1    2    0    0 -0.11224513104E-01 -0.20257357991E-02 -0.26589780970E-01  0.28932849012E-01  0.00000000000E+00 0. -1.
       22    1    1    2    0    0  0.11224513104E-01  0.20257357991E-02 -0.27478758791E-02  0.11732183164E-01  0.00000000000E+00 0.  1.
</event>
<event>
 5   0  0.4143600E+04  0.9118800E+02  0.7546771E-02  0.1180000E+00
      -11   -1    0    0    0    0  0.00000000000E+00  0.00000000000E+00  0.34996269501E-01  0.35000000000E-01  0.51099999109E-03 0. -1.
       11   -1    0    0    0    0 -0.00000000000E+00 -0.00000000000E+00 -0.34996269501E-01  0.35000000000E-01  0.51099999109E-03 0.  1.
       22    1    1    2    0    0  0.82939470697E-02  0.15870568580E-01 -0.29876540286E-01  0.34832056564E-01  0.00000000000E+00 0.  1.
       22    1    1    2    0    0  0.26012554118E-03  0.15542952064E-03  0.17066272960E-03  0.34777780311E-03  0.00000000000E+00 0.  1.
       22    1    1    2    0    0 -0.85540726109E-02 -0.16025998100E-01  0.29705877556E-01  0.34820165633E-01  0.00000000000E+00 0. -1.
</event>
<event>
 5   0  0.4143600E+04  0.9118800E+02  0.7546771E-02  0.1180000E+00
      -11   -1    0    0    0    0  0.00000000000E+00  0.00000000000E+00  0.34996269501E-01  0.35000000000E-01  0.51099999109E-03 0.  1.
       11   -1    0    0    0    0 -0.00000000000E+00 -0.00000000000E+00 -0.34996269501E-01  0.35000000000E-01  0.51099999109E-03 0. -1.
       22    1    1    2    0    0 -0.55761514282E-03  0.22366280951E-03  0.17425988288E-02  0.18432608003E-02  0.00000000000E+00 0.  1.
       22    1    1    2    0    0 -0.94516872568E-02 -0.13122156810E-01  0.29081649715E-01  0.33275632849E-01  0.00000000000E+00 0.  1.
       22    1    1    2    0    0  0.10009302400E-01  0.12898494001E-01 -0.30824248543E-01  0.34881106351E-01  0.00000000000E+00 0. -1.
</event>
<event>
 5   0  0.4143600E+04  0.9118800E+02  0.7546771E-02  0.1180000E+00
      -11   -1    0    0    0    0  0.00000000000E+00  0.00000000000E+00  0.34996269501E-01  0.35000000000E-01  0.51099999109E-03 0.  1.
       11   -1    0    0    0    0 -0.00000000000E+00 -0.00000000000E+00 -0.34996269501E-01  0.35000000000E-01  0.51099999109E-03 0. -1.
       22    1    1    2    0    0  0.10490961779E-01  0.99412529441E-02  0.31131750487E-01  0.34323092482E-01  0.00000000000E+00 0.  1.
       22    1    1    2    0    0  0.17495460147E-03 -0.13628226062E-03  0.68331113843E-03  0.71839827327E-03  0.00000000000E+00 0. -1.
       22    1    1    2    0    0 -0.10665916380E-01 -0.98049706835E-02 -0.31815061626E-01  0.34958509244E-01  0.00000000000E+00 0. -1.
</event>
<event>
 5   0  0.4143600E+04  0.9118800E+02  0.7546771E-02  0.1180000E+00
      -11   -1    0    0    0    0  0.00000000000E+00  0.00000000000E+00  0.34996269501E-01  0.35000000000E-01  0.51099999109E-03 0. -1.
       11   -1    0    0    0    0 -0.00000000000E+00 -0.00000000000E+00 -0.34996269501E-01  0.35000000000E-01  0.51099999109E-03 0.  1.
       22    1    1    2    0    0  0.29638654394E-02 -0.18612475174E-01  0.26780726154E-01  0.32747763646E-01  0.00000000000E+00 0. -1.
       22    1    1    2    0    0 -0.62278998144E-04 -0.23764739013E-04  0.24575645658E-02  0.24584684321E-02  0.00000000000E+00 0. -1.
       22    1    1    2    0    0 -0.29015864413E-02  0.18636239913E-01 -0.29238290720E-01  0.34793767922E-01  0.00000000000E+00 0.  1.
</event>
<event>
 5   0  0.4143600E+04  0.9118800E+02  0.7546771E-02  0.1180000E+00
      -11   -1    0    0    0    0  0.00000000000E+00  0.00000000000E+00  0.34996269501E-01  0.35000000000E-01  0.51099999109E-03 0. -1.
       11   -1    0    0    0    0 -0.00000000000E+00 -0.00000000000E+00 -0.34996269501E-01  0.35000000000E-01  0.51099999109E-03 0.  1.
       22    1    1    2    0    0 -0.69489692869E-03 -0.13377989298E-02 -0.12159574061E-02  0.19367860315E-02  0.00000000000E+00 0.  1.
       22    1    1    2    0    0 -0.20365204700E-01  0.67262874741E-02  0.26907199075E-01  0.34409037588E-01  0.00000000000E+00 0. -1.
       22    1    1    2    0    0  0.21060101629E-01 -0.53884885443E-02 -0.25691241668E-01  0.33654176381E-01  0.00000000000E+00 0.  1.
</event>
<event>
 5   0  0.4143600E+04  0.9118800E+02  0.7546771E-02  0.1180000E+00
      -11   -1    0    0    0    0  0.00000000000E+00  0.00000000000E+00  0.34996269501E-01  0.35000000000E-01  0.51099999109E-03 0. -1.
       11   -1    0    0    0    0 -0.00000000000E+00 -0.00000000000E+00 -0.34996269501E-01  0.35000000000E-01  0.51099999109E-03 0.  1.
       22    1    1    2    0    0 -0.19199157754E-01  0.10766257564E-02 -0.27540718481E-01  0.33589551291E-01  0.00000000000E+00 0.  1.
       22    1    1    2    0    0  0.19616538592E-01  0.53987641938E-04  0.17470656452E-01  0.26268523710E-01  0.00000000000E+00 0. -1.
       22    1    1    2    0    0 -0.41738083783E-03 -0.11306133984E-02  0.10070062029E-01  0.10141924999E-01  0.00000000000E+00 0. -1.
</event>
<event>
 5   0  0.4143600E+04  0.9118800E+02  0.7546771E-02  0.1180000E+00
      -11   -1    0    0    0    0  0.00000000000E+00  0.00000000000E+00  0.34996269501E-01  0.35000000000E-01  0.51099999109E-03 0. -1.
       11   -1    0    0    0    0 -0.00000000000E+00 -0.00000000000E+00 -0.34996269501E-01  0.35000000000E-01  0.51099999109E-03 0.  1.
       22    1    1    2    0    0  0.30778730862E-03 -0.75259973343E-03 -0.40128600262E-02  0.40944089898E-02  0.00000000000E+00 0.  1.
       22    1    1    2    0    0  0.24403837341E-02  0.22220351030E-01  0.26517548260E-01  0.34682558129E-01  0.00000000000E+00 0. -1.
       22    1    1    2    0    0 -0.27481710428E-02 -0.21467751297E-01 -0.22504688233E-01  0.31223032881E-01  0.00000000000E+00 0.  1.
</event>
<event>
 5   0  0.4143600E+04  0.9118800E+02  0.7546771E-02  0.1180000E+00
      -11   -1    0    0    0    0  0.00000000000E+00  0.00000000000E+00  0.34996269501E-01  0.35000000000E-01  0.51099999109E-03 0. -1.
       11   -1    0    0    0    0 -0.00000000000E+00 -0.00000000000E+00 -0.34996269501E-01  0.35000000000E-01  0.51099999109E-03 0.  1.
       22    1    1    2    0    0  0.20180242788E-02 -0.96741890490E-02 -0.18208763184E-01  0.20717659435E-01  0.00000000000E+00 0. -1.
       22    1    1    2    0    0 -0.28384634177E-02 -0.62692439173E-02  0.29135056455E-01  0.29936796898E-01  0.00000000000E+00 0. -1.
       22    1    1    2    0    0  0.82043913889E-03  0.15943432966E-01 -0.10926293271E-01  0.19345543667E-01  0.00000000000E+00 0.  1.
</event>
<event>
 5   0  0.4143600E+04  0.9118800E+02  0.7546771E-02  0.1180000E+00
      -11   -1    0    0    0    0  0.00000000000E+00  0.00000000000E+00  0.34996269501E-01  0.35000000000E-01  0.51099999109E-03 0.  1.
       11   -1    0    0    0    0 -0.00000000000E+00 -0.00000000000E+00 -0.34996269501E-01  0.35000000000E-01  0.51099999109E-03 0. -1.
       22    1    1    2    0    0  0.52679204062E-03 -0.30112603431E-02 -0.23968082152E-01  0.24162246600E-01  0.00000000000E+00 0. -1.
       22    1    1    2    0    0  0.16347528795E-02 -0.73600978316E-02 -0.86897149453E-02  0.11504547053E-01  0.00000000000E+00 0. -1.
       22    1    1    2    0    0 -0.21615449201E-02  0.10371358175E-01  0.32657797097E-01  0.34333206347E-01  0.00000000000E+00 0.  1.
</event>
<event>
 5   0  0.4143600E+04  0.9118800E+02  0.7546771E-02  0.1180000E+00
      -11   -1    0    0    0    0  0.00000000000E+00  0.00000000000E+00  0.34996269501E-01  0.35000000000E-01  0.51099999109E-03 0. -1.
       11   -1    0    0    0    0 -0.00000000000E+00 -0.00000000000E+00 -0.34996269501E-01  0.35000000000E-01  0.51099999109E-03 0. -1.
       22    1    1    2    0    0 -0.41644025362E-05 -0.39550199770E-03 -0.34356765944E-01  0.34359042556E-01  0.00000000000E+00 0. -1.
       22    1    1    2    0    0  0.41644025362E-05  0.39550199770E-03 -0.58149578985E-03  0.70326134975E-03  0.00000000000E+00 0. -1.
       22    1    1    2    0    0  0.00000000000E+00  0.00000000000E+00  0.34938261734E-01  0.34937696095E-01  0.00000000000E+00 0. -1.
</event>
<event>
 5   0  0.4143600E+04  0.9118800E+02  0.7546771E-02  0.1180000E+00
      -11   -1    0    0    0    0  0.00000000000E+00  0.00000000000E+00  0.34996269501E-01  0.35000000000E-01  0.51099999109E-03 0. -1.
       11   -1    0    0    0    0 -0.00000000000E+00 -0.00000000000E+00 -0.34996269501E-01  0.35000000000E-01  0.51099999109E-03 0.  1.
       22    1    1    2    0    0 -0.58574444288E-02  0.27671285721E-01 -0.10190360235E-01  0.30064150585E-01  0.00000000000E+00 0. -1.
       22    1    1    2    0    0  0.42738635226E-03  0.29881860455E-02 -0.45706873843E-02  0.54775083844E-02  0.00000000000E+00 0.  1.
       22    1    1    2    0    0  0.54300580765E-02 -0.30659471767E-01  0.14761047619E-01  0.34458341030E-01  0.00000000000E+00 0.  1.
</event>
<event>
 5   0  0.4143600E+04  0.9118800E+02  0.7546771E-02  0.1180000E+00
      -11   -1    0    0    0    0  0.00000000000E+00  0.00000000000E+00  0.34996269501E-01  0.35000000000E-01  0.51099999109E-03 0.  1.
       11   -1    0    0    0    0 -0.00000000000E+00 -0.00000000000E+00 -0.34996269501E-01  0.35000000000E-01  0.51099999109E-03 0. -1.
       22    1    1    2    0    0 -0.13781552186E-01  0.29240204128E-02 -0.29944062043E-01  0.33092717140E-01  0.00000000000E+00 0. -1.
       22    1    1    2    0    0  0.45544029645E-02 -0.15495366825E-02  0.26546510965E-01  0.26978897210E-01  0.00000000000E+00 0.  1.
       22    1    1    2    0    0  0.92271492216E-02 -0.13744837303E-02  0.33975510785E-02  0.99283856499E-02  0.00000000000E+00 0. -1.
</event>
<event>
 5   0  0.4143600E+04  0.9118800E+02  0.7546771E-02  0.1180000E+00
      -11   -1    0    0    0    0  0.00000000000E+00  0.00000000000E+00  0.34996269501E-01  0.35000000000E-01  0.51099999109E-03 0.  1.
       11   -1    0    0    0    0 -0.00000000000E+00 -0.00000000000E+00 -0.34996269501E-01  0.35000000000E-01  0.51099999109E-03 0. -1.
       22    1    1    2    0    0  0.29508325420E-02  0.41542422959E-02 -0.33372150788E-01  0.33758933484E-01  0.00000000000E+00 0. -1.
       22    1    1    2    0    0 -0.45378948253E-03  0.13144512282E-03 -0.12131514856E-02  0.13018983223E-02  0.00000000000E+00 0.  1.
       22    1    1    2    0    0 -0.24970430595E-02 -0.42856874187E-02  0.34585302274E-01  0.34939168194E-01  0.00000000000E+00 0.  1.
</event>
<event>
 5   0  0.4143600E+04  0.9118800E+02  0.7546771E-02  0.1180000E+00
      -11   -1    0    0    0    0  0.00000000000E+00  0.00000000000E+00  0.34996269501E-01  0.35000000000E-01  0.51099999109E-03 0.  1.
       11   -1    0    0    0    0 -0.00000000000E+00 -0.00000000000E+00 -0.34996269501E-01  0.35000000000E-01  0.51099999109E-03 0. -1.
       22    1    1    2    0    0  0.22828262965E-02 -0.33906307567E-02  0.28701031706E-02  0.49945134936E-02  0.00000000000E+00 0. -1.
       22    1    1    2    0    0  0.13549688634E-01  0.83471592192E-02  0.26709381246E-01  0.31091159124E-01  0.00000000000E+00 0.  1.
       22    1    1    2    0    0 -0.15832514931E-01 -0.49565284625E-02 -0.29579484417E-01  0.33914327382E-01  0.00000000000E+00 0. -1.
</event>
<event>
 5   0  0.4143600E+04  0.9118800E+02  0.7546771E-02  0.1180000E+00
      -11   -1    0    0    0    0  0.00000000000E+00  0.00000000000E+00  0.34996269501E-01  0.35000000000E-01  0.51099999109E-03 0.  1.
       11   -1    0    0    0    0 -0.00000000000E+00 -0.00000000000E+00 -0.34996269501E-01  0.35000000000E-01  0.51099999109E-03 0.  1.
       22    1    1    2    0    0  0.53483239689E-03 -0.78637069683E-03 -0.12085530764E-02  0.15378638119E-02  0.00000000000E+00 0. -1.
       22    1    1    2    0    0  0.00000000000E+00  0.00000000000E+00  0.34829152612E-01  0.34828088890E-01  0.00000000000E+00 0.  1.
       22    1    1    2    0    0 -0.53483239689E-03  0.78637069683E-03 -0.33620599535E-01  0.33634047298E-01  0.00000000000E+00 0.  1.
</event>
<event>
 5   0  0.4143600E+04  0.9118800E+02  0.7546771E-02  0.1180000E+00
      -11   -1    0    0    0    0  0.00000000000E+00  0.00000000000E+00  0.34996269501E-01  0.35000000000E-01  0.51099999109E-03 0. -1.
       11   -1    0    0    0    0 -0.00000000000E+00 -0.00000000000E+00 -0.34996269501E-01  0.35000000000E-01  0.51099999109E-03 0.  1.
       22    1    1    2    0    0  0.59747158960E-02  0.35481544816E-02  0.33035337959E-01  0.33758260979E-01  0.00000000000E+00 0. -1.
       22    1    1    2    0    0 -0.43197734743E-02  0.31052591717E-02 -0.25521041858E-01  0.26069650073E-01  0.00000000000E+00 0.  1.
       22    1    1    2    0    0 -0.16549424217E-02 -0.66534136534E-02 -0.75142961011E-02  0.10172088948E-01  0.00000000000E+00 0. -1.
</event>
<event>
 5   0  0.4143600E+04  0.9118800E+02  0.7546771E-02  0.1180000E+00
      -11   -1    0    0    0    0  0.00000000000E+00  0.00000000000E+00  0.34996269501E-01  0.35000000000E-01  0.51099999109E-03 0. -1.
       11   -1    0    0    0    0 -0.00000000000E+00 -0.00000000000E+00 -0.34996269501E-01  0.35000000000E-01  0.51099999109E-03 0.  1.
       22    1    1    2    0    0  0.79622335012E-02 -0.72201207115E-02 -0.30391926290E-01  0.32236570677E-01  0.00000000000E+00 0.  1.
       22    1    1    2    0    0 -0.72375013491E-02  0.68892804425E-02  0.33290301170E-01  0.34757556916E-01  0.00000000000E+00 0. -1.
       22    1    1    2    0    0 -0.72473215205E-03  0.33084026898E-03 -0.28983748807E-02  0.30058724066E-02  0.00000000000E+00 0.  1.
</event>
<event>
 5   0  0.4143600E+04  0.9118800E+02  0.7546771E-02  0.1180000E+00
      -11   -1    0    0    0    0  0.00000000000E+00  0.00000000000E+00  0.34996269501E-01  0.35000000000E-01  0.51099999109E-03 0. -1.
       11   -1    0    0    0    0 -0.00000000000E+00 -0.00000000000E+00 -0.34996269501E-01  0.35000000000E-01  0.51099999109E-03 0.  1.
       22    1    1    2    0    0 -0.10328882207E-03 -0.39419916658E-03  0.15104266807E-02  0.15644329073E-02  0.00000000000E+00 0.  1.
       22    1    1    2    0    0 -0.18478798994E-01 -0.15258912945E-01  0.23501842900E-01  0.33565414584E-01  0.00000000000E+00 0. -1.
       22    1    1    2    0    0  0.18582087816E-01  0.15653112112E-01 -0.25012269581E-01  0.34870152508E-01  0.00000000000E+00 0.  1.
</event>
<event>
 5   0  0.4143600E+04  0.9118800E+02  0.7546771E-02  0.1180000E+00
      -11   -1    0    0    0    0  0.00000000000E+00  0.00000000000E+00  0.34996269501E-01  0.35000000000E-01  0.51099999109E-03 0.  1.
       11   -1    0    0    0    0 -0.00000000000E+00 -0.00000000000E+00 -0.34996269501E-01  0.35000000000E-01  0.51099999109E-03 0. -1.
       22    1    1    2    0    0 -0.14124494521E-01 -0.44433049926E-02  0.31467952497E-01  0.34777526351E-01  0.00000000000E+00 0.  1.
       22    1    1    2    0    0  0.14535594102E-01  0.40656005407E-02 -0.29006038767E-01  0.32698056343E-01  0.00000000000E+00 0. -1.
       22    1    1    2    0    0 -0.41109958146E-03  0.37770445194E-03 -0.24619137299E-02  0.25244173055E-02  0.00000000000E+00 0.  1.
</event>
<event>
 5   0  0.4143600E+04  0.9118800E+02  0.7546771E-02  0.1180000E+00
      -11   -1    0    0    0    0  0.00000000000E+00  0.00000000000E+00  0.34996269501E-01  0.35000000000E-01  0.51099999109E-03 0.  1.
       11   -1    0    0    0    0 -0.00000000000E+00 -0.00000000000E+00 -0.34996269501E-01  0.35000000000E-01  0.51099999109E-03 0.  1.
       22    1    1    2    0    0  0.99142677253E-03 -0.18291197564E-02 -0.29926472647E-01  0.29998706159E-01  0.00000000000E+00 0.  1.
       22    1    1    2    0    0 -0.12322084003E-02  0.19840396649E-02 -0.47660760789E-02  0.53075636712E-02  0.00000000000E+00 0. -1.
       22    1    1    2    0    0  0.24078162778E-03 -0.15491990850E-03  0.34692548726E-01  0.34693730170E-01  0.00000000000E+00 0.  1.
</event>
<event>
 5   0  0.4143600E+04  0.9118800E+02  0.7546771E-02  0.1180000E+00
      -11   -1    0    0    0    0  0.00000000000E+00  0.00000000000E+00  0.34996269501E-01  0.35000000000E-01  0.51099999109E-03 0.  1.
       11   -1    0    0    0    0 -0.00000000000E+00 -0.00000000000E+00 -0.34996269501E-01  0.35000000000E-01  0.51099999109E-03 0. -1.
       22    1    1    2    0    0  0.18975193823E-01 -0.47498610975E-02  0.28092390026E-01  0.34231586853E-01  0.00000000000E+00 0.  1.
       22    1    1    2    0    0 -0.19620948074E-01  0.43010295028E-02 -0.22667817616E-01  0.30287132806E-01  0.00000000000E+00 0. -1.
       22    1    1    2    0    0  0.64575425047E-03  0.44883159470E-03 -0.54245724098E-02  0.54812803414E-02  0.00000000000E+00 0.  1.
</event>
<event>
 5   0  0.4143600E+04  0.9118800E+02  0.7546771E-02  0.1180000E+00
      -11   -1    0    0    0    0  0.00000000000E+00  0.00000000000E+00  0.34996269501E-01  0.35000000000E-01  0.51099999109E-03 0. -1.
       11   -1    0    0    0    0 -0.00000000000E+00 -0.00000000000E+00 -0.34996269501E-01  0.35000000000E-01  0.51099999109E-03 0.  1.
       22    1    1    2    0    0 -0.15892817187E-01  0.19077545456E-02  0.24225180809E-02  0.16189186496E-01  0.00000000000E+00 0. -1.
       22    1    1    2    0    0  0.22082763559E-02 -0.31302504546E-02  0.23853779091E-01  0.24159423198E-01  0.00000000000E+00 0. -1.
       22    1    1    2    0    0  0.13684540831E-01  0.12224959090E-02 -0.26276297172E-01  0.29651390306E-01  0.00000000000E+00 0.  1.
</event>
<event>
 5   0  0.4143600E+04  0.9118800E+02  0.7546771E-02  0.1180000E+00
      -11   -1    0    0    0    0  0.00000000000E+00  0.00000000000E+00  0.34996269501E-01  0.35000000000E-01  0.51099999109E-03 0.  1.
       11   -1    0    0    0    0 -0.00000000000E+00 -0.00000000000E+00 -0.34996269501E-01  0.35000000000E-01  0.51099999109E-03 0. -1.
       22    1    1    2    0    0 -0.27348147752E-02  0.11551192054E-01 -0.32899590451E-01  0.34975595800E-01  0.00000000000E+00 0. -1.
       22    1    1    2    0    0  0.27833998505E-02 -0.11594112161E-01  0.32472028582E-01  0.34591955593E-01  0.00000000000E+00 0.  1.
       22    1    1    2    0    0 -0.48585075344E-04  0.42920106797E-04  0.42756186976E-03  0.43244860688E-03  0.00000000000E+00 0. -1.
</event>
<event>
 5   0  0.4143600E+04  0.9118800E+02  0.7546771E-02  0.1180000E+00
      -11   -1    0    0    0    0  0.00000000000E+00  0.00000000000E+00  0.34996269501E-01  0.35000000000E-01  0.51099999109E-03 0.  1.
       11   -1    0    0    0    0 -0.00000000000E+00 -0.00000000000E+00 -0.34996269501E-01  0.35000000000E-01  0.51099999109E-03 0. -1.
       22    1    1    2    0    0 -0.35669945424E-02 -0.80567770881E-02  0.66433311778E-02  0.11034897202E-01  0.00000000000E+00 0. -1.
       22    1    1    2    0    0 -0.47874071298E-02 -0.84547557713E-02  0.22463116894E-01  0.24474349486E-01  0.00000000000E+00 0.  1.
       22    1    1    2    0    0  0.83544016722E-02  0.16511532859E-01 -0.29106448072E-01  0.34490753312E-01  0.00000000000E+00 0. -1.
</event>
<event>
 5   0  0.4143600E+04  0.9118800E+02  0.7546771E-02  0.1180000E+00
      -11   -1    0    0    0    0  0.00000000000E+00  0.00000000000E+00  0.34996269501E-01  0.35000000000E-01  0.51099999109E-03 0. -1.
       11   -1    0    0    0    0 -0.00000000000E+00 -0.00000000000E+00 -0.34996269501E-01  0.35000000000E-01  0.51099999109E-03 0.  1.
       22    1    1    2    0    0  0.12945621540E-01 -0.47343518674E-02  0.29438250601E-01  0.32505596489E-01  0.00000000000E+00 0. -1.
       22    1    1    2    0    0  0.87591641784E-04 -0.79575281802E-04  0.25846286243E-02  0.25873363999E-02  0.00000000000E+00 0. -1.
       22    1    1    2    0    0 -0.13033213182E-01  0.48139271492E-02 -0.32022879225E-01  0.34907067111E-01  0.00000000000E+00 0.  1.
</event>
<event>
 5   0  0.4143600E+04  0.9118800E+02  0.7546771E-02  0.1180000E+00
      -11   -1    0    0    0    0  0.00000000000E+00  0.00000000000E+00  0.34996269501E-01  0.35000000000E-01  0.51099999109E-03 0.  1.
       11   -1    0    0    0    0 -0.00000000000E+00 -0.00000000000E+00 -0.34996269501E-01  0.35000000000E-01  0.51099999109E-03 0. -1.
       22    1    1    2    0    0 -0.43351665199E-02  0.23269871711E-02 -0.33555653637E-01  0.33914457522E-01  0.00000000000E+00 0. -1.
       22    1    1    2    0    0  0.46653388203E-02 -0.28423988250E-02  0.34516578346E-01  0.34946227237E-01  0.00000000000E+00 0.  1.
       22    1    1    2    0    0 -0.33017230038E-03  0.51541165387E-03 -0.96092470928E-03  0.11393152407E-02  0.00000000000E+00 0.  1.
</event>
<event>
 5   0  0.4143600E+04  0.9118800E+02  0.7546771E-02  0.1180000E+00
      -11   -1    0    0    0    0  0.00000000000E+00  0.00000000000E+00  0.34996269501E-01  0.35000000000E-01  0.51099999109E-03 0.  1.
       11   -1    0    0    0    0 -0.00000000000E+00 -0.00000000000E+00 -0.34996269501E-01  0.35000000000E-01  0.51099999109E-03 0. -1.
       22    1    1    2    0    0  0.32012093214E-02 -0.10496698095E-02  0.34469031214E-01  0.34633273895E-01  0.00000000000E+00 0.  1.
       22    1    1    2    0    0 -0.11336812329E-02 -0.14118264551E-02 -0.28743698183E-01  0.28800671387E-01  0.00000000000E+00 0. -1.
       22    1    1    2    0    0 -0.20675280885E-02  0.24614962646E-02 -0.57253330306E-02  0.65660547187E-02  0.00000000000E+00 0. -1.
</event>
<event>
 5   0  0.4143600E+04  0.9118800E+02  0.7546771E-02  0.1180000E+00
      -11   -1    0    0    0    0  0.00000000000E+00  0.00000000000E+00  0.34996269501E-01  0.35000000000E-01  0.51099999109E-03 0.  1.
       11   -1    0    0    0    0 -0.00000000000E+00 -0.00000000000E+00 -0.34996269501E-01  0.35000000000E-01  0.51099999109E-03 0. -1.
       22    1    1    2    0    0 -0.13043981374E-01  0.32593952442E-02 -0.27350376721E-01  0.30476420627E-01  0.00000000000E+00 0. -1.
       22    1    1    2    0    0  0.98381004114E-02 -0.16779543189E-02  0.32079103075E-01  0.33595723009E-01  0.00000000000E+00 0.  1.
       22    1    1    2    0    0  0.32058809623E-02 -0.15814409253E-02 -0.47287263539E-02  0.59278563642E-02  0.00000000000E+00 0. -1.
</event>
<event>
 5   0  0.4143600E+04  0.9118800E+02  0.7546771E-02  0.1180000E+00
      -11   -1    0    0    0    0  0.00000000000E+00  0.00000000000E+00  0.34996269501E-01  0.35000000000E-01  0.51099999109E-03 0. -1.
       11   -1    0    0    0    0 -0.00000000000E+00 -0.00000000000E+00 -0.34996269501E-01  0.35000000000E-01  0.51099999109E-03 0.  1.
       22    1    1    2    0    0 -0.33855236552E-02  0.14377236258E-02  0.82259259788E-02  0.90108089455E-02  0.00000000000E+00 0. -1.
       22    1    1    2    0    0  0.10012910949E-01  0.19884385781E-01  0.16472089361E-01  0.27694348006E-01  0.00000000000E+00 0. -1.
       22    1    1    2    0    0 -0.66273872940E-02 -0.21322109406E-01 -0.24698015340E-01  0.33294843049E-01  0.00000000000E+00 0.  1.
</event>
<event>
 5   0  0.4143600E+04  0.9118800E+02  0.7546771E-02  0.1180000E+00
      -11   -1    0    0    0    0  0.00000000000E+00  0.00000000000E+00  0.34996269501E-01  0.35000000000E-01  0.51099999109E-03 0.  1.
       11   -1    0    0    0    0 -0.00000000000E+00 -0.00000000000E+00 -0.34996269501E-01  0.35000000000E-01  0.51099999109E-03 0. -1.
       22    1    1    2    0    0  0.48286641845E-04  0.91919774233E-04  0.36447540308E-03  0.37897646910E-03  0.00000000000E+00 0.  1.
       22    1    1    2    0    0  0.16108632820E-01  0.83252823066E-02  0.29506535042E-01  0.34632845494E-01  0.00000000000E+00 0.  1.
       22    1    1    2    0    0 -0.16156919462E-01 -0.84172020808E-02 -0.29871010445E-01  0.34988178037E-01  0.00000000000E+00 0. -1.
</event>
<event>
 5   0  0.4143600E+04  0.9118800E+02  0.7546771E-02  0.1180000E+00
      -11   -1    0    0    0    0  0.00000000000E+00  0.00000000000E+00  0.34996269501E-01  0.35000000000E-01  0.51099999109E-03 0.  1.
       11   -1    0    0    0    0 -0.00000000000E+00 -0.00000000000E+00 -0.34996269501E-01  0.35000000000E-01  0.51099999109E-03 0. -1.
       22    1    1    2    0    0 -0.13403643337E-01 -0.42841990084E-04  0.29337928139E-01  0.32254821618E-01  0.00000000000E+00 0.  1.
       22    1    1    2    0    0  0.14596171420E-01  0.73169309060E-02 -0.19059157850E-01  0.25096557452E-01  0.00000000000E+00 0. -1.
       22    1    1    2    0    0 -0.11925280829E-02 -0.72740889159E-02 -0.10278770289E-01  0.12648620930E-01  0.00000000000E+00 0.  1.
</event>
<event>
 5   0  0.4143600E+04  0.9118800E+02  0.7546771E-02  0.1180000E+00
      -11   -1    0    0    0    0  0.00000000000E+00  0.00000000000E+00  0.34996269501E-01  0.35000000000E-01  0.51099999109E-03 0. -1.
       11   -1    0    0    0    0 -0.00000000000E+00 -0.00000000000E+00 -0.34996269501E-01  0.35000000000E-01  0.51099999109E-03 0.  1.
       22    1    1    2    0    0 -0.12614154486E-01 -0.88476753776E-02 -0.28724399090E-01  0.32595848755E-01  0.00000000000E+00 0.  1.
       22    1    1    2    0    0  0.83927008285E-02 -0.28474029295E-02  0.39876177891E-02  0.97183448319E-02  0.00000000000E+00 0.  1.
       22    1    1    2    0    0  0.42214536572E-02  0.11695078307E-01  0.24736781301E-01  0.27685806413E-01  0.00000000000E+00 0. -1.
</event>
<event>
 5   0  0.4143600E+04  0.9118800E+02  0.7546771E-02  0.1180000E+00
      -11   -1    0    0    0    0  0.00000000000E+00  0.00000000000E+00  0.34996269501E-01  0.35000000000E-01  0.51099999109E-03 0.  1.
       11   -1    0    0    0    0 -0.00000000000E+00 -0.00000000000E+00 -0.34996269501E-01  0.35000000000E-01  0.51099999109E-03 0. -1.
       22    1    1    2    0    0 -0.65150664091E-02  0.11524174012E-01  0.28347949821E-01  0.31286721401E-01  0.00000000000E+00 0.  1.
       22    1    1    2    0    0  0.59909640792E-02 -0.10334731262E-01 -0.32360778436E-01  0.34495192445E-01  0.00000000000E+00 0. -1.
       22    1    1    2    0    0  0.52410232988E-03 -0.11894427504E-02  0.40128286151E-02  0.42180861540E-02  0.00000000000E+00 0.  1.
</event>
<event>
 5   0  0.4143600E+04  0.9118800E+02  0.7546771E-02  0.1180000E+00
      -11   -1    0    0    0    0  0.00000000000E+00  0.00000000000E+00  0.34996269501E-01  0.35000000000E-01  0.51099999109E-03 0. -1.
       11   -1    0    0    0    0 -0.00000000000E+00 -0.00000000000E+00 -0.34996269501E-01  0.35000000000E-01  0.51099999109E-03 0.  1.
       22    1    1    2    0    0 -0.24596191983E-01 -0.22820410287E-02  0.24428459514E-01  0.34740898168E-01  0.00000000000E+00 0. -1.
       22    1    1    2    0    0  0.24627730111E-01  0.21372028775E-02 -0.24702719155E-01  0.34947346969E-01  0.00000000000E+00 0.  1.
       22    1    1    2    0    0 -0.31538127704E-04  0.14483815124E-03  0.27425964094E-03  0.31175486236E-03  0.00000000000E+00 0.  1.
</event>
<event>
 5   0  0.4143600E+04  0.9118800E+02  0.7546771E-02  0.1180000E+00
      -11   -1    0    0    0    0  0.00000000000E+00  0.00000000000E+00  0.34996269501E-01  0.35000000000E-01  0.51099999109E-03 0.  1.
       11   -1    0    0    0    0 -0.00000000000E+00 -0.00000000000E+00 -0.34996269501E-01  0.35000000000E-01  0.51099999109E-03 0. -1.
       22    1    1    2    0    0  0.35352781692E-03 -0.66258999776E-03 -0.14446768015E-02  0.16282194211E-02  0.00000000000E+00 0. -1.
       22    1    1    2    0    0  0.98874683606E-03 -0.29450273703E-04  0.34884176029E-01  0.34898198017E-01  0.00000000000E+00 0.  1.
       22    1    1    2    0    0 -0.13422746530E-02  0.69204027146E-03 -0.33439499227E-01  0.33473582562E-01  0.00000000000E+00 0. -1.
</event>
<event>
 5   0  0.4143600E+04  0.9118800E+02  0.7546771E-02  0.1180000E+00
      -11   -1    0    0    0    0  0.00000000000E+00  0.00000000000E+00  0.34996269501E-01  0.35000000000E-01  0.51099999109E-03 0.  1.
       11   -1    0    0    0    0 -0.00000000000E+00 -0.00000000000E+00 -0.34996269501E-01  0.35000000000E-01  0.51099999109E-03 0. -1.
       22    1    1    2    0    0 -0.57111642869E-02 -0.91602450525E-02 -0.21215133118E-01  0.23803557720E-01  0.00000000000E+00 0. -1.
       22    1    1    2    0    0  0.52653950883E-02  0.86085767291E-02 -0.10447871575E-01  0.14525494800E-01  0.00000000000E+00 0.  1.
       22    1    1    2    0    0  0.44576919866E-03  0.55166832342E-03  0.31663004693E-01  0.31670947480E-01  0.00000000000E+00 0.  1.
</event>
<event>
 5   0  0.4143600E+04  0.9118800E+02  0.7546771E-02  0.1180000E+00
      -11   -1    0    0    0    0  0.00000000000E+00  0.00000000000E+00  0.34996269501E-01  0.35000000000E-01  0.51099999109E-03 0.  1.
       11   -1    0    0    0    0 -0.00000000000E+00 -0.00000000000E+00 -0.34996269501E-01  0.35000000000E-01  0.51099999109E-03 0. -1.
       22    1    1    2    0    0 -0.11459867737E-02  0.13975274167E-02 -0.75185379608E-03  0.19574607778E-02  0.00000000000E+00 0. -1.
       22    1    1    2    0    0  0.10717224821E-01 -0.52604697194E-02 -0.31761006387E-01  0.33930708455E-01  0.00000000000E+00 0. -1.
       22    1    1    2    0    0 -0.95712380470E-02  0.38629423027E-02  0.32512860183E-01  0.34111830767E-01  0.00000000000E+00 0.  1.
</event>
<event>
 5   0  0.4143600E+04  0.9118800E+02  0.7546771E-02  0.1180000E+00
      -11   -1    0    0    0    0  0.00000000000E+00  0.00000000000E+00  0.34996269501E-01  0.35000000000E-01  0.51099999109E-03 0.  1.
       11   -1    0    0    0    0 -0.00000000000E+00 -0.00000000000E+00 -0.34996269501E-01  0.35000000000E-01  0.51099999109E-03 0. -1.
       22    1    1    2    0    0  0.26738597790E-03  0.11277025663E-03 -0.84160769507E-03  0.89023362347E-03  0.00000000000E+00 0. -1.
       22    1    1    2    0    0 -0.58677862943E-02  0.45627393716E-02 -0.33339866846E-01  0.34158399082E-01  0.00000000000E+00 0. -1.
       22    1    1    2    0    0  0.56004003164E-02 -0.46755096282E-02  0.34181474541E-01  0.34951367295E-01  0.00000000000E+00 0.  1.
</event>
<event>
 5   0  0.4143600E+04  0.9118800E+02  0.7546771E-02  0.1180000E+00
      -11   -1    0    0    0    0  0.00000000000E+00  0.00000000000E+00  0.34996269501E-01  0.35000000000E-01  0.51099999109E-03 0. -1.
       11   -1    0    0    0    0 -0.00000000000E+00 -0.00000000000E+00 -0.34996269501E-01  0.35000000000E-01  0.51099999109E-03 0.  1.
       22    1    1    2    0    0 -0.10927697399E-02 -0.40899037086E-02 -0.24599405225E-01  0.24961013511E-01  0.00000000000E+00 0. -1.
       22    1    1    2    0    0  0.78002489143E-03 -0.19447028794E-03  0.34362867080E-01  0.34372269222E-01  0.00000000000E+00 0. -1.
       22    1    1    2    0    0  0.31274484850E-03  0.42843739966E-02 -0.97634618544E-02  0.10666717268E-01  0.00000000000E+00 0.  1.
</event>
<event>
 5   0  0.4143600E+04  0.9118800E+02  0.7546771E-02  0.1180000E+00
      -11   -1    0    0    0    0  0.00000000000E+00  0.00000000000E+00  0.34996269501E-01  0.35000000000E-01  0.51099999109E-03 0.  1.
       11   -1    0    0    0    0 -0.00000000000E+00 -0.00000000000E+00 -0.34996269501E-01  0.35000000000E-01  0.51099999109E-03 0. -1.
       22    1    1    2    0    0 -0.15987218866E-01 -0.46211562153E-02  0.30290176246E-01  0.34560686175E-01  0.00000000000E+00 0.  1.
       22    1    1    2    0    0  0.15649526670E-01  0.44435701015E-02 -0.23180475643E-01  0.28319382961E-01  0.00000000000E+00 0. -1.
       22    1    1    2    0    0  0.33769219584E-03  0.17758611378E-03 -0.71097006035E-02  0.71199308647E-02  0.00000000000E+00 0.  1.
</event>
<event>
 5   0  0.4143600E+04  0.9118800E+02  0.7546771E-02  0.1180000E+00
      -11   -1    0    0    0    0  0.00000000000E+00  0.00000000000E+00  0.34996269501E-01  0.35000000000E-01  0.51099999109E-03 0.  1.
       11   -1    0    0    0    0 -0.00000000000E+00 -0.00000000000E+00 -0.34996269501E-01  0.35000000000E-01  0.51099999109E-03 0. -1.
       22    1    1    2    0    0 -0.12448561228E-01 -0.13413267178E-01  0.19929803042E-01  0.27056966983E-01  0.00000000000E+00 0.  1.
       22    1    1    2    0    0  0.11412950411E-01  0.11863854431E-01 -0.29181918996E-01  0.33505087305E-01  0.00000000000E+00 0. -1.
       22    1    1    2    0    0  0.10356108169E-02  0.15494127473E-02  0.92521159541E-02  0.94379457115E-02  0.00000000000E+00 0.  1.
</event>
<event>
 5   0  0.4143600E+04  0.9118800E+02  0.7546771E-02  0.1180000E+00
      -11   -1    0    0    0    0  0.00000000000E+00  0.00000000000E+00  0.34996269501E-01  0.35000000000E-01  0.51099999109E-03 0. -1.
       11   -1    0    0    0    0 -0.00000000000E+00 -0.00000000000E+00 -0.34996269501E-01  0.35000000000E-01  0.51099999109E-03 0.  1.
       22    1    1    2    0    0  0.14709120560E-03 -0.22979977165E-02  0.34686053812E-01  0.34762404381E-01  0.00000000000E+00 0. -1.
       22    1    1    2    0    0  0.12227921663E-02  0.81920459093E-03 -0.19680191289E-02  0.24575223570E-02  0.00000000000E+00 0. -1.
       22    1    1    2    0    0 -0.13698833719E-02  0.14787931256E-02 -0.32718034683E-01  0.32780073262E-01  0.00000000000E+00 0.  1.
</event>
<event>
 5   0  0.4143600E+04  0.9118800E+02  0.7546771E-02  0.1180000E+00
      -11   -1    0    0    0    0  0.00000000000E+00  0.00000000000E+00  0.34996269501E-01  0.35000000000E-01  0.51099999109E-03 0. -1.
       11   -1    0    0    0    0 -0.00000000000E+00 -0.00000000000E+00 -0.34996269501E-01  0.35000000000E-01  0.51099999109E-03 0. -1.
       22    1    1    2    0    0 -0.73415178623E-03 -0.49276060236E-02 -0.12045630467E-01  0.13035240440E-01  0.00000000000E+00 0.  1.
       22    1    1    2    0    0  0.00000000000E+00 -0.00000000000E+00  0.34230746234E-01  0.34227133440E-01  0.00000000000E+00 0. -1.
       22    1    1    2    0    0  0.73415178623E-03  0.49276060236E-02 -0.22185115767E-01  0.22737626120E-01  0.00000000000E+00 0. -1.
</event>
<event>
 5   0  0.4143600E+04  0.9118800E+02  0.7546771E-02  0.1180000E+00
      -11   -1    0    0    0    0  0.00000000000E+00  0.00000000000E+00  0.34996269501E-01  0.35000000000E-01  0.51099999109E-03 0. -1.
       11   -1    0    0    0    0 -0.00000000000E+00 -0.00000000000E+00 -0.34996269501E-01  0.35000000000E-01  0.51099999109E-03 0.  1.
       22    1    1    2    0    0  0.10318823279E-03  0.16462497355E-03  0.34698720188E-03  0.39767991095E-03  0.00000000000E+00 0.  1.
       22    1    1    2    0    0 -0.66092972143E-02 -0.12010030474E-01 -0.32202329439E-01  0.34998766592E-01  0.00000000000E+00 0.  1.
       22    1    1    2    0    0  0.65061089815E-02  0.11845405501E-01  0.31855342237E-01  0.34603553497E-01  0.00000000000E+00 0. -1.
</event>
<event>
 5   0  0.4143600E+04  0.9118800E+02  0.7546771E-02  0.1180000E+00
      -11   -1    0    0    0    0  0.00000000000E+00  0.00000000000E+00  0.34996269501E-01  0.35000000000E-01  0.51099999109E-03 0.  1.
       11   -1    0    0    0    0 -0.00000000000E+00 -0.00000000000E+00 -0.34996269501E-01  0.35000000000E-01  0.51099999109E-03 0. -1.
       22    1    1    2    0    0 -0.58599499770E-04  0.15830337170E-03 -0.44823321795E-03  0.47896437920E-03  0.00000000000E+00 0. -1.
       22    1    1    2    0    0 -0.14097199815E-01 -0.23727318695E-02 -0.31453355440E-01  0.34549594319E-01  0.00000000000E+00 0. -1.
       22    1    1    2    0    0  0.14155799315E-01  0.22144284978E-02  0.31901588658E-01  0.34971441302E-01  0.00000000000E+00 0.  1.
</event>
<event>
 5   0  0.4143600E+04  0.9118800E+02  0.7546771E-02  0.1180000E+00
      -11   -1    0    0    0    0  0.00000000000E+00  0.00000000000E+00  0.34996269501E-01  0.35000000000E-01  0.51099999109E-03 0. -1.
       11   -1    0    0    0    0 -0.00000000000E+00 -0.00000000000E+00 -0.34996269501E-01  0.35000000000E-01  0.51099999109E-03 0.  1.
       22    1    1    2    0    0  0.12245841946E-01  0.27024487718E-03 -0.32745370697E-01  0.34961306888E-01  0.00000000000E+00 0.  1.
       22    1    1    2    0    0 -0.12232286079E-01 -0.66572421708E-04  0.31801216747E-01  0.34072725767E-01  0.00000000000E+00 0. -1.
       22    1    1    2    0    0 -0.13555867260E-04 -0.20367245547E-03  0.94415394999E-03  0.96596734517E-03  0.00000000000E+00 0. -1.
</event>
<event>
 5   0  0.4143600E+04  0.9118800E+02  0.7546771E-02  0.1180000E+00
      -11   -1    0    0    0    0  0.00000000000E+00  0.00000000000E+00  0.34996269501E-01  0.35000000000E-01  0.51099999109E-03 0.  1.
       11   -1    0    0    0    0 -0.00000000000E+00 -0.00000000000E+00 -0.34996269501E-01  0.35000000000E-01  0.51099999109E-03 0.  1.
       22    1    1    2    0    0 -0.39208324672E-02 -0.52022683018E-02  0.34326824769E-01  0.34939482273E-01  0.00000000000E+00 0.  1.
       22    1    1    2    0    0  0.33031090102E-03  0.60368037201E-03 -0.92449035289E-03  0.11524832734E-02  0.00000000000E+00 0. -1.
       22    1    1    2    0    0  0.35905215662E-02  0.45985879298E-02 -0.33402334417E-01  0.33908034454E-01  0.00000000000E+00 0.  1.
</event>
<event>
 5   0  0.4143600E+04  0.9118800E+02  0.7546771E-02  0.1180000E+00
      -11   -1    0    0    0    0  0.00000000000E+00  0.00000000000E+00  0.34996269501E-01  0.35000000000E-01  0.51099999109E-03 0. -1.
       11   -1    0    0    0    0 -0.00000000000E+00 -0.00000000000E+00 -0.34996269501E-01  0.35000000000E-01  0.51099999109E-03 0.  1.
       22    1    1    2    0    0  0.43174628792E-03  0.66916953847E-03  0.28206482363E-01  0.28217722092E-01  0.00000000000E+00 0. -1.
       22    1    1    2    0    0 -0.42395479579E-02  0.10297478854E-01 -0.28041934339E-01  0.30172204412E-01  0.00000000000E+00 0.  1.
       22    1    1    2    0    0  0.38078016700E-02 -0.10966648393E-01 -0.16454802436E-03  0.11610073496E-01  0.00000000000E+00 0. -1.
</event>
<event>
 5   0  0.4143600E+04  0.9118800E+02  0.7546771E-02  0.1180000E+00
      -11   -1    0    0    0    0  0.00000000000E+00  0.00000000000E+00  0.34996269501E-01  0.35000000000E-01  0.51099999109E-03 0. -1.
       11   -1    0    0    0    0 -0.00000000000E+00 -0.00000000000E+00 -0.34996269501E-01  0.35000000000E-01  0.51099999109E-03 0.  1.
       22    1    1    2    0    0 -0.30640247946E-03 -0.32491305536E-04  0.15690622250E-04  0.30851962657E-03  0.00000000000E+00 0. -1.
       22    1    1    2    0    0 -0.21632815176E-01  0.10052571971E-01  0.25267692766E-01  0.34748945213E-01  0.00000000000E+00 0. -1.
       22    1    1    2    0    0  0.21939217655E-01 -0.10020080666E-01 -0.25283383389E-01  0.34942535161E-01  0.00000000000E+00 0.  1.
</event>
<event>
 5   0  0.4143600E+04  0.9118800E+02  0.7546771E-02  0.1180000E+00
      -11   -1    0    0    0    0  0.00000000000E+00  0.00000000000E+00  0.34996269501E-01  0.35000000000E-01  0.51099999109E-03 0. -1.
       11   -1    0    0    0    0 -0.00000000000E+00 -0.00000000000E+00 -0.34996269501E-01  0.35000000000E-01  0.51099999109E-03 0.  1.
       22    1    1    2    0    0  0.71663475215E-03 -0.11394386727E-02  0.34943689470E-01  0.34969605655E-01  0.00000000000E+00 0. -1.
       22    1    1    2    0    0 -0.44526335381E-03  0.11954730021E-02 -0.34366166702E-01  0.34389836128E-01  0.00000000000E+00 0.  1.
       22    1    1    2    0    0 -0.27137139834E-03 -0.56034329398E-04 -0.57752276839E-03  0.64055821743E-03  0.00000000000E+00 0.  1.
</event>
<event>
 5   0  0.4143600E+04  0.9118800E+02  0.7546771E-02  0.1180000E+00
      -11   -1    0    0    0    0  0.00000000000E+00  0.00000000000E+00  0.34996269501E-01  0.35000000000E-01  0.51099999109E-03 0. -1.
       11   -1    0    0    0    0 -0.00000000000E+00 -0.00000000000E+00 -0.34996269501E-01  0.35000000000E-01  0.51099999109E-03 0.  1.
       22    1    1    2    0    0 -0.73950391957E-05 -0.88144136074E-05  0.51763242235E-03  0.51776027769E-03  0.00000000000E+00 0.  1.
       22    1    1    2    0    0  0.37123358110E-02 -0.19318918434E-01 -0.28890583591E-01  0.34952365683E-01  0.00000000000E+00 0.  1.
       22    1    1    2    0    0 -0.37049407718E-02  0.19327732848E-01  0.28372951168E-01  0.34529874039E-01  0.00000000000E+00 0. -1.
</event>
<event>
 5   0  0.4143600E+04  0.9118800E+02  0.7546771E-02  0.1180000E+00
      -11   -1    0    0    0    0  0.00000000000E+00  0.00000000000E+00  0.34996269501E-01  0.35000000000E-01  0.51099999109E-03 0. -1.
       11   -1    0    0    0    0 -0.00000000000E+00 -0.00000000000E+00 -0.34996269501E-01  0.35000000000E-01  0.51099999109E-03 0.  1.
       22    1    1    2    0    0 -0.83799122027E-02 -0.17467840772E-01 -0.25420907524E-01  0.31962023232E-01  0.00000000000E+00 0.  1.
       22    1    1    2    0    0  0.76325871033E-02  0.17093893366E-01  0.28914574532E-01  0.34445757310E-01  0.00000000000E+00 0. -1.
       22    1    1    2    0    0  0.74732509942E-03  0.37394740534E-03 -0.34936670087E-02  0.35922194579E-02  0.00000000000E+00 0.  1.
</event>
<event>
 5   0  0.4143600E+04  0.9118800E+02  0.7546771E-02  0.1180000E+00
      -11   -1    0    0    0    0  0.00000000000E+00  0.00000000000E+00  0.34996269501E-01  0.35000000000E-01  0.51099999109E-03 0.  1.
       11   -1    0    0    0    0 -0.00000000000E+00 -0.00000000000E+00 -0.34996269501E-01  0.35000000000E-01  0.51099999109E-03 0. -1.
       22    1    1    2    0    0 -0.54811005039E-03  0.11860997374E-02 -0.11344398298E-01  0.11419397093E-01  0.00000000000E+00 0.  1.
       22    1    1    2    0    0 -0.10759285808E-01 -0.89805324934E-02 -0.19964244708E-01  0.24392278731E-01  0.00000000000E+00 0. -1.
       22    1    1    2    0    0  0.11307395858E-01  0.77944327560E-02  0.31308643006E-01  0.34188324176E-01  0.00000000000E+00 0.  1.
</event>
<event>
 5   0  0.4143600E+04  0.9118800E+02  0.7546771E-02  0.1180000E+00
      -11   -1    0    0    0    0  0.00000000000E+00  0.00000000000E+00  0.34996269501E-01  0.35000000000E-01  0.51099999109E-03 0. -1.
       11   -1    0    0    0    0 -0.00000000000E+00 -0.00000000000E+00 -0.34996269501E-01  0.35000000000E-01  0.51099999109E-03 0.  1.
       22    1    1    2    0    0 -0.10290236716E-01  0.14357613897E-01 -0.30029242657E-01  0.34839423977E-01  0.00000000000E+00 0.  1.
       22    1    1    2    0    0  0.10196746876E-01 -0.14657583245E-01  0.29889565772E-01  0.34816727811E-01  0.00000000000E+00 0. -1.
       22    1    1    2    0    0  0.93489840724E-04  0.29996934840E-03  0.13967688499E-03  0.34384821142E-03  0.00000000000E+00 0.  1.
</event>
<event>
 5   0  0.4143600E+04  0.9118800E+02  0.7546771E-02  0.1180000E+00
      -11   -1    0    0    0    0  0.00000000000E+00  0.00000000000E+00  0.34996269501E-01  0.35000000000E-01  0.51099999109E-03 0. -1.
       11   -1    0    0    0    0 -0.00000000000E+00 -0.00000000000E+00 -0.34996269501E-01  0.35000000000E-01  0.51099999109E-03 0.  1.
       22    1    1    2    0    0 -0.86618342337E-04 -0.22521184161E-04  0.77115429229E-03  0.77633039583E-03  0.00000000000E+00 0.  1.
       22    1    1    2    0    0 -0.10139168587E-01 -0.92989640475E-02 -0.32127968939E-01  0.34949676110E-01  0.00000000000E+00 0.  1.
       22    1    1    2    0    0  0.10225786930E-01  0.93214852317E-02  0.31356814647E-01  0.34273993495E-01  0.00000000000E+00 0. -1.
</event>
<event>
 5   0  0.4143600E+04  0.9118800E+02  0.7546771E-02  0.1180000E+00
      -11   -1    0    0    0    0  0.00000000000E+00  0.00000000000E+00  0.34996269501E-01  0.35000000000E-01  0.51099999109E-03 0.  1.
       11   -1    0    0    0    0 -0.00000000000E+00 -0.00000000000E+00 -0.34996269501E-01  0.35000000000E-01  0.51099999109E-03 0.  1.
       22    1    1    2    0    0 -0.94256399286E-04 -0.61529230996E-03  0.34909399553E-01  0.34914948747E-01  0.00000000000E+00 0.  1.
       22    1    1    2    0    0 -0.14392876652E-03 -0.26469895705E-03 -0.32611824627E-01  0.32613216439E-01  0.00000000000E+00 0.  1.
       22    1    1    2    0    0  0.23818516581E-03  0.87999126701E-03 -0.22975749260E-02  0.24718348132E-02  0.00000000000E+00 0. -1.
</event>
<event>
 5   0  0.4143600E+04  0.9118800E+02  0.7546771E-02  0.1180000E+00
      -11   -1    0    0    0    0  0.00000000000E+00  0.00000000000E+00  0.34996269501E-01  0.35000000000E-01  0.51099999109E-03 0.  1.
       11   -1    0    0    0    0 -0.00000000000E+00 -0.00000000000E+00 -0.34996269501E-01  0.35000000000E-01  0.51099999109E-03 0. -1.
       22    1    1    2    0    0 -0.17913545180E-02 -0.10812593651E-02 -0.11380110359E-02  0.23818358343E-02  0.00000000000E+00 0.  1.
       22    1    1    2    0    0 -0.72497483888E-02  0.82533060859E-02  0.32443753168E-01  0.34253073332E-01  0.00000000000E+00 0.  1.
       22    1    1    2    0    0  0.90411029068E-02 -0.71720467208E-02 -0.31305742132E-01  0.33365090834E-01  0.00000000000E+00 0. -1.
</event>
<event>
 5   0  0.4143600E+04  0.9118800E+02  0.7546771E-02  0.1180000E+00
      -11   -1    0    0    0    0  0.00000000000E+00  0.00000000000E+00  0.34996269501E-01  0.35000000000E-01  0.51099999109E-03 0. -1.
       11   -1    0    0    0    0 -0.00000000000E+00 -0.00000000000E+00 -0.34996269501E-01  0.35000000000E-01  0.51099999109E-03 0.  1.
       22    1    1    2    0    0  0.23584239388E-01 -0.21081345291E-01  0.13933383341E-01  0.34565570125E-01  0.00000000000E+00 0. -1.
       22    1    1    2    0    0  0.41903036409E-03  0.26393227258E-03 -0.10270068098E-02  0.11401708985E-02  0.00000000000E+00 0. -1.
       22    1    1    2    0    0 -0.24003269752E-01  0.20817413018E-01 -0.12906376531E-01  0.34294258976E-01  0.00000000000E+00 0.  1.
</event>
<event>
 5   0  0.4143600E+04  0.9118800E+02  0.7546771E-02  0.1180000E+00
      -11   -1    0    0    0    0  0.00000000000E+00  0.00000000000E+00  0.34996269501E-01  0.35000000000E-01  0.51099999109E-03 0.  1.
       11   -1    0    0    0    0 -0.00000000000E+00 -0.00000000000E+00 -0.34996269501E-01  0.35000000000E-01  0.51099999109E-03 0. -1.
       22    1    1    2    0    0  0.26033273068E-02  0.43209898345E-02 -0.12589441207E-01  0.13562532806E-01  0.00000000000E+00 0.  1.
       22    1    1    2    0    0  0.23306406753E-03 -0.84826618720E-03  0.34278495176E-01  0.34289781363E-01  0.00000000000E+00 0.  1.
       22    1    1    2    0    0 -0.28363913743E-02 -0.34727236473E-02 -0.21689053969E-01  0.22147685830E-01  0.00000000000E+00 0. -1.
</event>
<event>
 5   0  0.4143600E+04  0.9118800E+02  0.7546771E-02  0.1180000E+00
      -11   -1    0    0    0    0  0.00000000000E+00  0.00000000000E+00  0.34996269501E-01  0.35000000000E-01  0.51099999109E-03 0. -1.
       11   -1    0    0    0    0 -0.00000000000E+00 -0.00000000000E+00 -0.34996269501E-01  0.35000000000E-01  0.51099999109E-03 0. -1.
       22    1    1    2    0    0  0.11719523540E-03  0.15348361116E-03 -0.34529345953E-01  0.34529885953E-01  0.00000000000E+00 0. -1.
       22    1    1    2    0    0 -0.11719523540E-03 -0.15348361116E-03 -0.45243200097E-03  0.49192139372E-03  0.00000000000E+00 0.  1.
       22    1    1    2    0    0  0.00000000000E+00 -0.00000000000E+00  0.34981777954E-01  0.34978192653E-01  0.00000000000E+00 0. -1.
</event>
<event>
 5   0  0.4143600E+04  0.9118800E+02  0.7546771E-02  0.1180000E+00
      -11   -1    0    0    0    0  0.00000000000E+00  0.00000000000E+00  0.34996269501E-01  0.35000000000E-01  0.51099999109E-03 0. -1.
       11   -1    0    0    0    0 -0.00000000000E+00 -0.00000000000E+00 -0.34996269501E-01  0.35000000000E-01  0.51099999109E-03 0.  1.
       22    1    1    2    0    0 -0.12075531190E-01 -0.28283578897E-01 -0.87310309735E-02  0.31968894110E-01  0.00000000000E+00 0.  1.
       22    1    1    2    0    0  0.11180702808E-01  0.29443673195E-01  0.12578624426E-01  0.33914005941E-01  0.00000000000E+00 0. -1.
       22    1    1    2    0    0  0.89482838191E-03 -0.11600942980E-02 -0.38475934529E-02  0.41170999493E-02  0.00000000000E+00 0.  1.
</event>
<event>
 5   0  0.4143600E+04  0.9118800E+02  0.7546771E-02  0.1180000E+00
      -11   -1    0    0    0    0  0.00000000000E+00  0.00000000000E+00  0.34996269501E-01  0.35000000000E-01  0.51099999109E-03 0.  1.
       11   -1    0    0    0    0 -0.00000000000E+00 -0.00000000000E+00 -0.34996269501E-01  0.35000000000E-01  0.51099999109E-03 0. -1.
       22    1    1    2    0    0  0.18204047176E-01  0.27361252751E-02  0.23272917343E-01  0.29673260636E-01  0.00000000000E+00 0.  1.
       22    1    1    2    0    0 -0.15255544589E-01 -0.23462576327E-02 -0.29573709128E-01  0.33359269134E-01  0.00000000000E+00 0. -1.
       22    1    1    2    0    0 -0.29485025872E-02 -0.38986764244E-03  0.63007917853E-02  0.69674702301E-02  0.00000000000E+00 0.  1.
</event>
<event>
 5   0  0.4143600E+04  0.9118800E+02  0.7546771E-02  0.1180000E+00
      -11   -1    0    0    0    0  0.00000000000E+00  0.00000000000E+00  0.34996269501E-01  0.35000000000E-01  0.51099999109E-03 0. -1.
       11   -1    0    0    0    0 -0.00000000000E+00 -0.00000000000E+00 -0.34996269501E-01  0.35000000000E-01  0.51099999109E-03 0.  1.
       22    1    1    2    0    0  0.55226458049E-02 -0.44389286308E-02 -0.24485595808E-01  0.25490157045E-01  0.00000000000E+00 0.  1.
       22    1    1    2    0    0 -0.29073766962E-02  0.21578644768E-02  0.34098261214E-01  0.34289949492E-01  0.00000000000E+00 0. -1.
       22    1    1    2    0    0 -0.26152691087E-02  0.22810641539E-02 -0.96126654062E-02  0.10219893463E-01  0.00000000000E+00 0. -1.
</event>
<event>
 5   0  0.4143600E+04  0.9118800E+02  0.7546771E-02  0.1180000E+00
      -11   -1    0    0    0    0  0.00000000000E+00  0.00000000000E+00  0.34996269501E-01  0.35000000000E-01  0.51099999109E-03 0.  1.
       11   -1    0    0    0    0 -0.00000000000E+00 -0.00000000000E+00 -0.34996269501E-01  0.35000000000E-01  0.51099999109E-03 0. -1.
       22    1    1    2    0    0  0.98354982121E-02 -0.18849650981E-01 -0.27759466606E-01  0.34966188718E-01  0.00000000000E+00 0. -1.
       22    1    1    2    0    0 -0.56522523869E-04 -0.23772199824E-04  0.31138438232E-03  0.31736437535E-03  0.00000000000E+00 0. -1.
       22    1    1    2    0    0 -0.97789756882E-02  0.18873423181E-01  0.27448082224E-01  0.34716446907E-01  0.00000000000E+00 0.  1.
</event>
<event>
 5   0  0.4143600E+04  0.9118800E+02  0.7546771E-02  0.1180000E+00
      -11   -1    0    0    0    0  0.00000000000E+00  0.00000000000E+00  0.34996269501E-01  0.35000000000E-01  0.51099999109E-03 0.  1.
       11   -1    0    0    0    0 -0.00000000000E+00 -0.00000000000E+00 -0.34996269501E-01  0.35000000000E-01  0.51099999109E-03 0. -1.
       22    1    1    2    0    0  0.12908050434E-01  0.93597861897E-02  0.21440667429E-01  0.26719385908E-01  0.00000000000E+00 0.  1.
       22    1    1    2    0    0 -0.13471272211E-01 -0.93722508078E-02 -0.30270517166E-01  0.34432810946E-01  0.00000000000E+00 0. -1.
       22    1    1    2    0    0  0.56322177704E-03  0.12464618064E-04  0.88298497362E-02  0.88478031455E-02  0.00000000000E+00 0.  1.
</event>
<event>
 5   0  0.4143600E+04  0.9118800E+02  0.7546771E-02  0.1180000E+00
      -11   -1    0    0    0    0  0.00000000000E+00  0.00000000000E+00  0.34996269501E-01  0.35000000000E-01  0.51099999109E-03 0.  1.
       11   -1    0    0    0    0 -0.00000000000E+00 -0.00000000000E+00 -0.34996269501E-01  0.35000000000E-01  0.51099999109E-03 0. -1.
       22    1    1    2    0    0 -0.34106360921E-02  0.42202984703E-02 -0.21252261873E-01  0.21934037304E-01  0.00000000000E+00 0. -1.
       22    1    1    2    0    0  0.11993833031E-01 -0.41683395883E-02  0.31932318517E-01  0.34364226334E-01  0.00000000000E+00 0.  1.
       22    1    1    2    0    0 -0.85831969390E-02 -0.51958882016E-04 -0.10680056644E-01  0.13701736362E-01  0.00000000000E+00 0. -1.
</event>
<event>
 5   0  0.4143600E+04  0.9118800E+02  0.7546771E-02  0.1180000E+00
      -11   -1    0    0    0    0  0.00000000000E+00  0.00000000000E+00  0.34996269501E-01  0.35000000000E-01  0.51099999109E-03 0.  1.
       11   -1    0    0    0    0 -0.00000000000E+00 -0.00000000000E+00 -0.34996269501E-01  0.35000000000E-01  0.51099999109E-03 0. -1.
       22    1    1    2    0    0 -0.19541019137E-02  0.11635014780E-01  0.32286100639E-01  0.34374181847E-01  0.00000000000E+00 0.  1.
       22    1    1    2    0    0  0.20687975043E-02 -0.12871635533E-01 -0.24608977995E-01  0.27848890864E-01  0.00000000000E+00 0. -1.
       22    1    1    2    0    0 -0.11469559057E-03  0.12366207524E-02 -0.76771226433E-02  0.77769272881E-02  0.00000000000E+00 0.  1.
</event>
<event>
 5   0  0.4143600E+04  0.9118800E+02  0.7546771E-02  0.1180000E+00
      -11   -1    0    0    0    0  0.00000000000E+00  0.00000000000E+00  0.34996269501E-01  0.35000000000E-01  0.51099999109E-03 0.  1.
       11   -1    0    0    0    0 -0.00000000000E+00 -0.00000000000E+00 -0.34996269501E-01  0.35000000000E-01  0.51099999109E-03 0. -1.
       22    1    1    2    0    0  0.34701966628E-02  0.15354355507E-01 -0.20984652829E-01  0.26232692433E-01  0.00000000000E+00 0. -1.
       22    1    1    2    0    0 -0.30868862507E-02 -0.15002253603E-01  0.30557013649E-01  0.34180806939E-01  0.00000000000E+00 0.  1.
       22    1    1    2    0    0 -0.38331041208E-03 -0.35210190413E-03 -0.95723608196E-02  0.95865006276E-02  0.00000000000E+00 0. -1.
</event>
<event>
 5   0  0.4143600E+04  0.9118800E+02  0.7546771E-02  0.1180000E+00
      -11   -1    0    0    0    0  0.00000000000E+00  0.00000000000E+00  0.34996269501E-01  0.35000000000E-01  0.51099999109E-03 0.  1.
       11   -1    0    0    0    0 -0.00000000000E+00 -0.00000000000E+00 -0.34996269501E-01  0.35000000000E-01  0.51099999109E-03 0. -1.
       22    1    1    2    0    0  0.83941963575E-02 -0.63466470751E-02 -0.22037261944E-01  0.24420961807E-01  0.00000000000E+00 0. -1.
       22    1    1    2    0    0  0.12636775345E-01 -0.48657308066E-02  0.16061812173E-01  0.21008218336E-01  0.00000000000E+00 0. -1.
       22    1    1    2    0    0 -0.21030971702E-01  0.11212377882E-01  0.59754497711E-02  0.24570819857E-01  0.00000000000E+00 0.  1.
</event>
<event>
 5   0  0.4143600E+04  0.9118800E+02  0.7546771E-02  0.1180000E+00
      -11   -1    0    0    0    0  0.00000000000E+00  0.00000000000E+00  0.34996269501E-01  0.35000000000E-01  0.51099999109E-03 0.  1.
       11   -1    0    0    0    0 -0.00000000000E+00 -0.00000000000E+00 -0.34996269501E-01  0.35000000000E-01  0.51099999109E-03 0. -1.
       22    1    1    2    0    0  0.42934598171E-02 -0.10102825611E-01 -0.18479364629E-02  0.11131745223E-01  0.00000000000E+00 0.  1.
       22    1    1    2    0    0 -0.12476859340E-02  0.10044979713E-01 -0.27530474132E-01  0.29332325915E-01  0.00000000000E+00 0. -1.
       22    1    1    2    0    0 -0.30457738831E-02  0.57845898522E-04  0.29378410595E-01  0.29535928863E-01  0.00000000000E+00 0.  1.
</event>
<event>
 5   0  0.4143600E+04  0.9118800E+02  0.7546771E-02  0.1180000E+00
      -11   -1    0    0    0    0  0.00000000000E+00  0.00000000000E+00  0.34996269501E-01  0.35000000000E-01  0.51099999109E-03 0.  1.
       11   -1    0    0    0    0 -0.00000000000E+00 -0.00000000000E+00 -0.34996269501E-01  0.35000000000E-01  0.51099999109E-03 0. -1.
       22    1    1    2    0    0  0.58515260416E-03  0.12876746512E-02 -0.17148946471E-02  0.22229199779E-02  0.00000000000E+00 0. -1.
       22    1    1    2    0    0  0.10007561038E-01 -0.62487823572E-02 -0.30927901748E-01  0.33101868005E-01  0.00000000000E+00 0. -1.
       22    1    1    2    0    0 -0.10592713642E-01  0.49611077060E-02  0.32642796395E-01  0.34675212017E-01  0.00000000000E+00 0.  1.
</event>
<event>
 5   0  0.4143600E+04  0.9118800E+02  0.7546771E-02  0.1180000E+00
      -11   -1    0    0    0    0  0.00000000000E+00  0.00000000000E+00  0.34996269501E-01  0.35000000000E-01  0.51099999109E-03 0. -1.
       11   -1    0    0    0    0 -0.00000000000E+00 -0.00000000000E+00 -0.34996269501E-01  0.35000000000E-01  0.51099999109E-03 0.  1.
       22    1    1    2    0    0 -0.77983747864E-02  0.14540448739E-01  0.25815511221E-01  0.30637883713E-01  0.00000000000E+00 0. -1.
       22    1    1    2    0    0  0.95103714513E-02 -0.13255817068E-01 -0.30288802001E-01  0.34403130351E-01  0.00000000000E+00 0.  1.
       22    1    1    2    0    0 -0.17119966649E-02 -0.12846316706E-02  0.44732907805E-02  0.49589859363E-02  0.00000000000E+00 0. -1.
</event>
<event>
 5   0  0.4143600E+04  0.9118800E+02  0.7546771E-02  0.1180000E+00
      -11   -1    0    0    0    0  0.00000000000E+00  0.00000000000E+00  0.34996269501E-01  0.35000000000E-01  0.51099999109E-03 0. -1.
       11   -1    0    0    0    0 -0.00000000000E+00 -0.00000000000E+00 -0.34996269501E-01  0.35000000000E-01  0.51099999109E-03 0.  1.
       22    1    1    2    0    0  0.98521082313E-02 -0.10273636433E-01  0.31264545956E-01  0.34352343093E-01  0.00000000000E+00 0. -1.
       22    1    1    2    0    0 -0.97662181609E-02  0.10363632834E-01 -0.31934820234E-01  0.34965935509E-01  0.00000000000E+00 0.  1.
       22    1    1    2    0    0 -0.85890070335E-04 -0.89996400765E-04  0.67027427790E-03  0.68172139760E-03  0.00000000000E+00 0.  1.
</event>
<event>
 5   0  0.4143600E+04  0.9118800E+02  0.7546771E-02  0.1180000E+00
      -11   -1    0    0    0    0  0.00000000000E+00  0.00000000000E+00  0.34996269501E-01  0.35000000000E-01  0.51099999109E-03 0.  1.
       11   -1    0    0    0    0 -0.00000000000E+00 -0.00000000000E+00 -0.34996269501E-01  0.35000000000E-01  0.51099999109E-03 0. -1.
       22    1    1    2    0    0 -0.17297203621E-03  0.11913769879E-03  0.69891810471E-03  0.72979424064E-03  0.00000000000E+00 0. -1.
       22    1    1    2    0    0  0.14622559220E-02 -0.17791681790E-01  0.29369345499E-01  0.34369180792E-01  0.00000000000E+00 0.  1.
       22    1    1    2    0    0 -0.12892838858E-02  0.17672544092E-01 -0.30068263604E-01  0.34901024967E-01  0.00000000000E+00 0. -1.
</event>
<event>
 5   0  0.4143600E+04  0.9118800E+02  0.7546771E-02  0.1180000E+00
      -11   -1    0    0    0    0  0.00000000000E+00  0.00000000000E+00  0.34996269501E-01  0.35000000000E-01  0.51099999109E-03 0.  1.
       11   -1    0    0    0    0 -0.00000000000E+00 -0.00000000000E+00 -0.34996269501E-01  0.35000000000E-01  0.51099999109E-03 0. -1.
       22    1    1    2    0    0 -0.14987796901E-03 -0.10754852135E-02 -0.13048988370E-02  0.16976138622E-02  0.00000000000E+00 0.  1.
       22    1    1    2    0    0 -0.63118943434E-03 -0.21447940564E-01  0.26762552094E-01  0.34302284897E-01  0.00000000000E+00 0.  1.
       22    1    1    2    0    0  0.78106740335E-03  0.22523425778E-01 -0.25457653257E-01  0.34000101241E-01  0.00000000000E+00 0. -1.
</event>
<event>
 5   0  0.4143600E+04  0.9118800E+02  0.7546771E-02  0.1180000E+00
      -11   -1    0    0    0    0  0.00000000000E+00  0.00000000000E+00  0.34996269501E-01  0.35000000000E-01  0.51099999109E-03 0.  1.
       11   -1    0    0    0    0 -0.00000000000E+00 -0.00000000000E+00 -0.34996269501E-01  0.35000000000E-01  0.51099999109E-03 0. -1.
       22    1    1    2    0    0  0.52179340858E-02 -0.81882186775E-03 -0.13049901543E-01  0.14078253999E-01  0.00000000000E+00 0. -1.
       22    1    1    2    0    0 -0.46815115232E-03  0.67708388065E-03 -0.21264226602E-01  0.21280153690E-01  0.00000000000E+00 0. -1.
       22    1    1    2    0    0 -0.47497829335E-02  0.14173798710E-03  0.34314128145E-01  0.34641592312E-01  0.00000000000E+00 0.  1.
</event>
<event>
 5   0  0.4143600E+04  0.9118800E+02  0.7546771E-02  0.1180000E+00
      -11   -1    0    0    0    0  0.00000000000E+00  0.00000000000E+00  0.34996269501E-01  0.35000000000E-01  0.51099999109E-03 0. -1.
       11   -1    0    0    0    0 -0.00000000000E+00 -0.00000000000E+00 -0.34996269501E-01  0.35000000000E-01  0.51099999109E-03 0.  1.
       22    1    1    2    0    0  0.58625348904E-02  0.15862741460E-02  0.33843695487E-01  0.34384317722E-01  0.00000000000E+00 0. -1.
       22    1    1    2    0    0 -0.13432701445E-03 -0.88188651508E-03 -0.25238829801E-01  0.25254589629E-01  0.00000000000E+00 0.  1.
       22    1    1    2    0    0 -0.57282078759E-02 -0.70438763089E-03 -0.86048656858E-02  0.10361092649E-01  0.00000000000E+00 0.  1.
</event>
<event>
 5   0  0.4143600E+04  0.9118800E+02  0.7546771E-02  0.1180000E+00
      -11   -1    0    0    0    0  0.00000000000E+00  0.00000000000E+00  0.34996269501E-01  0.35000000000E-01  0.51099999109E-03 0. -1.
       11   -1    0    0    0    0 -0.00000000000E+00 -0.00000000000E+00 -0.34996269501E-01  0.35000000000E-01  0.51099999109E-03 0.  1.
       22    1    1    2    0    0 -0.18699866768E-02 -0.11120238454E-01  0.31327187595E-01  0.33294883031E-01  0.00000000000E+00 0. -1.
       22    1    1    2    0    0  0.34154845627E-02 -0.15994738917E-02 -0.11861177580E-02  0.39535714062E-02  0.00000000000E+00 0.  1.
       22    1    1    2    0    0 -0.15454978859E-02  0.12719712346E-01 -0.30141069837E-01  0.32751545563E-01  0.00000000000E+00 0.  1.
</event>
<event>
 5   0  0.4143600E+04  0.9118800E+02  0.7546771E-02  0.1180000E+00
      -11   -1    0    0    0    0  0.00000000000E+00  0.00000000000E+00  0.34996269501E-01  0.35000000000E-01  0.51099999109E-03 0.  1.
       11   -1    0    0    0    0 -0.00000000000E+00 -0.00000000000E+00 -0.34996269501E-01  0.35000000000E-01  0.51099999109E-03 0. -1.
       22    1    1    2    0    0  0.10456172566E-03 -0.17610731061E-03 -0.63561586799E-03  0.66779822624E-03  0.00000000000E+00 0. -1.
       22    1    1    2    0    0  0.17393188290E-01 -0.16497922102E-01 -0.24627659858E-01  0.34368969473E-01  0.00000000000E+00 0. -1.
       22    1    1    2    0    0 -0.17497750016E-01  0.16674029413E-01  0.25263275726E-01  0.34963232300E-01  0.00000000000E+00 0.  1.
</event>
<event>
 5   0  0.4143600E+04  0.9118800E+02  0.7546771E-02  0.1180000E+00
      -11   -1    0    0    0    0  0.00000000000E+00  0.00000000000E+00  0.34996269501E-01  0.35000000000E-01  0.51099999109E-03 0.  1.
       11   -1    0    0    0    0 -0.00000000000E+00 -0.00000000000E+00 -0.34996269501E-01  0.35000000000E-01  0.51099999109E-03 0.  1.
       22    1    1    2    0    0  0.76798964174E-02  0.10790036545E-01 -0.16752579896E-01  0.21355435627E-01  0.00000000000E+00 0. -1.
       22    1    1    2    0    0 -0.77738412362E-02 -0.10809766065E-01 -0.13166462834E-01  0.18725367646E-01  0.00000000000E+00 0.  1.
       22    1    1    2    0    0  0.93944818778E-04  0.19729519757E-04  0.29919042730E-01  0.29919196727E-01  0.00000000000E+00 0.  1.
</event>
<event>
 5   0  0.4143600E+04  0.9118800E+02  0.7546771E-02  0.1180000E+00
      -11   -1    0    0    0    0  0.00000000000E+00  0.00000000000E+00  0.34996269501E-01  0.35000000000E-01  0.51099999109E-03 0.  1.
       11   -1    0    0    0    0 -0.00000000000E+00 -0.00000000000E+00 -0.34996269501E-01  0.35000000000E-01  0.51099999109E-03 0. -1.
       22    1    1    2    0    0 -0.71852806666E-02 -0.17844263229E-01  0.28862279651E-01  0.34685402911E-01  0.00000000000E+00 0.  1.
       22    1    1    2    0    0  0.73863894305E-02  0.17665054896E-01 -0.29178108053E-01  0.34899497172E-01  0.00000000000E+00 0. -1.
       22    1    1    2    0    0 -0.20110876389E-03  0.17920833264E-03  0.31582840233E-03  0.41509991704E-03  0.00000000000E+00 0. -1.
</event>
<event>
 5   0  0.4143600E+04  0.9118800E+02  0.7546771E-02  0.1180000E+00
      -11   -1    0    0    0    0  0.00000000000E+00  0.00000000000E+00  0.34996269501E-01  0.35000000000E-01  0.51099999109E-03 0. -1.
       11   -1    0    0    0    0 -0.00000000000E+00 -0.00000000000E+00 -0.34996269501E-01  0.35000000000E-01  0.51099999109E-03 0.  1.
       22    1    1    2    0    0  0.20778526680E-01  0.13495686911E-01 -0.24659941983E-01  0.34957023254E-01  0.00000000000E+00 0.  1.
       22    1    1    2    0    0 -0.48924015594E-03 -0.11816195406E-03  0.14568973114E-03  0.52396915495E-03  0.00000000000E+00 0. -1.
       22    1    1    2    0    0 -0.20289286524E-01 -0.13377524957E-01  0.24514252251E-01  0.34519007591E-01  0.00000000000E+00 0. -1.
</event>
<event>
 5   0  0.4143600E+04  0.9118800E+02  0.7546771E-02  0.1180000E+00
      -11   -1    0    0    0    0  0.00000000000E+00  0.00000000000E+00  0.34996269501E-01  0.35000000000E-01  0.51099999109E-03 0. -1.
       11   -1    0    0    0    0 -0.00000000000E+00 -0.00000000000E+00 -0.34996269501E-01  0.35000000000E-01  0.51099999109E-03 0.  1.
       22    1    1    2    0    0  0.19393928352E-02 -0.11860674762E-01  0.31092119968E-01  0.33334018277E-01  0.00000000000E+00 0. -1.
       22    1    1    2    0    0 -0.17556826928E-03  0.63462807274E-03  0.17731948880E-02  0.18915065738E-02  0.00000000000E+00 0.  1.
       22    1    1    2    0    0 -0.17638245660E-02  0.11226046690E-01 -0.32865314856E-01  0.34774475150E-01  0.00000000000E+00 0.  1.
</event>
<event>
 5   0  0.4143600E+04  0.9118800E+02  0.7546771E-02  0.1180000E+00
      -11   -1    0    0    0    0  0.00000000000E+00  0.00000000000E+00  0.34996269501E-01  0.35000000000E-01  0.51099999109E-03 0. -1.
       11   -1    0    0    0    0 -0.00000000000E+00 -0.00000000000E+00 -0.34996269501E-01  0.35000000000E-01  0.51099999109E-03 0.  1.
       22    1    1    2    0    0  0.24578337699E-02  0.54959116821E-03  0.34890717302E-01  0.34981497269E-01  0.00000000000E+00 0. -1.
       22    1    1    2    0    0 -0.23006532141E-02 -0.38211527121E-03 -0.34374158225E-01  0.34453182305E-01  0.00000000000E+00 0.  1.
       22    1    1    2    0    0 -0.15718055584E-03 -0.16747589700E-03 -0.51655907752E-03  0.56532042576E-03  0.00000000000E+00 0. -1.
</event>
<event>
 5   0  0.4143600E+04  0.9118800E+02  0.7546771E-02  0.1180000E+00
      -11   -1    0    0    0    0  0.00000000000E+00  0.00000000000E+00  0.34996269501E-01  0.35000000000E-01  0.51099999109E-03 0. -1.
       11   -1    0    0    0    0 -0.00000000000E+00 -0.00000000000E+00 -0.34996269501E-01  0.35000000000E-01  0.51099999109E-03 0.  1.
       22    1    1    2    0    0  0.23985811113E-03  0.21800709434E-03  0.32779638658E-02  0.32939499256E-02  0.00000000000E+00 0.  1.
       22    1    1    2    0    0 -0.51354218877E-02 -0.17546179840E-01  0.26328672607E-01  0.32053704719E-01  0.00000000000E+00 0. -1.
       22    1    1    2    0    0  0.48955637765E-02  0.17328172746E-01 -0.29606636473E-01  0.34652345356E-01  0.00000000000E+00 0.  1.
</event>
<event>
 5   0  0.4143600E+04  0.9118800E+02  0.7546771E-02  0.1180000E+00
      -11   -1    0    0    0    0  0.00000000000E+00  0.00000000000E+00  0.34996269501E-01  0.35000000000E-01  0.51099999109E-03 0. -1.
       11   -1    0    0    0    0 -0.00000000000E+00 -0.00000000000E+00 -0.34996269501E-01  0.35000000000E-01  0.51099999109E-03 0.  1.
       22    1    1    2    0    0 -0.11595388626E-01  0.85752264692E-02 -0.16597404215E-01  0.21987755071E-01  0.00000000000E+00 0.  1.
       22    1    1    2    0    0 -0.27109948247E-02 -0.10628607525E-02 -0.13522029950E-01  0.13832008527E-01  0.00000000000E+00 0.  1.
       22    1    1    2    0    0  0.14306383451E-01 -0.75123657168E-02  0.30119434165E-01  0.34180236402E-01  0.00000000000E+00 0. -1.
</event>
<event>
 5   0  0.4143600E+04  0.9118800E+02  0.7546771E-02  0.1180000E+00
      -11   -1    0    0    0    0  0.00000000000E+00  0.00000000000E+00  0.34996269501E-01  0.35000000000E-01  0.51099999109E-03 0. -1.
       11   -1    0    0    0    0 -0.00000000000E+00 -0.00000000000E+00 -0.34996269501E-01  0.35000000000E-01  0.51099999109E-03 0.  1.
       22    1    1    2    0    0 -0.55132142384E-02 -0.13523912816E-02 -0.18731210130E-01  0.19572499237E-01  0.00000000000E+00 0.  1.
       22    1    1    2    0    0 -0.76312340398E-03 -0.10770186175E-01 -0.12395709224E-01  0.16438761350E-01  0.00000000000E+00 0. -1.
       22    1    1    2    0    0  0.62763376424E-02  0.12122577457E-01  0.31126919354E-01  0.33988739413E-01  0.00000000000E+00 0. -1.
</event>
<event>
 5   0  0.4143600E+04  0.9118800E+02  0.7546771E-02  0.1180000E+00
      -11   -1    0    0    0    0  0.00000000000E+00  0.00000000000E+00  0.34996269501E-01  0.35000000000E-01  0.51099999109E-03 0.  1.
       11   -1    0    0    0    0 -0.00000000000E+00 -0.00000000000E+00 -0.34996269501E-01  0.35000000000E-01  0.51099999109E-03 0. -1.
       22    1    1    2    0    0 -0.13086478465E-01  0.27475276568E-02 -0.32269686591E-01  0.34930466637E-01  0.00000000000E+00 0. -1.
       22    1    1    2    0    0  0.12007229035E-01 -0.33588058507E-02  0.29883893199E-01  0.32380583666E-01  0.00000000000E+00 0.  1.
       22    1    1    2    0    0  0.10792494302E-02  0.61127819396E-03  0.23857933914E-02  0.26889496963E-02  0.00000000000E+00 0.  1.
</event>
<event>
 5   0  0.4143600E+04  0.9118800E+02  0.7546771E-02  0.1180000E+00
      -11   -1    0    0    0    0  0.00000000000E+00  0.00000000000E+00  0.34996269501E-01  0.35000000000E-01  0.51099999109E-03 0. -1.
       11   -1    0    0    0    0 -0.00000000000E+00 -0.00000000000E+00 -0.34996269501E-01  0.35000000000E-01  0.51099999109E-03 0.  1.
       22    1    1    2    0    0 -0.70493419876E-02 -0.14820181766E-01 -0.30509440948E-01  0.34643282134E-01  0.00000000000E+00 0.  1.
       22    1    1    2    0    0  0.76536892024E-02  0.14652972774E-01  0.26045374470E-01  0.30848826571E-01  0.00000000000E+00 0. -1.
       22    1    1    2    0    0 -0.60434721478E-03  0.16720899141E-03  0.44640664789E-02  0.45078912954E-02  0.00000000000E+00 0.  1.
</event>
<event>
 5   0  0.4143600E+04  0.9118800E+02  0.7546771E-02  0.1180000E+00
      -11   -1    0    0    0    0  0.00000000000E+00  0.00000000000E+00  0.34996269501E-01  0.35000000000E-01  0.51099999109E-03 0. -1.
       11   -1    0    0    0    0 -0.00000000000E+00 -0.00000000000E+00 -0.34996269501E-01  0.35000000000E-01  0.51099999109E-03 0.  1.
       22    1    1    2    0    0  0.11653490509E-02  0.50322324973E-03 -0.31601826005E-01  0.31627309068E-01  0.00000000000E+00 0.  1.
       22    1    1    2    0    0 -0.00000000000E+00 -0.00000000000E+00  0.34868958392E-01  0.34867633716E-01  0.00000000000E+00 0. -1.
       22    1    1    2    0    0 -0.11653490509E-02 -0.50322324973E-03 -0.32671323868E-02  0.35050572153E-02  0.00000000000E+00 0. -1.
</event>
<event>
 5   0  0.4143600E+04  0.9118800E+02  0.7546771E-02  0.1180000E+00
      -11   -1    0    0    0    0  0.00000000000E+00  0.00000000000E+00  0.34996269501E-01  0.35000000000E-01  0.51099999109E-03 0.  1.
       11   -1    0    0    0    0 -0.00000000000E+00 -0.00000000000E+00 -0.34996269501E-01  0.35000000000E-01  0.51099999109E-03 0. -1.
       22    1    1    2    0    0  0.10304757661E-02  0.17094251485E-01  0.23778104309E-01  0.29303132233E-01  0.00000000000E+00 0.  1.
       22    1    1    2    0    0 -0.12959239056E-02 -0.16864341440E-01 -0.30013628204E-01  0.34451463089E-01  0.00000000000E+00 0. -1.
       22    1    1    2    0    0  0.26544813946E-03 -0.22991004522E-03  0.62355238957E-02  0.62454046785E-02  0.00000000000E+00 0.  1.
</event>
<event>
 5   0  0.4143600E+04  0.9118800E+02  0.7546771E-02  0.1180000E+00
      -11   -1    0    0    0    0  0.00000000000E+00  0.00000000000E+00  0.34996269501E-01  0.35000000000E-01  0.51099999109E-03 0. -1.
       11   -1    0    0    0    0 -0.00000000000E+00 -0.00000000000E+00 -0.34996269501E-01  0.35000000000E-01  0.51099999109E-03 0.  1.
       22    1    1    2    0    0 -0.64867543537E-02  0.57912591269E-02 -0.31539928853E-01  0.32716720135E-01  0.00000000000E+00 0.  1.
       22    1    1    2    0    0 -0.22042058985E-03  0.98830129872E-03 -0.20926432465E-02  0.23247538473E-02  0.00000000000E+00 0.  1.
       22    1    1    2    0    0  0.67071749436E-02 -0.67795604257E-02  0.33632572100E-01  0.34958526018E-01  0.00000000000E+00 0. -1.
</event>
<event>
 5   0  0.4143600E+04  0.9118800E+02  0.7546771E-02  0.1180000E+00
      -11   -1    0    0    0    0  0.00000000000E+00  0.00000000000E+00  0.34996269501E-01  0.35000000000E-01  0.51099999109E-03 0. -1.
       11   -1    0    0    0    0 -0.00000000000E+00 -0.00000000000E+00 -0.34996269501E-01  0.35000000000E-01  0.51099999109E-03 0.  1.
       22    1    1    2    0    0 -0.77020680322E-02 -0.46970598605E-02 -0.58131862460E-02  0.10732071451E-01  0.00000000000E+00 0. -1.
       22    1    1    2    0    0 -0.85660718034E-03 -0.42302213829E-03  0.31602710070E-01  0.31617147363E-01  0.00000000000E+00 0. -1.
       22    1    1    2    0    0  0.85586752126E-02  0.51200819987E-02 -0.25789523825E-01  0.27650781185E-01  0.00000000000E+00 0.  1.
</event>
<event>
 5   0  0.4143600E+04  0.9118800E+02  0.7546771E-02  0.1180000E+00
      -11   -1    0    0    0    0  0.00000000000E+00  0.00000000000E+00  0.34996269501E-01  0.35000000000E-01  0.51099999109E-03 0.  1.
       11   -1    0    0    0    0 -0.00000000000E+00 -0.00000000000E+00 -0.34996269501E-01  0.35000000000E-01  0.51099999109E-03 0. -1.
       22    1    1    2    0    0  0.93350892508E-03  0.22938943556E-01 -0.24228737909E-01  0.33378111256E-01  0.00000000000E+00 0. -1.
       22    1    1    2    0    0  0.18722871685E-03  0.84576715505E-04 -0.18240561608E-02  0.18355894669E-02  0.00000000000E+00 0. -1.
       22    1    1    2    0    0 -0.11207376419E-02 -0.23023520271E-01  0.26052794070E-01  0.34786299277E-01  0.00000000000E+00 0.  1.
</event>
<event>
 5   0  0.4143600E+04  0.9118800E+02  0.7546771E-02  0.1180000E+00
      -11   -1    0    0    0    0  0.00000000000E+00  0.00000000000E+00  0.34996269501E-01  0.35000000000E-01  0.51099999109E-03 0.  1.
       11   -1    0    0    0    0 -0.00000000000E+00 -0.00000000000E+00 -0.34996269501E-01  0.35000000000E-01  0.51099999109E-03 0.  1.
       22    1    1    2    0    0  0.18186677334E-02 -0.91475474125E-03  0.33135315810E-01  0.33197793336E-01  0.00000000000E+00 0.  1.
       22    1    1    2    0    0 -0.89440403906E-04  0.77672607801E-02 -0.10315652542E-01  0.12913211335E-01  0.00000000000E+00 0. -1.
       22    1    1    2    0    0 -0.17292273295E-02 -0.68525060389E-02 -0.22819663267E-01  0.23888995329E-01  0.00000000000E+00 0.  1.
</event>
<event>
 5   0  0.4143600E+04  0.9118800E+02  0.7546771E-02  0.1180000E+00
      -11   -1    0    0    0    0  0.00000000000E+00  0.00000000000E+00  0.34996269501E-01  0.35000000000E-01  0.51099999109E-03 0.  1.
       11   -1    0    0    0    0 -0.00000000000E+00 -0.00000000000E+00 -0.34996269501E-01  0.35000000000E-01  0.51099999109E-03 0. -1.
       22    1    1    2    0    0 -0.37040645557E-02 -0.11101368570E-01  0.32462963195E-01  0.34508034684E-01  0.00000000000E+00 0.  1.
       22    1    1    2    0    0  0.37122262826E-02  0.11112099832E-01 -0.32967441921E-01  0.34987306462E-01  0.00000000000E+00 0. -1.
       22    1    1    2    0    0 -0.81617269144E-05 -0.10731261781E-04  0.50447872639E-03  0.50465885423E-03  0.00000000000E+00 0.  1.
</event>
<event>
 5   0  0.4143600E+04  0.9118800E+02  0.7546771E-02  0.1180000E+00
      -11   -1    0    0    0    0  0.00000000000E+00  0.00000000000E+00  0.34996269501E-01  0.35000000000E-01  0.51099999109E-03 0. -1.
       11   -1    0    0    0    0 -0.00000000000E+00 -0.00000000000E+00 -0.34996269501E-01  0.35000000000E-01  0.51099999109E-03 0.  1.
       22    1    1    2    0    0 -0.32954144710E-02 -0.11448206654E-01  0.32840438179E-01  0.34934446781E-01  0.00000000000E+00 0. -1.
       22    1    1    2    0    0  0.10098964954E-03 -0.12976938832E-03 -0.13915735560E-02  0.14012551392E-02  0.00000000000E+00 0.  1.
       22    1    1    2    0    0  0.31944248214E-02  0.11577976042E-01 -0.31448864623E-01  0.33664298080E-01  0.00000000000E+00 0.  1.
</event>
<event>
 5   0  0.4143600E+04  0.9118800E+02  0.7546771E-02  0.1180000E+00
      -11   -1    0    0    0    0  0.00000000000E+00  0.00000000000E+00  0.34996269501E-01  0.35000000000E-01  0.51099999109E-03 0. -1.
       11   -1    0    0    0    0 -0.00000000000E+00 -0.00000000000E+00 -0.34996269501E-01  0.35000000000E-01  0.51099999109E-03 0. -1.
       22    1    1    2    0    0 -0.65093290346E-04 -0.13962927989E-03 -0.33567909915E-01  0.33568263428E-01  0.00000000000E+00 0. -1.
       22    1    1    2    0    0  0.31187014123E-03  0.92034356898E-03  0.34875451094E-01  0.34888986576E-01  0.00000000000E+00 0. -1.
       22    1    1    2    0    0 -0.24677685088E-03 -0.78071428908E-03 -0.13075411792E-02  0.15427499961E-02  0.00000000000E+00 0.  1.
</event>
<event>
 5   0  0.4143600E+04  0.9118800E+02  0.7546771E-02  0.1180000E+00
      -11   -1    0    0    0    0  0.00000000000E+00  0.00000000000E+00  0.34996269501E-01  0.35000000000E-01  0.51099999109E-03 0.  1.
       11   -1    0    0    0    0 -0.00000000000E+00 -0.00000000000E+00 -0.34996269501E-01  0.35000000000E-01  0.51099999109E-03 0. -1.
       22    1    1    2    0    0  0.11496849258E-01  0.31859889620E-02  0.27414158488E-01  0.29897561007E-01  0.00000000000E+00 0.  1.
       22    1    1    2    0    0  0.72863121908E-02 -0.63074683062E-02 -0.55956007662E-02  0.11143843579E-01  0.00000000000E+00 0.  1.
       22    1    1    2    0    0 -0.18783161449E-01  0.31214793442E-02 -0.21818557722E-01  0.28958595415E-01  0.00000000000E+00 0. -1.
</event>
<event>
 5   0  0.4143600E+04  0.9118800E+02  0.7546771E-02  0.1180000E+00
      -11   -1    0    0    0    0  0.00000000000E+00  0.00000000000E+00  0.34996269501E-01  0.35000000000E-01  0.51099999109E-03 0.  1.
       11   -1    0    0    0    0 -0.00000000000E+00 -0.00000000000E+00 -0.34996269501E-01  0.35000000000E-01  0.51099999109E-03 0. -1.
       22    1    1    2    0    0  0.94395209900E-02  0.20695725132E-01 -0.25749143255E-01  0.34357473330E-01  0.00000000000E+00 0. -1.
       22    1    1    2    0    0 -0.88814524165E-02 -0.21116799472E-01  0.26206001903E-01  0.34807383594E-01  0.00000000000E+00 0.  1.
       22    1    1    2    0    0 -0.55806857348E-03  0.42107434036E-03 -0.45685864760E-03  0.83514307559E-03  0.00000000000E+00 0. -1.
</event>
<event>
 5   0  0.4143600E+04  0.9118800E+02  0.7546771E-02  0.1180000E+00
      -11   -1    0    0    0    0  0.00000000000E+00  0.00000000000E+00  0.34996269501E-01  0.35000000000E-01  0.51099999109E-03 0.  1.
       11   -1    0    0    0    0 -0.00000000000E+00 -0.00000000000E+00 -0.34996269501E-01  0.35000000000E-01  0.51099999109E-03 0.  1.
       22    1    1    2    0    0  0.13559499227E-03  0.12072196743E-02 -0.33131557572E-01  0.33153821386E-01  0.00000000000E+00 0.  1.
       22    1    1    2    0    0  0.00000000000E+00  0.00000000000E+00  0.34791594201E-01  0.34789120775E-01  0.00000000000E+00 0.  1.
       22    1    1    2    0    0 -0.13559499227E-03 -0.12072196743E-02 -0.16600366282E-02  0.20570578385E-02  0.00000000000E+00 0. -1.
</event>
<event>
 5   0  0.4143600E+04  0.9118800E+02  0.7546771E-02  0.1180000E+00
      -11   -1    0    0    0    0  0.00000000000E+00  0.00000000000E+00  0.34996269501E-01  0.35000000000E-01  0.51099999109E-03 0. -1.
       11   -1    0    0    0    0 -0.00000000000E+00 -0.00000000000E+00 -0.34996269501E-01  0.35000000000E-01  0.51099999109E-03 0.  1.
       22    1    1    2    0    0  0.10919501684E-01  0.16669692477E-02  0.32738380186E-01  0.34551640203E-01  0.00000000000E+00 0. -1.
       22    1    1    2    0    0 -0.67811473278E-02 -0.46236428637E-02 -0.23649504185E-01  0.25033199568E-01  0.00000000000E+00 0.  1.
       22    1    1    2    0    0 -0.41383543566E-02  0.29566736160E-02 -0.90888760007E-02  0.10415160230E-01  0.00000000000E+00 0.  1.
</event>
<event>
 5   0  0.4143600E+04  0.9118800E+02  0.7546771E-02  0.1180000E+00
      -11   -1    0    0    0    0  0.00000000000E+00  0.00000000000E+00  0.34996269501E-01  0.35000000000E-01  0.51099999109E-03 0.  1.
       11   -1    0    0    0    0 -0.00000000000E+00 -0.00000000000E+00 -0.34996269501E-01  0.35000000000E-01  0.51099999109E-03 0. -1.
       22    1    1    2    0    0 -0.31842121188E-03 -0.11121588634E-02  0.22334484887E-02  0.25152696788E-02  0.00000000000E+00 0.  1.
       22    1    1    2    0    0  0.14455109845E-01  0.35619473337E-02 -0.31527573291E-01  0.34865822047E-01  0.00000000000E+00 0. -1.
       22    1    1    2    0    0 -0.14136688633E-01 -0.24497884703E-02  0.29294124802E-01  0.32618908274E-01  0.00000000000E+00 0.  1.
</event>
<event>
 5   0  0.4143600E+04  0.9118800E+02  0.7546771E-02  0.1180000E+00
      -11   -1    0    0    0    0  0.00000000000E+00  0.00000000000E+00  0.34996269501E-01  0.35000000000E-01  0.51099999109E-03 0.  1.
       11   -1    0    0    0    0 -0.00000000000E+00 -0.00000000000E+00 -0.34996269501E-01  0.35000000000E-01  0.51099999109E-03 0. -1.
       22    1    1    2    0    0  0.12787502441E-01 -0.12532358883E-02 -0.31615472520E-01  0.34126659982E-01  0.00000000000E+00 0. -1.
       22    1    1    2    0    0 -0.12687003320E-01  0.11423847337E-02  0.32535987440E-01  0.34940743765E-01  0.00000000000E+00 0.  1.
       22    1    1    2    0    0 -0.10049912136E-03  0.11085115462E-03 -0.92051492081E-03  0.93259625311E-03  0.00000000000E+00 0.  1.
</event>
<event>
 5   0  0.4143600E+04  0.9118800E+02  0.7546771E-02  0.1180000E+00
      -11   -1    0    0    0    0  0.00000000000E+00  0.00000000000E+00  0.34996269501E-01  0.35000000000E-01  0.51099999109E-03 0.  1.
       11   -1    0    0    0    0 -0.00000000000E+00 -0.00000000000E+00 -0.34996269501E-01  0.35000000000E-01  0.51099999109E-03 0. -1.
       22    1    1    2    0    0 -0.20426286752E-02  0.20081600720E-02  0.29390804410E-01  0.29530059645E-01  0.00000000000E+00 0.  1.
       22    1    1    2    0    0  0.72822264122E-02  0.70358135038E-02 -0.28184689936E-01  0.29948459726E-01  0.00000000000E+00 0. -1.
       22    1    1    2    0    0 -0.52395977370E-02 -0.90439735757E-02 -0.12061144739E-02  0.10521480628E-01  0.00000000000E+00 0.  1.
</event>
<event>
 5   0  0.4143600E+04  0.9118800E+02  0.7546771E-02  0.1180000E+00
      -11   -1    0    0    0    0  0.00000000000E+00  0.00000000000E+00  0.34996269501E-01  0.35000000000E-01  0.51099999109E-03 0.  1.
       11   -1    0    0    0    0 -0.00000000000E+00 -0.00000000000E+00 -0.34996269501E-01  0.35000000000E-01  0.51099999109E-03 0.  1.
       22    1    1    2    0    0  0.15148050726E-03  0.28918980620E-03  0.31501016743E-01  0.31502708343E-01  0.00000000000E+00 0.  1.
       22    1    1    2    0    0  0.29493108455E-02 -0.10577226744E-01 -0.12254527708E-01  0.16454470803E-01  0.00000000000E+00 0.  1.
       22    1    1    2    0    0 -0.31007913528E-02  0.10288036938E-01 -0.19246489035E-01  0.22042820854E-01  0.00000000000E+00 0. -1.
</event>
<event>
 5   0  0.4143600E+04  0.9118800E+02  0.7546771E-02  0.1180000E+00
      -11   -1    0    0    0    0  0.00000000000E+00  0.00000000000E+00  0.34996269501E-01  0.35000000000E-01  0.51099999109E-03 0. -1.
       11   -1    0    0    0    0 -0.00000000000E+00 -0.00000000000E+00 -0.34996269501E-01  0.35000000000E-01  0.51099999109E-03 0.  1.
       22    1    1    2    0    0  0.45351719672E-02 -0.10097168196E-01 -0.84645245833E-02  0.13934445334E-01  0.00000000000E+00 0.  1.
       22    1    1    2    0    0 -0.11249512169E-01  0.64900291343E-02  0.30284955555E-01  0.32952246284E-01  0.00000000000E+00 0. -1.
       22    1    1    2    0    0  0.67143402018E-02  0.36071390619E-02 -0.21820430972E-01  0.23113308382E-01  0.00000000000E+00 0.  1.
</event>
<event>
 5   0  0.4143600E+04  0.9118800E+02  0.7546771E-02  0.1180000E+00
      -11   -1    0    0    0    0  0.00000000000E+00  0.00000000000E+00  0.34996269501E-01  0.35000000000E-01  0.51099999109E-03 0. -1.
       11   -1    0    0    0    0 -0.00000000000E+00 -0.00000000000E+00 -0.34996269501E-01  0.35000000000E-01  0.51099999109E-03 0.  1.
       22    1    1    2    0    0 -0.42002196892E-02 -0.11034759223E-01  0.31618265591E-01  0.33750888515E-01  0.00000000000E+00 0. -1.
       22    1    1    2    0    0  0.15063799324E-04 -0.12526015530E-03  0.12655781976E-02  0.12718510914E-02  0.00000000000E+00 0.  1.
       22    1    1    2    0    0  0.41851558899E-02  0.11160019378E-01 -0.32883843789E-01  0.34977260394E-01  0.00000000000E+00 0.  1.
</event>
<event>
 5   0  0.4143600E+04  0.9118800E+02  0.7546771E-02  0.1180000E+00
      -11   -1    0    0    0    0  0.00000000000E+00  0.00000000000E+00  0.34996269501E-01  0.35000000000E-01  0.51099999109E-03 0. -1.
       11   -1    0    0    0    0 -0.00000000000E+00 -0.00000000000E+00 -0.34996269501E-01  0.35000000000E-01  0.51099999109E-03 0.  1.
       22    1    1    2    0    0 -0.19704257113E-01 -0.63900412334E-02 -0.25225714428E-01  0.32640879947E-01  0.00000000000E+00 0.  1.
       22    1    1    2    0    0  0.69924096234E-02 -0.33719022104E-02  0.18339304798E-01  0.19914658353E-01  0.00000000000E+00 0.  1.
       22    1    1    2    0    0  0.12711847489E-01  0.97619434438E-02  0.68864096300E-02  0.17444461699E-01  0.00000000000E+00 0. -1.
</event>
<event>
 5   0  0.4143600E+04  0.9118800E+02  0.7546771E-02  0.1180000E+00
      -11   -1    0    0    0    0  0.00000000000E+00  0.00000000000E+00  0.34996269501E-01  0.35000000000E-01  0.51099999109E-03 0. -1.
       11   -1    0    0    0    0 -0.00000000000E+00 -0.00000000000E+00 -0.34996269501E-01  0.35000000000E-01  0.51099999109E-03 0. -1.
       22    1    1    2    0    0 -0.59037065887E-02 -0.84590733241E-02 -0.26539057446E-01  0.28473342676E-01  0.00000000000E+00 0. -1.
       22    1    1    2    0    0  0.59399106796E-02  0.81890024487E-02 -0.40786850006E-02  0.10907702385E-01  0.00000000000E+00 0.  1.
       22    1    1    2    0    0 -0.36204090893E-04  0.27007087535E-03  0.30617742447E-01  0.30618954939E-01  0.00000000000E+00 0. -1.
</event>
<event>
 5   0  0.4143600E+04  0.9118800E+02  0.7546771E-02  0.1180000E+00
      -11   -1    0    0    0    0  0.00000000000E+00  0.00000000000E+00  0.34996269501E-01  0.35000000000E-01  0.51099999109E-03 0.  1.
       11   -1    0    0    0    0 -0.00000000000E+00 -0.00000000000E+00 -0.34996269501E-01  0.35000000000E-01  0.51099999109E-03 0. -1.
       22    1    1    2    0    0  0.23286313548E-02  0.83171571504E-03 -0.31099110398E-01  0.31197258575E-01  0.00000000000E+00 0. -1.
       22    1    1    2    0    0  0.22035060003E-03 -0.77870177452E-03  0.34523777198E-01  0.34533261109E-01  0.00000000000E+00 0.  1.
       22    1    1    2    0    0 -0.25489819548E-02 -0.53013940528E-04 -0.34246667994E-02  0.42694803162E-02  0.00000000000E+00 0. -1.
</event>
<event>
 5   0  0.4143600E+04  0.9118800E+02  0.7546771E-02  0.1180000E+00
      -11   -1    0    0    0    0  0.00000000000E+00  0.00000000000E+00  0.34996269501E-01  0.35000000000E-01  0.51099999109E-03 0.  1.
       11   -1    0    0    0    0 -0.00000000000E+00 -0.00000000000E+00 -0.34996269501E-01  0.35000000000E-01  0.51099999109E-03 0. -1.
       22    1    1    2    0    0 -0.55292115140E-02 -0.18072477486E-01  0.26097508649E-01  0.32222144251E-01  0.00000000000E+00 0.  1.
       22    1    1    2    0    0  0.18949202108E-02 -0.13798772883E-04  0.28674669100E-02  0.34370451687E-02  0.00000000000E+00 0. -1.
       22    1    1    2    0    0  0.36342913032E-02  0.18086276258E-01 -0.28964975559E-01  0.34340810580E-01  0.00000000000E+00 0. -1.
</event>
<event>
 5   0  0.4143600E+04  0.9118800E+02  0.7546771E-02  0.1180000E+00
      -11   -1    0    0    0    0  0.00000000000E+00  0.00000000000E+00  0.34996269501E-01  0.35000000000E-01  0.51099999109E-03 0.  1.
       11   -1    0    0    0    0 -0.00000000000E+00 -0.00000000000E+00 -0.34996269501E-01  0.35000000000E-01  0.51099999109E-03 0. -1.
       22    1    1    2    0    0 -0.75573005816E-02  0.20541514256E-02 -0.84773528089E-02  0.11541136894E-01  0.00000000000E+00 0.  1.
       22    1    1    2    0    0 -0.50830097236E-02  0.86922244435E-02  0.29792310515E-01  0.31447949368E-01  0.00000000000E+00 0.  1.
       22    1    1    2    0    0  0.12640310305E-01 -0.10746375869E-01 -0.21314957706E-01  0.27010913738E-01  0.00000000000E+00 0. -1.
</event>
<event>
 5   0  0.4143600E+04  0.9118800E+02  0.7546771E-02  0.1180000E+00
      -11   -1    0    0    0    0  0.00000000000E+00  0.00000000000E+00  0.34996269501E-01  0.35000000000E-01  0.51099999109E-03 0. -1.
       11   -1    0    0    0    0 -0.00000000000E+00 -0.00000000000E+00 -0.34996269501E-01  0.35000000000E-01  0.51099999109E-03 0.  1.
       22    1    1    2    0    0  0.98509685548E-04 -0.17299855843E-03 -0.35337508665E-03  0.40559414595E-03  0.00000000000E+00 0.  1.
       22    1    1    2    0    0  0.71672605667E-02 -0.28662302257E-02 -0.33735603789E-01  0.34607453861E-01  0.00000000000E+00 0.  1.
       22    1    1    2    0    0 -0.72657702523E-02  0.30392287841E-02  0.34088978876E-01  0.34986951993E-01  0.00000000000E+00 0. -1.
</event>
<event>
 5   0  0.4143600E+04  0.9118800E+02  0.7546771E-02  0.1180000E+00
      -11   -1    0    0    0    0  0.00000000000E+00  0.00000000000E+00  0.34996269501E-01  0.35000000000E-01  0.51099999109E-03 0.  1.
       11   -1    0    0    0    0 -0.00000000000E+00 -0.00000000000E+00 -0.34996269501E-01  0.35000000000E-01  0.51099999109E-03 0. -1.
       22    1    1    2    0    0  0.17132164620E-01 -0.13210394770E-01 -0.27380590660E-01  0.34895878544E-01  0.00000000000E+00 0. -1.
       22    1    1    2    0    0 -0.47833551291E-04 -0.63970323305E-04  0.92471201985E-03  0.92815546680E-03  0.00000000000E+00 0. -1.
       22    1    1    2    0    0 -0.17084331068E-01  0.13274365093E-01  0.26455878640E-01  0.34175965989E-01  0.00000000000E+00 0.  1.
</event>
<event>
 5   0  0.4143600E+04  0.9118800E+02  0.7546771E-02  0.1180000E+00
      -11   -1    0    0    0    0  0.00000000000E+00  0.00000000000E+00  0.34996269501E-01  0.35000000000E-01  0.51099999109E-03 0. -1.
       11   -1    0    0    0    0 -0.00000000000E+00 -0.00000000000E+00 -0.34996269501E-01  0.35000000000E-01  0.51099999109E-03 0.  1.
       22    1    1    2    0    0  0.86120605126E-02  0.20144348127E-02 -0.24793275964E-01  0.26323602849E-01  0.00000000000E+00 0.  1.
       22    1    1    2    0    0 -0.34407791498E-02 -0.70987481917E-02  0.32293746057E-01  0.33243303407E-01  0.00000000000E+00 0. -1.
       22    1    1    2    0    0 -0.51712813629E-02  0.50843133790E-02 -0.75004700922E-02  0.10433093744E-01  0.00000000000E+00 0.  1.
</event>
<event>
 5   0  0.4143600E+04  0.9118800E+02  0.7546771E-02  0.1180000E+00
      -11   -1    0    0    0    0  0.00000000000E+00  0.00000000000E+00  0.34996269501E-01  0.35000000000E-01  0.51099999109E-03 0. -1.
       11   -1    0    0    0    0 -0.00000000000E+00 -0.00000000000E+00 -0.34996269501E-01  0.35000000000E-01  0.51099999109E-03 0.  1.
       22    1    1    2    0    0 -0.16138076623E-01 -0.84303705324E-02 -0.28908281103E-01  0.34164270529E-01  0.00000000000E+00 0.  1.
       22    1    1    2    0    0  0.14971099558E-03 -0.25043270874E-04 -0.93082554529E-03  0.94312074698E-03  0.00000000000E+00 0.  1.
       22    1    1    2    0    0  0.15988365627E-01  0.84554138032E-02  0.29839106649E-01  0.34892608725E-01  0.00000000000E+00 0. -1.
</event>
<event>
 5   0  0.4143600E+04  0.9118800E+02  0.7546771E-02  0.1180000E+00
      -11   -1    0    0    0    0  0.00000000000E+00  0.00000000000E+00  0.34996269501E-01  0.35000000000E-01  0.51099999109E-03 0. -1.
       11   -1    0    0    0    0 -0.00000000000E+00 -0.00000000000E+00 -0.34996269501E-01  0.35000000000E-01  0.51099999109E-03 0.  1.
       22    1    1    2    0    0 -0.70492063694E-04  0.44656313911E-04 -0.18792017223E-02  0.18810535427E-02  0.00000000000E+00 0. -1.
       22    1    1    2    0    0  0.11101411334E-01 -0.13706948749E-01 -0.28215994850E-01  0.33275578778E-01  0.00000000000E+00 0.  1.
       22    1    1    2    0    0 -0.11030919270E-01  0.13662292435E-01  0.30095196572E-01  0.34843367680E-01  0.00000000000E+00 0. -1.
</event>
<event>
 5   0  0.4143600E+04  0.9118800E+02  0.7546771E-02  0.1180000E+00
      -11   -1    0    0    0    0  0.00000000000E+00  0.00000000000E+00  0.34996269501E-01  0.35000000000E-01  0.51099999109E-03 0.  1.
       11   -1    0    0    0    0 -0.00000000000E+00 -0.00000000000E+00 -0.34996269501E-01  0.35000000000E-01  0.51099999109E-03 0. -1.
       22    1    1    2    0    0 -0.58496526213E-02  0.39274755316E-02 -0.26791061401E-01  0.27702066184E-01  0.00000000000E+00 0. -1.
       22    1    1    2    0    0 -0.45839400096E-02 -0.30847212414E-02 -0.58337732673E-02  0.80349811252E-02  0.00000000000E+00 0. -1.
       22    1    1    2    0    0  0.10433592631E-01 -0.84275429023E-03  0.32624834668E-01  0.34262952691E-01  0.00000000000E+00 0.  1.
</event>
<event>
 5   0  0.4143600E+04  0.9118800E+02  0.7546771E-02  0.1180000E+00
      -11   -1    0    0    0    0  0.00000000000E+00  0.00000000000E+00  0.34996269501E-01  0.35000000000E-01  0.51099999109E-03 0.  1.
       11   -1    0    0    0    0 -0.00000000000E+00 -0.00000000000E+00 -0.34996269501E-01  0.35000000000E-01  0.51099999109E-03 0.  1.
       22    1    1    2    0    0  0.42877650377E-02  0.40835269185E-02  0.34241165887E-01  0.34749353410E-01  0.00000000000E+00 0.  1.
       22    1    1    2    0    0  0.13421932968E-03 -0.35011424616E-03 -0.18090984854E-01  0.18094870207E-01  0.00000000000E+00 0.  1.
       22    1    1    2    0    0 -0.44219843674E-02 -0.37334126723E-02 -0.16150181032E-01  0.17155776383E-01  0.00000000000E+00 0. -1.
</event>
<event>
 5   0  0.4143600E+04  0.9118800E+02  0.7546771E-02  0.1180000E+00
      -11   -1    0    0    0    0  0.00000000000E+00  0.00000000000E+00  0.34996269501E-01  0.35000000000E-01  0.51099999109E-03 0. -1.
       11   -1    0    0    0    0 -0.00000000000E+00 -0.00000000000E+00 -0.34996269501E-01  0.35000000000E-01  0.51099999109E-03 0.  1.
       22    1    1    2    0    0 -0.40565258933E-02 -0.76817954313E-02  0.32672330636E-01  0.33807492846E-01  0.00000000000E+00 0. -1.
       22    1    1    2    0    0  0.28415519745E-02 -0.56011633368E-03 -0.23973460554E-01  0.24147773373E-01  0.00000000000E+00 0.  1.
       22    1    1    2    0    0  0.12149739188E-02  0.82419117650E-02 -0.86988700818E-02  0.12044733781E-01  0.00000000000E+00 0.  1.
</event>
<event>
 5   0  0.4143600E+04  0.9118800E+02  0.7546771E-02  0.1180000E+00
      -11   -1    0    0    0    0  0.00000000000E+00  0.00000000000E+00  0.34996269501E-01  0.35000000000E-01  0.51099999109E-03 0.  1.
       11   -1    0    0    0    0 -0.00000000000E+00 -0.00000000000E+00 -0.34996269501E-01  0.35000000000E-01  0.51099999109E-03 0. -1.
       22    1    1    2    0    0  0.61026252021E-03 -0.64064085569E-03  0.34943854736E-01  0.34955054354E-01  0.00000000000E+00 0.  1.
       22    1    1    2    0    0 -0.36330459423E-03  0.30062571501E-03 -0.34090187601E-01  0.34093448883E-01  0.00000000000E+00 0. -1.
       22    1    1    2    0    0 -0.24695792598E-03  0.34001514068E-03 -0.85366713526E-03  0.95149676349E-03  0.00000000000E+00 0. -1.
</event>
<event>
 5   0  0.4143600E+04  0.9118800E+02  0.7546771E-02  0.1180000E+00
      -11   -1    0    0    0    0  0.00000000000E+00  0.00000000000E+00  0.34996269501E-01  0.35000000000E-01  0.51099999109E-03 0. -1.
       11   -1    0    0    0    0 -0.00000000000E+00 -0.00000000000E+00 -0.34996269501E-01  0.35000000000E-01  0.51099999109E-03 0.  1.
       22    1    1    2    0    0  0.51226782342E-03 -0.67089573587E-02 -0.11809902672E-02  0.68313443168E-02  0.00000000000E+00 0. -1.
       22    1    1    2    0    0 -0.39456366925E-02 -0.13101905550E-01  0.27104107416E-01  0.30362157643E-01  0.00000000000E+00 0. -1.
       22    1    1    2    0    0  0.34333688691E-02  0.19810862908E-01 -0.25923117149E-01  0.32806498040E-01  0.00000000000E+00 0.  1.
</event>
<event>
 5   0  0.4143600E+04  0.9118800E+02  0.7546771E-02  0.1180000E+00
      -11   -1    0    0    0    0  0.00000000000E+00  0.00000000000E+00  0.34996269501E-01  0.35000000000E-01  0.51099999109E-03 0. -1.
       11   -1    0    0    0    0 -0.00000000000E+00 -0.00000000000E+00 -0.34996269501E-01  0.35000000000E-01  0.51099999109E-03 0. -1.
       22    1    1    2    0    0 -0.00000000000E+00  0.00000000000E+00  0.34975828202E-01  0.34972170560E-01  0.00000000000E+00 0. -1.
       22    1    1    2    0    0  0.55385126566E-05  0.21650301920E-03 -0.34544532199E-01  0.34545211088E-01  0.00000000000E+00 0. -1.
       22    1    1    2    0    0 -0.55385126566E-05 -0.21650301920E-03 -0.43129600234E-03  0.48261835241E-03  0.00000000000E+00 0. -1.
</event>
<event>
 5   0  0.4143600E+04  0.9118800E+02  0.7546771E-02  0.1180000E+00
      -11   -1    0    0    0    0  0.00000000000E+00  0.00000000000E+00  0.34996269501E-01  0.35000000000E-01  0.51099999109E-03 0.  1.
       11   -1    0    0    0    0 -0.00000000000E+00 -0.00000000000E+00 -0.34996269501E-01  0.35000000000E-01  0.51099999109E-03 0. -1.
       22    1    1    2    0    0 -0.74808592658E-03 -0.75344902592E-03  0.88880655717E-02  0.89512584364E-02  0.00000000000E+00 0.  1.
       22    1    1    2    0    0 -0.18523784670E-01  0.10542279639E-01  0.17043198136E-01  0.27289940659E-01  0.00000000000E+00 0.  1.
       22    1    1    2    0    0  0.19271870596E-01 -0.97888306135E-02 -0.25931263707E-01  0.33758800905E-01  0.00000000000E+00 0. -1.
</event>
<event>
 5   0  0.4143600E+04  0.9118800E+02  0.7546771E-02  0.1180000E+00
      -11   -1    0    0    0    0  0.00000000000E+00  0.00000000000E+00  0.34996269501E-01  0.35000000000E-01  0.51099999109E-03 0. -1.
       11   -1    0    0    0    0 -0.00000000000E+00 -0.00000000000E+00 -0.34996269501E-01  0.35000000000E-01  0.51099999109E-03 0.  1.
       22    1    1    2    0    0  0.67438378893E-03 -0.14862331228E-02 -0.14470711213E-01  0.14562457396E-01  0.00000000000E+00 0.  1.
       22    1    1    2    0    0  0.61862638895E-02 -0.36446338459E-02 -0.19302521778E-01  0.20594673189E-01  0.00000000000E+00 0.  1.
       22    1    1    2    0    0 -0.68606476784E-02  0.51308669686E-02  0.33773232991E-01  0.34842869415E-01  0.00000000000E+00 0. -1.
</event>
<event>
 5   0  0.4143600E+04  0.9118800E+02  0.7546771E-02  0.1180000E+00
      -11   -1    0    0    0    0  0.00000000000E+00  0.00000000000E+00  0.34996269501E-01  0.35000000000E-01  0.51099999109E-03 0. -1.
       11   -1    0    0    0    0 -0.00000000000E+00 -0.00000000000E+00 -0.34996269501E-01  0.35000000000E-01  0.51099999109E-03 0.  1.
       22    1    1    2    0    0 -0.25075357331E-02  0.15346019907E-02  0.11850397610E-01  0.12209613517E-01  0.00000000000E+00 0. -1.
       22    1    1    2    0    0 -0.19163591613E-01 -0.64787971003E-02  0.13311916097E-01  0.24216216995E-01  0.00000000000E+00 0. -1.
       22    1    1    2    0    0  0.21671127346E-01  0.49441951097E-02 -0.25162313707E-01  0.33574169488E-01  0.00000000000E+00 0.  1.
</event>
<event>
 5   0  0.4143600E+04  0.9118800E+02  0.7546771E-02  0.1180000E+00
      -11   -1    0    0    0    0  0.00000000000E+00  0.00000000000E+00  0.34996269501E-01  0.35000000000E-01  0.51099999109E-03 0. -1.
       11   -1    0    0    0    0 -0.00000000000E+00 -0.00000000000E+00 -0.34996269501E-01  0.35000000000E-01  0.51099999109E-03 0.  1.
       22    1    1    2    0    0 -0.51100811818E-02  0.23567199471E-01 -0.25140343915E-01  0.34836227017E-01  0.00000000000E+00 0.  1.
       22    1    1    2    0    0  0.65199029231E-03 -0.54918633798E-04  0.64903017619E-03  0.92160054645E-03  0.00000000000E+00 0. -1.
       22    1    1    2    0    0  0.44580908895E-02 -0.23512280837E-01  0.24491313739E-01  0.34242172437E-01  0.00000000000E+00 0. -1.
</event>
<event>
 5   0  0.4143600E+04  0.9118800E+02  0.7546771E-02  0.1180000E+00
      -11   -1    0    0    0    0  0.00000000000E+00  0.00000000000E+00  0.34996269501E-01  0.35000000000E-01  0.51099999109E-03 0.  1.
       11   -1    0    0    0    0 -0.00000000000E+00 -0.00000000000E+00 -0.34996269501E-01  0.35000000000E-01  0.51099999109E-03 0. -1.
       22    1    1    2    0    0  0.35207363515E-03  0.22566322730E-03  0.11350970348E-02  0.12096797159E-02  0.00000000000E+00 0.  1.
       22    1    1    2    0    0  0.80384506263E-02 -0.15704396147E-01  0.28967434827E-01  0.33916913587E-01  0.00000000000E+00 0.  1.
       22    1    1    2    0    0 -0.83905242614E-02  0.15478732920E-01 -0.30102531862E-01  0.34873406697E-01  0.00000000000E+00 0. -1.
</event>
<event>
 5   0  0.4143600E+04  0.9118800E+02  0.7546771E-02  0.1180000E+00
      -11   -1    0    0    0    0  0.00000000000E+00  0.00000000000E+00  0.34996269501E-01  0.35000000000E-01  0.51099999109E-03 0.  1.
       11   -1    0    0    0    0 -0.00000000000E+00 -0.00000000000E+00 -0.34996269501E-01  0.35000000000E-01  0.51099999109E-03 0. -1.
       22    1    1    2    0    0 -0.13554821853E-01  0.89837696441E-03 -0.32136029261E-01  0.34889320046E-01  0.00000000000E+00 0. -1.
       22    1    1    2    0    0  0.13832750940E-01 -0.86827158278E-03  0.31377677602E-01  0.34302442272E-01  0.00000000000E+00 0.  1.
       22    1    1    2    0    0 -0.27792908751E-03 -0.30105381628E-04  0.75835165871E-03  0.80823768160E-03  0.00000000000E+00 0. -1.
</event>
<event>
 5   0  0.4143600E+04  0.9118800E+02  0.7546771E-02  0.1180000E+00
      -11   -1    0    0    0    0  0.00000000000E+00  0.00000000000E+00  0.34996269501E-01  0.35000000000E-01  0.51099999109E-03 0.  1.
       11   -1    0    0    0    0 -0.00000000000E+00 -0.00000000000E+00 -0.34996269501E-01  0.35000000000E-01  0.51099999109E-03 0. -1.
       22    1    1    2    0    0  0.50231871150E-02  0.92861885170E-02 -0.16644700145E-01  0.19710701380E-01  0.00000000000E+00 0. -1.
       22    1    1    2    0    0 -0.54098110144E-02 -0.82569855700E-02 -0.15363913025E-01  0.18261809586E-01  0.00000000000E+00 0.  1.
       22    1    1    2    0    0  0.38662389936E-03 -0.10292029470E-02  0.32008613170E-01  0.32027489034E-01  0.00000000000E+00 0.  1.
</event>
<event>
 5   0  0.4143600E+04  0.9118800E+02  0.7546771E-02  0.1180000E+00
      -11   -1    0    0    0    0  0.00000000000E+00  0.00000000000E+00  0.34996269501E-01  0.35000000000E-01  0.51099999109E-03 0.  1.
       11   -1    0    0    0    0 -0.00000000000E+00 -0.00000000000E+00 -0.34996269501E-01  0.35000000000E-01  0.51099999109E-03 0. -1.
       22    1    1    2    0    0  0.12348144262E-01 -0.83072727050E-02 -0.31198933769E-01  0.34566760259E-01  0.00000000000E+00 0. -1.
       22    1    1    2    0    0 -0.11454565553E-01  0.91676282149E-02  0.30823732627E-01  0.34137295911E-01  0.00000000000E+00 0.  1.
       22    1    1    2    0    0 -0.89357870901E-03 -0.86035550996E-03  0.37520114195E-03  0.12959438297E-02  0.00000000000E+00 0.  1.
</event>
<event>
 5   0  0.4143600E+04  0.9118800E+02  0.7546771E-02  0.1180000E+00
      -11   -1    0    0    0    0  0.00000000000E+00  0.00000000000E+00  0.34996269501E-01  0.35000000000E-01  0.51099999109E-03 0. -1.
       11   -1    0    0    0    0 -0.00000000000E+00 -0.00000000000E+00 -0.34996269501E-01  0.35000000000E-01  0.51099999109E-03 0.  1.
       22    1    1    2    0    0 -0.44431963165E-03 -0.30683324181E-03  0.30457737020E-01  0.30462523056E-01  0.00000000000E+00 0. -1.
       22    1    1    2    0    0  0.24309873036E-02 -0.10572740045E-01 -0.53376753212E-02  0.12090628981E-01  0.00000000000E+00 0. -1.
       22    1    1    2    0    0 -0.19866676720E-02  0.10879573286E-01 -0.25120061699E-01  0.27446847963E-01  0.00000000000E+00 0.  1.
</event>
<event>
 5   0  0.4143600E+04  0.9118800E+02  0.7546771E-02  0.1180000E+00
      -11   -1    0    0    0    0  0.00000000000E+00  0.00000000000E+00  0.34996269501E-01  0.35000000000E-01  0.51099999109E-03 0.  1.
       11   -1    0    0    0    0 -0.00000000000E+00 -0.00000000000E+00 -0.34996269501E-01  0.35000000000E-01  0.51099999109E-03 0. -1.
       22    1    1    2    0    0 -0.18622578181E-01  0.37292430620E-02  0.29180733882E-01  0.34816991568E-01  0.00000000000E+00 0.  1.
       22    1    1    2    0    0  0.18908380318E-01 -0.39036985242E-02 -0.28495380423E-01  0.34420232624E-01  0.00000000000E+00 0. -1.
       22    1    1    2    0    0 -0.28580213745E-03  0.17445546222E-03 -0.68535345878E-03  0.76277580817E-03  0.00000000000E+00 0. -1.
</event>
<event>
 5   0  0.4143600E+04  0.9118800E+02  0.7546771E-02  0.1180000E+00
      -11   -1    0    0    0    0  0.00000000000E+00  0.00000000000E+00  0.34996269501E-01  0.35000000000E-01  0.51099999109E-03 0. -1.
       11   -1    0    0    0    0 -0.00000000000E+00 -0.00000000000E+00 -0.34996269501E-01  0.35000000000E-01  0.51099999109E-03 0.  1.
       22    1    1    2    0    0  0.16153657770E-02 -0.11104339519E-02 -0.13084704750E-02  0.23568124955E-02  0.00000000000E+00 0. -1.
       22    1    1    2    0    0 -0.13558718780E-01  0.13295055298E-01 -0.27939832750E-01  0.33782119597E-01  0.00000000000E+00 0.  1.
       22    1    1    2    0    0  0.11943353003E-01 -0.12184621346E-01  0.29248303225E-01  0.33861067908E-01  0.00000000000E+00 0. -1.
</event>
<event>
 5   0  0.4143600E+04  0.9118800E+02  0.7546771E-02  0.1180000E+00
      -11   -1    0    0    0    0  0.00000000000E+00  0.00000000000E+00  0.34996269501E-01  0.35000000000E-01  0.51099999109E-03 0. -1.
       11   -1    0    0    0    0 -0.00000000000E+00 -0.00000000000E+00 -0.34996269501E-01  0.35000000000E-01  0.51099999109E-03 0.  1.
       22    1    1    2    0    0 -0.14906930898E-01 -0.12310794323E-01 -0.28776825522E-01  0.34668111180E-01  0.00000000000E+00 0.  1.
       22    1    1    2    0    0  0.60640569455E-02  0.10061159279E-02  0.85426892799E-02  0.10524381028E-01  0.00000000000E+00 0. -1.
       22    1    1    2    0    0  0.88428739527E-02  0.11304678395E-01  0.20234136242E-01  0.24807507791E-01  0.00000000000E+00 0. -1.
</event>
<event>
 5   0  0.4143600E+04  0.9118800E+02  0.7546771E-02  0.1180000E+00
      -11   -1    0    0    0    0  0.00000000000E+00  0.00000000000E+00  0.34996269501E-01  0.35000000000E-01  0.51099999109E-03 0.  1.
       11   -1    0    0    0    0 -0.00000000000E+00 -0.00000000000E+00 -0.34996269501E-01  0.35000000000E-01  0.51099999109E-03 0. -1.
       22    1    1    2    0    0  0.17980321711E-02  0.22302522644E-02 -0.93669831509E-03  0.30140253126E-02  0.00000000000E+00 0. -1.
       22    1    1    2    0    0  0.16290276465E-01 -0.39930280489E-02 -0.28103322235E-01  0.32727879567E-01  0.00000000000E+00 0. -1.
       22    1    1    2    0    0 -0.18088308636E-01  0.17627757846E-02  0.29040020550E-01  0.34258095121E-01  0.00000000000E+00 0.  1.
</event>
<event>
 5   0  0.4143600E+04  0.9118800E+02  0.7546771E-02  0.1180000E+00
      -11   -1    0    0    0    0  0.00000000000E+00  0.00000000000E+00  0.34996269501E-01  0.35000000000E-01  0.51099999109E-03 0. -1.
       11   -1    0    0    0    0 -0.00000000000E+00 -0.00000000000E+00 -0.34996269501E-01  0.35000000000E-01  0.51099999109E-03 0.  1.
       22    1    1    2    0    0  0.17177270703E-01 -0.99827191986E-02 -0.62767825783E-02  0.20835338033E-01  0.00000000000E+00 0.  1.
       22    1    1    2    0    0 -0.21280743952E-01  0.53511615878E-02  0.22725578650E-01  0.31590456130E-01  0.00000000000E+00 0. -1.
       22    1    1    2    0    0  0.41034732491E-02  0.46315576108E-02 -0.16448796072E-01  0.17574205837E-01  0.00000000000E+00 0.  1.
</event>
<event>
 5   0  0.4143600E+04  0.9118800E+02  0.7546771E-02  0.1180000E+00
      -11   -1    0    0    0    0  0.00000000000E+00  0.00000000000E+00  0.34996269501E-01  0.35000000000E-01  0.51099999109E-03 0. -1.
       11   -1    0    0    0    0 -0.00000000000E+00 -0.00000000000E+00 -0.34996269501E-01  0.35000000000E-01  0.51099999109E-03 0.  1.
       22    1    1    2    0    0  0.32022023477E-02  0.14038548054E-01  0.29327772217E-01  0.32671901606E-01  0.00000000000E+00 0. -1.
       22    1    1    2    0    0 -0.24777871481E-02 -0.13119994938E-01 -0.31856749786E-01  0.34541658954E-01  0.00000000000E+00 0.  1.
       22    1    1    2    0    0 -0.72441519968E-03 -0.91855311512E-03  0.25289775692E-02  0.27864394400E-02  0.00000000000E+00 0. -1.
</event>
<event>
 5   0  0.4143600E+04  0.9118800E+02  0.7546771E-02  0.1180000E+00
      -11   -1    0    0    0    0  0.00000000000E+00  0.00000000000E+00  0.34996269501E-01  0.35000000000E-01  0.51099999109E-03 0.  1.
       11   -1    0    0    0    0 -0.00000000000E+00 -0.00000000000E+00 -0.34996269501E-01  0.35000000000E-01  0.51099999109E-03 0. -1.
       22    1    1    2    0    0  0.15884341922E-02  0.36114968015E-03  0.23412698058E-01  0.23469298724E-01  0.00000000000E+00 0.  1.
       22    1    1    2    0    0  0.12613008504E-01  0.41990612125E-02 -0.27941522355E-01  0.30942669085E-01  0.00000000000E+00 0.  1.
       22    1    1    2    0    0 -0.14201442697E-01 -0.45602108926E-02  0.45288242975E-02  0.15588032190E-01  0.00000000000E+00 0. -1.
</event>
<event>
 5   0  0.4143600E+04  0.9118800E+02  0.7546771E-02  0.1180000E+00
      -11   -1    0    0    0    0  0.00000000000E+00  0.00000000000E+00  0.34996269501E-01  0.35000000000E-01  0.51099999109E-03 0.  1.
       11   -1    0    0    0    0 -0.00000000000E+00 -0.00000000000E+00 -0.34996269501E-01  0.35000000000E-01  0.51099999109E-03 0. -1.
       22    1    1    2    0    0 -0.36755529097E-02 -0.10808369926E-01 -0.32582252045E-01  0.34524392796E-01  0.00000000000E+00 0. -1.
       22    1    1    2    0    0  0.19499992552E-03 -0.77508513640E-04 -0.46380930242E-03  0.50906935643E-03  0.00000000000E+00 0.  1.
       22    1    1    2    0    0  0.34805529841E-02  0.10885878440E-01  0.33046061347E-01  0.34966537847E-01  0.00000000000E+00 0.  1.
</event>
<event>
 5   0  0.4143600E+04  0.9118800E+02  0.7546771E-02  0.1180000E+00
      -11   -1    0    0    0    0  0.00000000000E+00  0.00000000000E+00  0.34996269501E-01  0.35000000000E-01  0.51099999109E-03 0. -1.
       11   -1    0    0    0    0 -0.00000000000E+00 -0.00000000000E+00 -0.34996269501E-01  0.35000000000E-01  0.51099999109E-03 0.  1.
       22    1    1    2    0    0  0.20427076090E-02 -0.20550112783E-01  0.27580917661E-01  0.34455577325E-01  0.00000000000E+00 0. -1.
       22    1    1    2    0    0 -0.14051926744E-02  0.66887775834E-03 -0.21624312186E-04  0.15564162421E-02  0.00000000000E+00 0.  1.
       22    1    1    2    0    0 -0.63751493461E-03  0.19881235025E-01 -0.27559293349E-01  0.33988006433E-01  0.00000000000E+00 0.  1.
</event>
<event>
 5   0  0.4143600E+04  0.9118800E+02  0.7546771E-02  0.1180000E+00
      -11   -1    0    0    0    0  0.00000000000E+00  0.00000000000E+00  0.34996269501E-01  0.35000000000E-01  0.51099999109E-03 0.  1.
       11   -1    0    0    0    0 -0.00000000000E+00 -0.00000000000E+00 -0.34996269501E-01  0.35000000000E-01  0.51099999109E-03 0. -1.
       22    1    1    2    0    0 -0.25700611535E-02  0.15575905514E-02  0.34815498965E-01  0.34944960593E-01  0.00000000000E+00 0.  1.
       22    1    1    2    0    0  0.28185997985E-02 -0.16889791633E-02 -0.34380082940E-01  0.34536752285E-01  0.00000000000E+00 0. -1.
       22    1    1    2    0    0 -0.24853864506E-03  0.13138861185E-03 -0.43541602562E-03  0.51828712195E-03  0.00000000000E+00 0.  1.
</event>
<event>
 5   0  0.4143600E+04  0.9118800E+02  0.7546771E-02  0.1180000E+00
      -11   -1    0    0    0    0  0.00000000000E+00  0.00000000000E+00  0.34996269501E-01  0.35000000000E-01  0.51099999109E-03 0.  1.
       11   -1    0    0    0    0 -0.00000000000E+00 -0.00000000000E+00 -0.34996269501E-01  0.35000000000E-01  0.51099999109E-03 0. -1.
       22    1    1    2    0    0 -0.20671017178E-02  0.24723018690E-03  0.34518532837E-01  0.34581254192E-01  0.00000000000E+00 0.  1.
       22    1    1    2    0    0 -0.22255821844E-04 -0.12230079700E-02 -0.31924517159E-01  0.31947942651E-01  0.00000000000E+00 0. -1.
       22    1    1    2    0    0  0.20893575397E-02  0.97577778308E-03 -0.25940156787E-02  0.34708031566E-02  0.00000000000E+00 0. -1.
</event>
<event>
 5   0  0.4143600E+04  0.9118800E+02  0.7546771E-02  0.1180000E+00
      -11   -1    0    0    0    0  0.00000000000E+00  0.00000000000E+00  0.34996269501E-01  0.35000000000E-01  0.51099999109E-03 0. -1.
       11   -1    0    0    0    0 -0.00000000000E+00 -0.00000000000E+00 -0.34996269501E-01  0.35000000000E-01  0.51099999109E-03 0.  1.
       22    1    1    2    0    0  0.12301218611E-01  0.74475655350E-02  0.30279576283E-01  0.33520724211E-01  0.00000000000E+00 0. -1.
       22    1    1    2    0    0 -0.12445306694E-01 -0.71805159965E-02 -0.31817713358E-01  0.34911493122E-01  0.00000000000E+00 0.  1.
       22    1    1    2    0    0  0.14408808340E-03 -0.26704953847E-03  0.15381370745E-02  0.15677826672E-02  0.00000000000E+00 0. -1.
</event>
<event>
 5   0  0.4143600E+04  0.9118800E+02  0.7546771E-02  0.1180000E+00
      -11   -1    0    0    0    0  0.00000000000E+00  0.00000000000E+00  0.34996269501E-01  0.35000000000E-01  0.51099999109E-03 0. -1.
       11   -1    0    0    0    0 -0.00000000000E+00 -0.00000000000E+00 -0.34996269501E-01  0.35000000000E-01  0.51099999109E-03 0.  1.
       22    1    1    2    0    0 -0.13184987298E-02 -0.24384112366E-02 -0.28802765611E-02  0.39975344060E-02  0.00000000000E+00 0. -1.
       22    1    1    2    0    0  0.23231314406E-02 -0.25278219755E-03 -0.31457783099E-01  0.31544459990E-01  0.00000000000E+00 0.  1.
       22    1    1    2    0    0 -0.10046327108E-02  0.26911934341E-02  0.34338059660E-01  0.34458005604E-01  0.00000000000E+00 0. -1.
</event>
<event>
 5   0  0.4143600E+04  0.9118800E+02  0.7546771E-02  0.1180000E+00
      -11   -1    0    0    0    0  0.00000000000E+00  0.00000000000E+00  0.34996269501E-01  0.35000000000E-01  0.51099999109E-03 0. -1.
       11   -1    0    0    0    0 -0.00000000000E+00 -0.00000000000E+00 -0.34996269501E-01  0.35000000000E-01  0.51099999109E-03 0.  1.
       22    1    1    2    0    0 -0.35129640606E-02 -0.27893721318E-02 -0.32455557494E-01  0.32764076755E-01  0.00000000000E+00 0.  1.
       22    1    1    2    0    0  0.21517818202E-02  0.22671230933E-02  0.34546097123E-01  0.34687214338E-01  0.00000000000E+00 0. -1.
       22    1    1    2    0    0  0.13611822405E-02  0.52224903840E-03 -0.20905396287E-02  0.25487089063E-02  0.00000000000E+00 0. -1.
</event>
<event>
 5   0  0.4143600E+04  0.9118800E+02  0.7546771E-02  0.1180000E+00
      -11   -1    0    0    0    0  0.00000000000E+00  0.00000000000E+00  0.34996269501E-01  0.35000000000E-01  0.51099999109E-03 0.  1.
       11   -1    0    0    0    0 -0.00000000000E+00 -0.00000000000E+00 -0.34996269501E-01  0.35000000000E-01  0.51099999109E-03 0. -1.
       22    1    1    2    0    0  0.53366297328E-02 -0.18282672675E-01 -0.22137547626E-01  0.29202855202E-01  0.00000000000E+00 0. -1.
       22    1    1    2    0    0  0.17496892132E-02 -0.45590919130E-03 -0.59942166128E-02  0.62609822181E-02  0.00000000000E+00 0. -1.
       22    1    1    2    0    0 -0.70863189460E-02  0.18738581866E-01  0.28131764239E-01  0.34536162580E-01  0.00000000000E+00 0.  1.
</event>
<event>
 5   0  0.4143600E+04  0.9118800E+02  0.7546771E-02  0.1180000E+00
      -11   -1    0    0    0    0  0.00000000000E+00  0.00000000000E+00  0.34996269501E-01  0.35000000000E-01  0.51099999109E-03 0. -1.
       11   -1    0    0    0    0 -0.00000000000E+00 -0.00000000000E+00 -0.34996269501E-01  0.35000000000E-01  0.51099999109E-03 0.  1.
       22    1    1    2    0    0  0.74507533399E-02  0.11155245550E-01  0.31487139739E-01  0.34225621946E-01  0.00000000000E+00 0. -1.
       22    1    1    2    0    0 -0.47916501781E-02 -0.86685908793E-02 -0.10349021730E-01  0.14325035080E-01  0.00000000000E+00 0.  1.
       22    1    1    2    0    0 -0.26591031617E-02 -0.24866546704E-02 -0.21138118009E-01  0.21449342974E-01  0.00000000000E+00 0.  1.
</event>
<event>
 5   0  0.4143600E+04  0.9118800E+02  0.7546771E-02  0.1180000E+00
      -11   -1    0    0    0    0  0.00000000000E+00  0.00000000000E+00  0.34996269501E-01  0.35000000000E-01  0.51099999109E-03 0.  1.
       11   -1    0    0    0    0 -0.00000000000E+00 -0.00000000000E+00 -0.34996269501E-01  0.35000000000E-01  0.51099999109E-03 0. -1.
       22    1    1    2    0    0  0.13421762785E-03  0.88032067341E-04  0.18201708772E-02  0.18272345331E-02  0.00000000000E+00 0. -1.
       22    1    1    2    0    0  0.41012996130E-02 -0.14643270556E-01 -0.31425888111E-01  0.34911781316E-01  0.00000000000E+00 0. -1.
       22    1    1    2    0    0 -0.42355172409E-02  0.14555238489E-01  0.29605717234E-01  0.33260984151E-01  0.00000000000E+00 0.  1.
</event>
<event>
 5   0  0.4143600E+04  0.9118800E+02  0.7546771E-02  0.1180000E+00
      -11   -1    0    0    0    0  0.00000000000E+00  0.00000000000E+00  0.34996269501E-01  0.35000000000E-01  0.51099999109E-03 0. -1.
       11   -1    0    0    0    0 -0.00000000000E+00 -0.00000000000E+00 -0.34996269501E-01  0.35000000000E-01  0.51099999109E-03 0.  1.
       22    1    1    2    0    0 -0.54249313953E-02  0.16546284783E-01 -0.29911272395E-01  0.34610600068E-01  0.00000000000E+00 0.  1.
       22    1    1    2    0    0  0.13712016247E-03  0.72173594326E-04 -0.39463016833E-03  0.42396218750E-03  0.00000000000E+00 0.  1.
       22    1    1    2    0    0  0.52878112328E-02 -0.16618458377E-01  0.30305902564E-01  0.34965437745E-01  0.00000000000E+00 0. -1.
</event>
<event>
 5   0  0.4143600E+04  0.9118800E+02  0.7546771E-02  0.1180000E+00
      -11   -1    0    0    0    0  0.00000000000E+00  0.00000000000E+00  0.34996269501E-01  0.35000000000E-01  0.51099999109E-03 0.  1.
       11   -1    0    0    0    0 -0.00000000000E+00 -0.00000000000E+00 -0.34996269501E-01  0.35000000000E-01  0.51099999109E-03 0. -1.
       22    1    1    2    0    0  0.16558056738E-02 -0.11702345041E-02  0.60956258277E-02  0.64240015143E-02  0.00000000000E+00 0.  1.
       22    1    1    2    0    0  0.12926692416E-01 -0.87136984202E-02 -0.30043036857E-01  0.33846890265E-01  0.00000000000E+00 0. -1.
       22    1    1    2    0    0 -0.14582498090E-01  0.98839329244E-02  0.23947411030E-01  0.29729108221E-01  0.00000000000E+00 0.  1.
</event>
<event>
 5   0  0.4143600E+04  0.9118800E+02  0.7546771E-02  0.1180000E+00
      -11   -1    0    0    0    0  0.00000000000E+00  0.00000000000E+00  0.34996269501E-01  0.35000000000E-01  0.51099999109E-03 0.  1.
       11   -1    0    0    0    0 -0.00000000000E+00 -0.00000000000E+00 -0.34996269501E-01  0.35000000000E-01  0.51099999109E-03 0. -1.
       22    1    1    2    0    0  0.63455814953E-03 -0.51377531513E-03 -0.34375376627E-01  0.34385071577E-01  0.00000000000E+00 0. -1.
       22    1    1    2    0    0 -0.24651326366E-03  0.70811300915E-03  0.34914657473E-01  0.34922707502E-01  0.00000000000E+00 0.  1.
       22    1    1    2    0    0 -0.38804488587E-03 -0.19433769402E-03 -0.53928084606E-03  0.69222092116E-03  0.00000000000E+00 0.  1.
</event>
<event>
 5   0  0.4143600E+04  0.9118800E+02  0.7546771E-02  0.1180000E+00
      -11   -1    0    0    0    0  0.00000000000E+00  0.00000000000E+00  0.34996269501E-01  0.35000000000E-01  0.51099999109E-03 0. -1.
       11   -1    0    0    0    0 -0.00000000000E+00 -0.00000000000E+00 -0.34996269501E-01  0.35000000000E-01  0.51099999109E-03 0.  1.
       22    1    1    2    0    0 -0.15877605951E-02 -0.19974528789E-02 -0.16590655069E-01  0.16785727191E-01  0.00000000000E+00 0.  1.
       22    1    1    2    0    0 -0.40391217132E-02  0.53731102883E-02  0.33974572024E-01  0.34633168532E-01  0.00000000000E+00 0. -1.
       22    1    1    2    0    0  0.56268823083E-02 -0.33756574094E-02 -0.17383916955E-01  0.18581104277E-01  0.00000000000E+00 0.  1.
</event>
<event>
 5   0  0.4143600E+04  0.9118800E+02  0.7546771E-02  0.1180000E+00
      -11   -1    0    0    0    0  0.00000000000E+00  0.00000000000E+00  0.34996269501E-01  0.35000000000E-01  0.51099999109E-03 0.  1.
       11   -1    0    0    0    0 -0.00000000000E+00 -0.00000000000E+00 -0.34996269501E-01  0.35000000000E-01  0.51099999109E-03 0. -1.
       22    1    1    2    0    0 -0.27048805859E-04  0.30380641152E-04  0.14083989254E-02  0.14089862151E-02  0.00000000000E+00 0.  1.
       22    1    1    2    0    0  0.16916581557E-01 -0.70353768300E-02 -0.29705155696E-01  0.34900766949E-01  0.00000000000E+00 0. -1.
       22    1    1    2    0    0 -0.16889532751E-01  0.70049961888E-02  0.28296756770E-01  0.33690246836E-01  0.00000000000E+00 0.  1.
</event>
<event>
 5   0  0.4143600E+04  0.9118800E+02  0.7546771E-02  0.1180000E+00
      -11   -1    0    0    0    0  0.00000000000E+00  0.00000000000E+00  0.34996269501E-01  0.35000000000E-01  0.51099999109E-03 0.  1.
       11   -1    0    0    0    0 -0.00000000000E+00 -0.00000000000E+00 -0.34996269501E-01  0.35000000000E-01  0.51099999109E-03 0. -1.
       22    1    1    2    0    0 -0.16024125252E-01 -0.30455538280E-01  0.54610378303E-02  0.34844444840E-01  0.00000000000E+00 0.  1.
       22    1    1    2    0    0  0.17700347610E-03 -0.36372764060E-04 -0.37619101417E-03  0.41734025406E-03  0.00000000000E+00 0.  1.
       22    1    1    2    0    0  0.15847121776E-01  0.30491911044E-01 -0.50848468161E-02  0.34738214906E-01  0.00000000000E+00 0. -1.
</event>
<event>
 5   0  0.4143600E+04  0.9118800E+02  0.7546771E-02  0.1180000E+00
      -11   -1    0    0    0    0  0.00000000000E+00  0.00000000000E+00  0.34996269501E-01  0.35000000000E-01  0.51099999109E-03 0. -1.
       11   -1    0    0    0    0 -0.00000000000E+00 -0.00000000000E+00 -0.34996269501E-01  0.35000000000E-01  0.51099999109E-03 0.  1.
       22    1    1    2    0    0  0.79200853437E-02  0.73620252616E-02  0.32956797350E-01  0.34685409892E-01  0.00000000000E+00 0. -1.
       22    1    1    2    0    0 -0.78561111832E-02 -0.81424058927E-02 -0.32488297340E-01  0.34402132502E-01  0.00000000000E+00 0.  1.
       22    1    1    2    0    0 -0.63974160467E-04  0.78038063112E-03 -0.46850001034E-03  0.91245760576E-03  0.00000000000E+00 0.  1.
</event>
<event>
 5   0  0.4143600E+04  0.9118800E+02  0.7546771E-02  0.1180000E+00
      -11   -1    0    0    0    0  0.00000000000E+00  0.00000000000E+00  0.34996269501E-01  0.35000000000E-01  0.51099999109E-03 0.  1.
       11   -1    0    0    0    0 -0.00000000000E+00 -0.00000000000E+00 -0.34996269501E-01  0.35000000000E-01  0.51099999109E-03 0. -1.
       22    1    1    2    0    0 -0.43617776709E-02 -0.40611464233E-02  0.34269996606E-01  0.34784345360E-01  0.00000000000E+00 0.  1.
       22    1    1    2    0    0 -0.23290590548E-03 -0.70578718769E-03 -0.77965239876E-03  0.10771437128E-02  0.00000000000E+00 0. -1.
       22    1    1    2    0    0  0.45946835764E-02  0.47669336110E-02 -0.33490344207E-01  0.34138510927E-01  0.00000000000E+00 0. -1.
</event>
<event>
 5   0  0.4143600E+04  0.9118800E+02  0.7546771E-02  0.1180000E+00
      -11   -1    0    0    0    0  0.00000000000E+00  0.00000000000E+00  0.34996269501E-01  0.35000000000E-01  0.51099999109E-03 0.  1.
       11   -1    0    0    0    0 -0.00000000000E+00 -0.00000000000E+00 -0.34996269501E-01  0.35000000000E-01  0.51099999109E-03 0. -1.
       22    1    1    2    0    0 -0.57011998341E-02 -0.11342810155E-01  0.27582436941E-01  0.30363692946E-01  0.00000000000E+00 0.  1.
       22    1    1    2    0    0  0.96335861122E-02  0.17649332827E-01 -0.24220590677E-01  0.31479230349E-01  0.00000000000E+00 0. -1.
       22    1    1    2    0    0 -0.39323862781E-02 -0.63065226727E-02 -0.33618462639E-02  0.81570767045E-02  0.00000000000E+00 0.  1.
</event>
<event>
 5   0  0.4143600E+04  0.9118800E+02  0.7546771E-02  0.1180000E+00
      -11   -1    0    0    0    0  0.00000000000E+00  0.00000000000E+00  0.34996269501E-01  0.35000000000E-01  0.51099999109E-03 0.  1.
       11   -1    0    0    0    0 -0.00000000000E+00 -0.00000000000E+00 -0.34996269501E-01  0.35000000000E-01  0.51099999109E-03 0. -1.
       22    1    1    2    0    0 -0.64276956044E-02 -0.32159968551E-02  0.34180313517E-01  0.34927807528E-01  0.00000000000E+00 0.  1.
       22    1    1    2    0    0  0.15621771411E-02 -0.23186234411E-03 -0.38521463189E-02  0.41633146444E-02  0.00000000000E+00 0. -1.
       22    1    1    2    0    0  0.48655184633E-02  0.34478591992E-02 -0.30328167198E-01  0.30908877828E-01  0.00000000000E+00 0. -1.
</event>
<event>
 5   0  0.4143600E+04  0.9118800E+02  0.7546771E-02  0.1180000E+00
      -11   -1    0    0    0    0  0.00000000000E+00  0.00000000000E+00  0.34996269501E-01  0.35000000000E-01  0.51099999109E-03 0. -1.
       11   -1    0    0    0    0 -0.00000000000E+00 -0.00000000000E+00 -0.34996269501E-01  0.35000000000E-01  0.51099999109E-03 0.  1.
       22    1    1    2    0    0 -0.94320616987E-03  0.14216943799E-02 -0.34419426219E-04  0.17064693040E-02  0.00000000000E+00 0.  1.
       22    1    1    2    0    0 -0.13050398454E-01 -0.56498762152E-02 -0.30935091466E-01  0.34047230211E-01  0.00000000000E+00 0.  1.
       22    1    1    2    0    0  0.13993604624E-01  0.42281818353E-02  0.30969510892E-01  0.34246300485E-01  0.00000000000E+00 0. -1.
</event>
<event>
 5   0  0.4143600E+04  0.9118800E+02  0.7546771E-02  0.1180000E+00
      -11   -1    0    0    0    0  0.00000000000E+00  0.00000000000E+00  0.34996269501E-01  0.35000000000E-01  0.51099999109E-03 0.  1.
       11   -1    0    0    0    0 -0.00000000000E+00 -0.00000000000E+00 -0.34996269501E-01  0.35000000000E-01  0.51099999109E-03 0. -1.
       22    1    1    2    0    0  0.63668633208E-02 -0.17616368991E-01 -0.27978716094E-01  0.33670193929E-01  0.00000000000E+00 0. -1.
       22    1    1    2    0    0 -0.17071221611E-02 -0.21742624279E-02  0.43921056062E-02  0.51896314738E-02  0.00000000000E+00 0. -1.
       22    1    1    2    0    0 -0.46597411597E-02  0.19790631419E-01  0.23586610488E-01  0.31140174597E-01  0.00000000000E+00 0.  1.
</event>
<event>
 5   0  0.4143600E+04  0.9118800E+02  0.7546771E-02  0.1180000E+00
      -11   -1    0    0    0    0  0.00000000000E+00  0.00000000000E+00  0.34996269501E-01  0.35000000000E-01  0.51099999109E-03 0.  1.
       11   -1    0    0    0    0 -0.00000000000E+00 -0.00000000000E+00 -0.34996269501E-01  0.35000000000E-01  0.51099999109E-03 0. -1.
       22    1    1    2    0    0 -0.69160431219E-03 -0.17027536476E-04 -0.19265681318E-02  0.20470151998E-02  0.00000000000E+00 0.  1.
       22    1    1    2    0    0 -0.17455441391E-02  0.47172979362E-02  0.34544181102E-01  0.34908455597E-01  0.00000000000E+00 0.  1.
       22    1    1    2    0    0  0.24371484513E-02 -0.47002703997E-02 -0.32617612970E-01  0.33044529203E-01  0.00000000000E+00 0. -1.
</event>
<event>
 5   0  0.4143600E+04  0.9118800E+02  0.7546771E-02  0.1180000E+00
      -11   -1    0    0    0    0  0.00000000000E+00  0.00000000000E+00  0.34996269501E-01  0.35000000000E-01  0.51099999109E-03 0. -1.
       11   -1    0    0    0    0 -0.00000000000E+00 -0.00000000000E+00 -0.34996269501E-01  0.35000000000E-01  0.51099999109E-03 0.  1.
       22    1    1    2    0    0 -0.18100419798E-02 -0.33146012714E-02 -0.34462785230E-01  0.34669098624E-01  0.00000000000E+00 0.  1.
       22    1    1    2    0    0  0.20051577933E-02  0.33202509311E-02  0.34759770480E-01  0.34975510974E-01  0.00000000000E+00 0. -1.
       22    1    1    2    0    0 -0.19511581347E-03 -0.56496597071E-05 -0.29698525031E-03  0.35539040255E-03  0.00000000000E+00 0.  1.
</event>
<event>
 5   0  0.4143600E+04  0.9118800E+02  0.7546771E-02  0.1180000E+00
      -11   -1    0    0    0    0  0.00000000000E+00  0.00000000000E+00  0.34996269501E-01  0.35000000000E-01  0.51099999109E-03 0. -1.
       11   -1    0    0    0    0 -0.00000000000E+00 -0.00000000000E+00 -0.34996269501E-01  0.35000000000E-01  0.51099999109E-03 0.  1.
       22    1    1    2    0    0  0.35771425106E-02 -0.22934111952E-02  0.34330517243E-01  0.34592486144E-01  0.00000000000E+00 0. -1.
       22    1    1    2    0    0 -0.25992385356E-02  0.48630824934E-02 -0.27442891516E-01  0.27991389874E-01  0.00000000000E+00 0.  1.
       22    1    1    2    0    0 -0.97790397494E-03 -0.25696712982E-02 -0.68876257269E-02  0.74161239822E-02  0.00000000000E+00 0. -1.
</event>
<event>
 5   0  0.4143600E+04  0.9118800E+02  0.7546771E-02  0.1180000E+00
      -11   -1    0    0    0    0  0.00000000000E+00  0.00000000000E+00  0.34996269501E-01  0.35000000000E-01  0.51099999109E-03 0. -1.
       11   -1    0    0    0    0 -0.00000000000E+00 -0.00000000000E+00 -0.34996269501E-01  0.35000000000E-01  0.51099999109E-03 0.  1.
       22    1    1    2    0    0  0.14810623033E-02 -0.64170593830E-03 -0.19425174533E-01  0.19492119887E-01  0.00000000000E+00 0.  1.
       22    1    1    2    0    0 -0.79925215362E-02  0.27290970935E-02 -0.14021935395E-01  0.16368965870E-01  0.00000000000E+00 0.  1.
       22    1    1    2    0    0  0.65114592329E-02 -0.20873911552E-02  0.33447109927E-01  0.34138914243E-01  0.00000000000E+00 0. -1.
</event>
<event>
 5   0  0.4143600E+04  0.9118800E+02  0.7546771E-02  0.1180000E+00
      -11   -1    0    0    0    0  0.00000000000E+00  0.00000000000E+00  0.34996269501E-01  0.35000000000E-01  0.51099999109E-03 0. -1.
       11   -1    0    0    0    0 -0.00000000000E+00 -0.00000000000E+00 -0.34996269501E-01  0.35000000000E-01  0.51099999109E-03 0.  1.
       22    1    1    2    0    0  0.28542022117E-01 -0.96730345461E-02 -0.14129938440E-01  0.33284677919E-01  0.00000000000E+00 0.  1.
       22    1    1    2    0    0 -0.28528427857E-01  0.10504271393E-01  0.16226270374E-01  0.34460161981E-01  0.00000000000E+00 0. -1.
       22    1    1    2    0    0 -0.13594260011E-04 -0.83123684694E-03 -0.20963319338E-02  0.22551600999E-02  0.00000000000E+00 0.  1.
</event>
<event>
 5   0  0.4143600E+04  0.9118800E+02  0.7546771E-02  0.1180000E+00
      -11   -1    0    0    0    0  0.00000000000E+00  0.00000000000E+00  0.34996269501E-01  0.35000000000E-01  0.51099999109E-03 0.  1.
       11   -1    0    0    0    0 -0.00000000000E+00 -0.00000000000E+00 -0.34996269501E-01  0.35000000000E-01  0.51099999109E-03 0. -1.
       22    1    1    2    0    0  0.59524894499E-02  0.11762486306E-03 -0.32969017974E-01  0.33502270258E-01  0.00000000000E+00 0. -1.
       22    1    1    2    0    0 -0.55108024941E-02  0.99242426572E-03  0.34274048512E-01  0.34728435776E-01  0.00000000000E+00 0.  1.
       22    1    1    2    0    0 -0.44168695578E-03 -0.11100491288E-02 -0.13050305378E-02  0.17692939665E-02  0.00000000000E+00 0.  1.
</event>
<event>
 5   0  0.4143600E+04  0.9118800E+02  0.7546771E-02  0.1180000E+00
      -11   -1    0    0    0    0  0.00000000000E+00  0.00000000000E+00  0.34996269501E-01  0.35000000000E-01  0.51099999109E-03 0.  1.
       11   -1    0    0    0    0 -0.00000000000E+00 -0.00000000000E+00 -0.34996269501E-01  0.35000000000E-01  0.51099999109E-03 0. -1.
       22    1    1    2    0    0  0.93520928509E-04  0.11443682756E-03  0.74267814701E-03  0.75724024036E-03  0.00000000000E+00 0. -1.
       22    1    1    2    0    0  0.13281471104E-01 -0.97419952071E-02 -0.30820728162E-01  0.34945975873E-01  0.00000000000E+00 0. -1.
       22    1    1    2    0    0 -0.13374992032E-01  0.96275583796E-02  0.30078050015E-01  0.34296783886E-01  0.00000000000E+00 0.  1.
</event>
<event>
 5   0  0.4143600E+04  0.9118800E+02  0.7546771E-02  0.1180000E+00
      -11   -1    0    0    0    0  0.00000000000E+00  0.00000000000E+00  0.34996269501E-01  0.35000000000E-01  0.51099999109E-03 0. -1.
       11   -1    0    0    0    0 -0.00000000000E+00 -0.00000000000E+00 -0.34996269501E-01  0.35000000000E-01  0.51099999109E-03 0.  1.
       22    1    1    2    0    0 -0.10495260553E-02  0.16876639772E-03 -0.27745218055E-02  0.29711880261E-02  0.00000000000E+00 0. -1.
       22    1    1    2    0    0  0.66960387676E-02 -0.78047853132E-02 -0.30624937986E-01  0.32305393290E-01  0.00000000000E+00 0.  1.
       22    1    1    2    0    0 -0.56465127122E-02  0.76360189154E-02  0.33399459792E-01  0.34723418684E-01  0.00000000000E+00 0. -1.
</event>
<event>
 5   0  0.4143600E+04  0.9118800E+02  0.7546771E-02  0.1180000E+00
      -11   -1    0    0    0    0  0.00000000000E+00  0.00000000000E+00  0.34996269501E-01  0.35000000000E-01  0.51099999109E-03 0.  1.
       11   -1    0    0    0    0 -0.00000000000E+00 -0.00000000000E+00 -0.34996269501E-01  0.35000000000E-01  0.51099999109E-03 0. -1.
       22    1    1    2    0    0 -0.74063070915E-02 -0.14995541156E-01 -0.30282562225E-01  0.34594121093E-01  0.00000000000E+00 0. -1.
       22    1    1    2    0    0  0.57214355841E-02  0.10185352072E-01  0.13432761044E-01  0.17802114797E-01  0.00000000000E+00 0.  1.
       22    1    1    2    0    0  0.16848715074E-02  0.48101890840E-02  0.16849801180E-01  0.17603764110E-01  0.00000000000E+00 0.  1.
</event>
<event>
 5   0  0.4143600E+04  0.9118800E+02  0.7546771E-02  0.1180000E+00
      -11   -1    0    0    0    0  0.00000000000E+00  0.00000000000E+00  0.34996269501E-01  0.35000000000E-01  0.51099999109E-03 0.  1.
       11   -1    0    0    0    0 -0.00000000000E+00 -0.00000000000E+00 -0.34996269501E-01  0.35000000000E-01  0.51099999109E-03 0. -1.
       22    1    1    2    0    0  0.35917340009E-02  0.60885031508E-02 -0.25344886541E-01  0.26312234749E-01  0.00000000000E+00 0. -1.
       22    1    1    2    0    0 -0.16787512176E-03 -0.30775028770E-02 -0.87564185079E-02  0.92829990359E-02  0.00000000000E+00 0.  1.
       22    1    1    2    0    0 -0.34238588791E-02 -0.30110002738E-02  0.34101305049E-01  0.34404766215E-01  0.00000000000E+00 0.  1.
</event>
<event>
 5   0  0.4143600E+04  0.9118800E+02  0.7546771E-02  0.1180000E+00
      -11   -1    0    0    0    0  0.00000000000E+00  0.00000000000E+00  0.34996269501E-01  0.35000000000E-01  0.51099999109E-03 0.  1.
       11   -1    0    0    0    0 -0.00000000000E+00 -0.00000000000E+00 -0.34996269501E-01  0.35000000000E-01  0.51099999109E-03 0. -1.
       22    1    1    2    0    0 -0.60617514258E-03  0.53124844556E-03 -0.33762238289E-01  0.33771858218E-01  0.00000000000E+00 0. -1.
       22    1    1    2    0    0  0.14018621664E-04  0.79756436524E-03 -0.10871473338E-02  0.13484045253E-02  0.00000000000E+00 0. -1.
       22    1    1    2    0    0  0.59215652092E-03 -0.13288128108E-02  0.34849385623E-01  0.34879737257E-01  0.00000000000E+00 0.  1.
</event>
<event>
 5   0  0.4143600E+04  0.9118800E+02  0.7546771E-02  0.1180000E+00
      -11   -1    0    0    0    0  0.00000000000E+00  0.00000000000E+00  0.34996269501E-01  0.35000000000E-01  0.51099999109E-03 0. -1.
       11   -1    0    0    0    0 -0.00000000000E+00 -0.00000000000E+00 -0.34996269501E-01  0.35000000000E-01  0.51099999109E-03 0.  1.
       22    1    1    2    0    0 -0.80381969366E-02 -0.66603447355E-02  0.17604894316E-02  0.10586412283E-01  0.00000000000E+00 0.  1.
       22    1    1    2    0    0  0.67638898576E-02 -0.44966951529E-02  0.27181667165E-01  0.28369235153E-01  0.00000000000E+00 0. -1.
       22    1    1    2    0    0  0.12743070790E-02  0.11157039888E-01 -0.28942156597E-01  0.31044352564E-01  0.00000000000E+00 0.  1.
</event>
<event>
 5   0  0.4143600E+04  0.9118800E+02  0.7546771E-02  0.1180000E+00
      -11   -1    0    0    0    0  0.00000000000E+00  0.00000000000E+00  0.34996269501E-01  0.35000000000E-01  0.51099999109E-03 0.  1.
       11   -1    0    0    0    0 -0.00000000000E+00 -0.00000000000E+00 -0.34996269501E-01  0.35000000000E-01  0.51099999109E-03 0. -1.
       22    1    1    2    0    0 -0.29352892743E-02 -0.51553111788E-02  0.22441419117E-01  0.23212290892E-01  0.00000000000E+00 0.  1.
       22    1    1    2    0    0  0.10709486016E-02 -0.79450937982E-02  0.93713857236E-02  0.12332652462E-01  0.00000000000E+00 0.  1.
       22    1    1    2    0    0  0.18643406727E-02  0.13100404977E-01 -0.31812804840E-01  0.34455056646E-01  0.00000000000E+00 0. -1.
</event>
<event>
 5   0  0.4143600E+04  0.9118800E+02  0.7546771E-02  0.1180000E+00
      -11   -1    0    0    0    0  0.00000000000E+00  0.00000000000E+00  0.34996269501E-01  0.35000000000E-01  0.51099999109E-03 0. -1.
       11   -1    0    0    0    0 -0.00000000000E+00 -0.00000000000E+00 -0.34996269501E-01  0.35000000000E-01  0.51099999109E-03 0.  1.
       22    1    1    2    0    0 -0.15258512649E-02 -0.24446393027E-02 -0.30685213516E-01  0.30820233807E-01  0.00000000000E+00 0.  1.
       22    1    1    2    0    0  0.12120451721E-03  0.33434001409E-02  0.34685157426E-01  0.34846135520E-01  0.00000000000E+00 0. -1.
       22    1    1    2    0    0  0.14046467477E-02 -0.89876083823E-03 -0.39999439097E-02  0.43336306731E-02  0.00000000000E+00 0. -1.
</event>
<event>
 5   0  0.4143600E+04  0.9118800E+02  0.7546771E-02  0.1180000E+00
      -11   -1    0    0    0    0  0.00000000000E+00  0.00000000000E+00  0.34996269501E-01  0.35000000000E-01  0.51099999109E-03 0. -1.
       11   -1    0    0    0    0 -0.00000000000E+00 -0.00000000000E+00 -0.34996269501E-01  0.35000000000E-01  0.51099999109E-03 0.  1.
       22    1    1    2    0    0 -0.20975884306E-02 -0.12492524826E-02 -0.30090852215E-01  0.30189731632E-01  0.00000000000E+00 0.  1.
       22    1    1    2    0    0  0.24568698824E-02 -0.95193052766E-04 -0.45338443411E-02  0.51576172644E-02  0.00000000000E+00 0.  1.
       22    1    1    2    0    0 -0.35928145185E-03  0.13444455354E-02  0.34624696556E-01  0.34652651104E-01  0.00000000000E+00 0. -1.
</event>
<event>
 5   0  0.4143600E+04  0.9118800E+02  0.7546771E-02  0.1180000E+00
      -11   -1    0    0    0    0  0.00000000000E+00  0.00000000000E+00  0.34996269501E-01  0.35000000000E-01  0.51099999109E-03 0.  1.
       11   -1    0    0    0    0 -0.00000000000E+00 -0.00000000000E+00 -0.34996269501E-01  0.35000000000E-01  0.51099999109E-03 0. -1.
       22    1    1    2    0    0 -0.99205368729E-02  0.15020945259E-01 -0.22747329985E-01  0.29008393092E-01  0.00000000000E+00 0. -1.
       22    1    1    2    0    0 -0.18569615165E-02 -0.13131927780E-02  0.22805975444E-01  0.22919103327E-01  0.00000000000E+00 0.  1.
       22    1    1    2    0    0  0.11777498389E-01 -0.13707752481E-01 -0.58645459261E-04  0.18072503581E-01  0.00000000000E+00 0.  1.
</event>
<event>
 5   0  0.4143600E+04  0.9118800E+02  0.7546771E-02  0.1180000E+00
      -11   -1    0    0    0    0  0.00000000000E+00  0.00000000000E+00  0.34996269501E-01  0.35000000000E-01  0.51099999109E-03 0. -1.
       11   -1    0    0    0    0 -0.00000000000E+00 -0.00000000000E+00 -0.34996269501E-01  0.35000000000E-01  0.51099999109E-03 0.  1.
       22    1    1    2    0    0 -0.10970810113E-02 -0.44675532683E-02 -0.97138218504E-02  0.10748067449E-01  0.00000000000E+00 0.  1.
       22    1    1    2    0    0 -0.54670744275E-03 -0.45020154878E-03 -0.24568998480E-01  0.24579203746E-01  0.00000000000E+00 0.  1.
       22    1    1    2    0    0  0.16437884540E-02  0.49177548171E-02  0.34282820331E-01  0.34672728805E-01  0.00000000000E+00 0. -1.
</event>
<event>
 5   0  0.4143600E+04  0.9118800E+02  0.7546771E-02  0.1180000E+00
      -11   -1    0    0    0    0  0.00000000000E+00  0.00000000000E+00  0.34996269501E-01  0.35000000000E-01  0.51099999109E-03 0. -1.
       11   -1    0    0    0    0 -0.00000000000E+00 -0.00000000000E+00 -0.34996269501E-01  0.35000000000E-01  0.51099999109E-03 0.  1.
       22    1    1    2    0    0  0.87368604215E-02 -0.12699895214E-01 -0.28661559655E-01  0.32543894517E-01  0.00000000000E+00 0.  1.
       22    1    1    2    0    0  0.15971390645E-03  0.69018204784E-02  0.25438427560E-01  0.26358570355E-01  0.00000000000E+00 0. -1.
       22    1    1    2    0    0 -0.88965743280E-02  0.57980747359E-02  0.32231320947E-02  0.11097535128E-01  0.00000000000E+00 0. -1.
</event>
<event>
 5   0  0.4143600E+04  0.9118800E+02  0.7546771E-02  0.1180000E+00
      -11   -1    0    0    0    0  0.00000000000E+00  0.00000000000E+00  0.34996269501E-01  0.35000000000E-01  0.51099999109E-03 0.  1.
       11   -1    0    0    0    0 -0.00000000000E+00 -0.00000000000E+00 -0.34996269501E-01  0.35000000000E-01  0.51099999109E-03 0. -1.
       22    1    1    2    0    0 -0.53602720526E-02 -0.47297788861E-02 -0.14119280937E-01  0.15825846549E-01  0.00000000000E+00 0. -1.
       22    1    1    2    0    0  0.12072249563E-01  0.20897747832E-01  0.24030285617E-01  0.34057447068E-01  0.00000000000E+00 0.  1.
       22    1    1    2    0    0 -0.67119775105E-02 -0.16167968946E-01 -0.99110046801E-02  0.20116706383E-01  0.00000000000E+00 0. -1.
</event>
<event>
 5   0  0.4143600E+04  0.9118800E+02  0.7546771E-02  0.1180000E+00
      -11   -1    0    0    0    0  0.00000000000E+00  0.00000000000E+00  0.34996269501E-01  0.35000000000E-01  0.51099999109E-03 0.  1.
       11   -1    0    0    0    0 -0.00000000000E+00 -0.00000000000E+00 -0.34996269501E-01  0.35000000000E-01  0.51099999109E-03 0. -1.
       22    1    1    2    0    0 -0.20979403002E-01 -0.12195960557E-01 -0.25030797657E-01  0.34862840326E-01  0.00000000000E+00 0. -1.
       22    1    1    2    0    0  0.20962931185E-01  0.12213850489E-01  0.24069249091E-01  0.34175303648E-01  0.00000000000E+00 0.  1.
       22    1    1    2    0    0  0.16471817431E-04 -0.17889931603E-04  0.96154856624E-03  0.96185602647E-03  0.00000000000E+00 0. -1.
</event>
<event>
 5   0  0.4143600E+04  0.9118800E+02  0.7546771E-02  0.1180000E+00
      -11   -1    0    0    0    0  0.00000000000E+00  0.00000000000E+00  0.34996269501E-01  0.35000000000E-01  0.51099999109E-03 0.  1.
       11   -1    0    0    0    0 -0.00000000000E+00 -0.00000000000E+00 -0.34996269501E-01  0.35000000000E-01  0.51099999109E-03 0. -1.
       22    1    1    2    0    0  0.12533473508E-02 -0.30786941092E-03 -0.29682041212E-01  0.29710086396E-01  0.00000000000E+00 0. -1.
       22    1    1    2    0    0  0.38994457435E-02 -0.52527321099E-03 -0.43467680286E-02  0.58631033887E-02  0.00000000000E+00 0. -1.
       22    1    1    2    0    0 -0.51527930943E-02  0.83314262191E-03  0.34028809240E-01  0.34426810215E-01  0.00000000000E+00 0.  1.
</event>
<event>
 5   0  0.4143600E+04  0.9118800E+02  0.7546771E-02  0.1180000E+00
      -11   -1    0    0    0    0  0.00000000000E+00  0.00000000000E+00  0.34996269501E-01  0.35000000000E-01  0.51099999109E-03 0. -1.
       11   -1    0    0    0    0 -0.00000000000E+00 -0.00000000000E+00 -0.34996269501E-01  0.35000000000E-01  0.51099999109E-03 0.  1.
       22    1    1    2    0    0  0.36309389256E-02 -0.12074335472E-01  0.32219924760E-01  0.34599087360E-01  0.00000000000E+00 0. -1.
       22    1    1    2    0    0 -0.36533170035E-02  0.12098790642E-01 -0.32628672218E-01  0.34990823238E-01  0.00000000000E+00 0.  1.
       22    1    1    2    0    0  0.22378077858E-04 -0.24455170151E-04  0.40874745818E-03  0.41008940279E-03  0.00000000000E+00 0. -1.
</event>
<event>
 5   0  0.4143600E+04  0.9118800E+02  0.7546771E-02  0.1180000E+00
      -11   -1    0    0    0    0  0.00000000000E+00  0.00000000000E+00  0.34996269501E-01  0.35000000000E-01  0.51099999109E-03 0.  1.
       11   -1    0    0    0    0 -0.00000000000E+00 -0.00000000000E+00 -0.34996269501E-01  0.35000000000E-01  0.51099999109E-03 0. -1.
       22    1    1    2    0    0 -0.90185483037E-02 -0.10116296331E-01 -0.23860740866E-01  0.27441002526E-01  0.00000000000E+00 0. -1.
       22    1    1    2    0    0  0.10522658531E-01  0.91886514925E-02  0.31637215569E-01  0.34584260405E-01  0.00000000000E+00 0.  1.
       22    1    1    2    0    0 -0.15041102275E-02  0.92764483800E-03 -0.77764747025E-02  0.79747370690E-02  0.00000000000E+00 0. -1.
</event>
<event>
 5   0  0.4143600E+04  0.9118800E+02  0.7546771E-02  0.1180000E+00
      -11   -1    0    0    0    0  0.00000000000E+00  0.00000000000E+00  0.34996269501E-01  0.35000000000E-01  0.51099999109E-03 0.  1.
       11   -1    0    0    0    0 -0.00000000000E+00 -0.00000000000E+00 -0.34996269501E-01  0.35000000000E-01  0.51099999109E-03 0. -1.
       22    1    1    2    0    0 -0.78081223344E-03 -0.15488203371E-02  0.31190042759E-02  0.35688513353E-02  0.00000000000E+00 0.  1.
       22    1    1    2    0    0  0.11483277584E-01  0.16514692750E-01 -0.28622534516E-01  0.34983570755E-01  0.00000000000E+00 0. -1.
       22    1    1    2    0    0 -0.10702465351E-01 -0.14965872413E-01  0.25503530240E-01  0.31447577909E-01  0.00000000000E+00 0.  1.
</event>
<event>
 5   0  0.4143600E+04  0.9118800E+02  0.7546771E-02  0.1180000E+00
      -11   -1    0    0    0    0  0.00000000000E+00  0.00000000000E+00  0.34996269501E-01  0.35000000000E-01  0.51099999109E-03 0.  1.
       11   -1    0    0    0    0 -0.00000000000E+00 -0.00000000000E+00 -0.34996269501E-01  0.35000000000E-01  0.51099999109E-03 0. -1.
       22    1    1    2    0    0 -0.57204473388E-03 -0.33217200146E-05  0.31463186278E-04  0.57291896763E-03  0.00000000000E+00 0.  1.
       22    1    1    2    0    0  0.13235695854E-01  0.90797405161E-02 -0.30916491076E-01  0.34834677450E-01  0.00000000000E+00 0. -1.
       22    1    1    2    0    0 -0.12663651120E-01 -0.90764187960E-02  0.30885027890E-01  0.34592403582E-01  0.00000000000E+00 0.  1.
</event>
<event>
 5   0  0.4143600E+04  0.9118800E+02  0.7546771E-02  0.1180000E+00
      -11   -1    0    0    0    0  0.00000000000E+00  0.00000000000E+00  0.34996269501E-01  0.35000000000E-01  0.51099999109E-03 0. -1.
       11   -1    0    0    0    0 -0.00000000000E+00 -0.00000000000E+00 -0.34996269501E-01  0.35000000000E-01  0.51099999109E-03 0.  1.
       22    1    1    2    0    0  0.19503047679E-01 -0.31411959742E-02  0.26719227157E-01  0.33228798967E-01  0.00000000000E+00 0. -1.
       22    1    1    2    0    0 -0.96808007851E-02  0.80688070175E-02 -0.20719025429E-01  0.24250805455E-01  0.00000000000E+00 0.  1.
       22    1    1    2    0    0 -0.98222468941E-02 -0.49276110433E-02 -0.60002017283E-02  0.12520395578E-01  0.00000000000E+00 0. -1.
</event>
<event>
 5   0  0.4143600E+04  0.9118800E+02  0.7546771E-02  0.1180000E+00
      -11   -1    0    0    0    0  0.00000000000E+00  0.00000000000E+00  0.34996269501E-01  0.35000000000E-01  0.51099999109E-03 0. -1.
       11   -1    0    0    0    0 -0.00000000000E+00 -0.00000000000E+00 -0.34996269501E-01  0.35000000000E-01  0.51099999109E-03 0.  1.
       22    1    1    2    0    0 -0.10185655267E-01  0.28893332942E-02  0.33240828113E-01  0.34886221832E-01  0.00000000000E+00 0. -1.
       22    1    1    2    0    0 -0.34747549320E-03  0.58315124915E-04 -0.15144978844E-02  0.15549417076E-02  0.00000000000E+00 0.  1.
       22    1    1    2    0    0  0.10533130760E-01 -0.29476484191E-02 -0.31726330228E-01  0.33558836460E-01  0.00000000000E+00 0.  1.
</event>
<event>
 5   0  0.4143600E+04  0.9118800E+02  0.7546771E-02  0.1180000E+00
      -11   -1    0    0    0    0  0.00000000000E+00  0.00000000000E+00  0.34996269501E-01  0.35000000000E-01  0.51099999109E-03 0. -1.
       11   -1    0    0    0    0 -0.00000000000E+00 -0.00000000000E+00 -0.34996269501E-01  0.35000000000E-01  0.51099999109E-03 0.  1.
       22    1    1    2    0    0  0.17552359818E-01  0.75903670947E-03 -0.22702299516E-01  0.28706373425E-01  0.00000000000E+00 0.  1.
       22    1    1    2    0    0 -0.18009298552E-01 -0.54491414325E-03  0.29451449875E-01  0.34525637800E-01  0.00000000000E+00 0. -1.
       22    1    1    2    0    0  0.45693873373E-03 -0.21412256622E-03 -0.67491503597E-02  0.67679887749E-02  0.00000000000E+00 0.  1.
</event>
<event>
 5   0  0.4143600E+04  0.9118800E+02  0.7546771E-02  0.1180000E+00
      -11   -1    0    0    0    0  0.00000000000E+00  0.00000000000E+00  0.34996269501E-01  0.35000000000E-01  0.51099999109E-03 0.  1.
       11   -1    0    0    0    0 -0.00000000000E+00 -0.00000000000E+00 -0.34996269501E-01  0.35000000000E-01  0.51099999109E-03 0. -1.
       22    1    1    2    0    0  0.15924525653E-03  0.45925323365E-04 -0.18345221201E-01  0.18345969833E-01  0.00000000000E+00 0. -1.
       22    1    1    2    0    0 -0.11713260891E-01 -0.47621426711E-02 -0.12866716193E-01  0.18039702578E-01  0.00000000000E+00 0. -1.
       22    1    1    2    0    0  0.11554015635E-01  0.47162173477E-02  0.31211937394E-01  0.33614327589E-01  0.00000000000E+00 0.  1.
</event>
<event>
 5   0  0.4143600E+04  0.9118800E+02  0.7546771E-02  0.1180000E+00
      -11   -1    0    0    0    0  0.00000000000E+00  0.00000000000E+00  0.34996269501E-01  0.35000000000E-01  0.51099999109E-03 0. -1.
       11   -1    0    0    0    0 -0.00000000000E+00 -0.00000000000E+00 -0.34996269501E-01  0.35000000000E-01  0.51099999109E-03 0.  1.
       22    1    1    2    0    0 -0.18577773167E-03  0.75739957543E-04 -0.86879876470E-03  0.89166204377E-03  0.00000000000E+00 0. -1.
       22    1    1    2    0    0  0.11173850286E-01 -0.14283706371E-01  0.29900196229E-01  0.34970000463E-01  0.00000000000E+00 0. -1.
       22    1    1    2    0    0 -0.10988072554E-01  0.14207966413E-01 -0.29031397464E-01  0.34138337493E-01  0.00000000000E+00 0.  1.
</event>
<event>
 5   0  0.4143600E+04  0.9118800E+02  0.7546771E-02  0.1180000E+00
      -11   -1    0    0    0    0  0.00000000000E+00  0.00000000000E+00  0.34996269501E-01  0.35000000000E-01  0.51099999109E-03 0.  1.
       11   -1    0    0    0    0 -0.00000000000E+00 -0.00000000000E+00 -0.34996269501E-01  0.35000000000E-01  0.51099999109E-03 0. -1.
       22    1    1    2    0    0 -0.29125136840E-01 -0.98848492553E-02  0.15723900208E-01  0.34543087275E-01  0.00000000000E+00 0.  1.
       22    1    1    2    0    0 -0.88256108264E-04 -0.62398422492E-03 -0.77619446498E-03  0.99981163279E-03  0.00000000000E+00 0. -1.
       22    1    1    2    0    0  0.29213392948E-01  0.10508833480E-01 -0.14947705743E-01  0.34457101092E-01  0.00000000000E+00 0. -1.
</event>
<event>
 5   0  0.4143600E+04  0.9118800E+02  0.7546771E-02  0.1180000E+00
      -11   -1    0    0    0    0  0.00000000000E+00  0.00000000000E+00  0.34996269501E-01  0.35000000000E-01  0.51099999109E-03 0.  1.
       11   -1    0    0    0    0 -0.00000000000E+00 -0.00000000000E+00 -0.34996269501E-01  0.35000000000E-01  0.51099999109E-03 0. -1.
       22    1    1    2    0    0  0.22645900925E-04 -0.11550336115E-04  0.56640763491E-03  0.56697782671E-03  0.00000000000E+00 0.  1.
       22    1    1    2    0    0  0.40452068840E-02  0.11102968406E-01  0.32360681971E-01  0.34450737928E-01  0.00000000000E+00 0.  1.
       22    1    1    2    0    0 -0.40678527849E-02 -0.11091418070E-01 -0.32927089606E-01  0.34982284245E-01  0.00000000000E+00 0. -1.
</event>
<event>
 5   0  0.4143600E+04  0.9118800E+02  0.7546771E-02  0.1180000E+00
      -11   -1    0    0    0    0  0.00000000000E+00  0.00000000000E+00  0.34996269501E-01  0.35000000000E-01  0.51099999109E-03 0.  1.
       11   -1    0    0    0    0 -0.00000000000E+00 -0.00000000000E+00 -0.34996269501E-01  0.35000000000E-01  0.51099999109E-03 0. -1.
       22    1    1    2    0    0  0.32400889725E-02  0.27835111208E-02 -0.60612366979E-02  0.74151669582E-02  0.00000000000E+00 0.  1.
       22    1    1    2    0    0 -0.35662586798E-02 -0.33599275683E-02 -0.28046193744E-01  0.28470972898E-01  0.00000000000E+00 0. -1.
       22    1    1    2    0    0  0.32616970720E-03  0.57641644743E-03  0.34107430442E-01  0.34113860144E-01  0.00000000000E+00 0.  1.
</event>
<event>
 5   0  0.4143600E+04  0.9118800E+02  0.7546771E-02  0.1180000E+00
      -11   -1    0    0    0    0  0.00000000000E+00  0.00000000000E+00  0.34996269501E-01  0.35000000000E-01  0.51099999109E-03 0.  1.
       11   -1    0    0    0    0 -0.00000000000E+00 -0.00000000000E+00 -0.34996269501E-01  0.35000000000E-01  0.51099999109E-03 0. -1.
       22    1    1    2    0    0  0.23338658726E-02  0.56695396605E-02  0.26682710003E-01  0.27378050022E-01  0.00000000000E+00 0.  1.
       22    1    1    2    0    0 -0.82074417555E-02  0.74984165175E-02 -0.25896668076E-01  0.28182011423E-01  0.00000000000E+00 0. -1.
       22    1    1    2    0    0  0.58735758829E-02 -0.13167956178E-01 -0.78604192779E-03  0.14439938555E-01  0.00000000000E+00 0.  1.
</event>
<event>
 5   0  0.4143600E+04  0.9118800E+02  0.7546771E-02  0.1180000E+00
      -11   -1    0    0    0    0  0.00000000000E+00  0.00000000000E+00  0.34996269501E-01  0.35000000000E-01  0.51099999109E-03 0.  1.
       11   -1    0    0    0    0 -0.00000000000E+00 -0.00000000000E+00 -0.34996269501E-01  0.35000000000E-01  0.51099999109E-03 0. -1.
       22    1    1    2    0    0  0.16191159693E-02  0.81804683726E-03  0.34678430592E-01  0.34725844633E-01  0.00000000000E+00 0.  1.
       22    1    1    2    0    0 -0.49201943607E-03  0.66892672018E-03 -0.31995068409E-01  0.32005842414E-01  0.00000000000E+00 0. -1.
       22    1    1    2    0    0 -0.11270965333E-02 -0.14869735574E-02 -0.26833621828E-02  0.32683129532E-02  0.00000000000E+00 0. -1.
</event>
<event>
 5   0  0.4143600E+04  0.9118800E+02  0.7546771E-02  0.1180000E+00
      -11   -1    0    0    0    0  0.00000000000E+00  0.00000000000E+00  0.34996269501E-01  0.35000000000E-01  0.51099999109E-03 0.  1.
       11   -1    0    0    0    0 -0.00000000000E+00 -0.00000000000E+00 -0.34996269501E-01  0.35000000000E-01  0.51099999109E-03 0. -1.
       22    1    1    2    0    0  0.15696832247E-01 -0.16999920896E-01  0.25657451517E-01  0.34549857762E-01  0.00000000000E+00 0.  1.
       22    1    1    2    0    0 -0.21659446324E-04 -0.17865983102E-05  0.52045070611E-03  0.52090427243E-03  0.00000000000E+00 0. -1.
       22    1    1    2    0    0 -0.15675172800E-01  0.17001707494E-01 -0.26177902223E-01  0.34929237965E-01  0.00000000000E+00 0. -1.
</event>
<event>
 5   0  0.4143600E+04  0.9118800E+02  0.7546771E-02  0.1180000E+00
      -11   -1    0    0    0    0  0.00000000000E+00  0.00000000000E+00  0.34996269501E-01  0.35000000000E-01  0.51099999109E-03 0. -1.
       11   -1    0    0    0    0 -0.00000000000E+00 -0.00000000000E+00 -0.34996269501E-01  0.35000000000E-01  0.51099999109E-03 0.  1.
       22    1    1    2    0    0 -0.43882588390E-02 -0.60053103574E-03 -0.80169117782E-02  0.91590571361E-02  0.00000000000E+00 0.  1.
       22    1    1    2    0    0 -0.40911583102E-02  0.37451957152E-04 -0.25723479629E-01  0.26046811382E-01  0.00000000000E+00 0.  1.
       22    1    1    2    0    0  0.84794171492E-02  0.56307907859E-03  0.33740391407E-01  0.34794131481E-01  0.00000000000E+00 0. -1.
</event>
<event>
 5   0  0.4143600E+04  0.9118800E+02  0.7546771E-02  0.1180000E+00
      -11   -1    0    0    0    0  0.00000000000E+00  0.00000000000E+00  0.34996269501E-01  0.35000000000E-01  0.51099999109E-03 0. -1.
       11   -1    0    0    0    0 -0.00000000000E+00 -0.00000000000E+00 -0.34996269501E-01  0.35000000000E-01  0.51099999109E-03 0.  1.
       22    1    1    2    0    0 -0.55119850963E-02  0.16640278111E-01 -0.29300477042E-01  0.34143795779E-01  0.00000000000E+00 0.  1.
       22    1    1    2    0    0  0.14345264206E-02  0.80625379138E-03  0.16656389454E-03  0.16539814868E-02  0.00000000000E+00 0. -1.
       22    1    1    2    0    0  0.40774586757E-02 -0.17446531902E-01  0.29133913148E-01  0.34202222734E-01  0.00000000000E+00 0. -1.
</event>
<event>
 5   0  0.4143600E+04  0.9118800E+02  0.7546771E-02  0.1180000E+00
      -11   -1    0    0    0    0  0.00000000000E+00  0.00000000000E+00  0.34996269501E-01  0.35000000000E-01  0.51099999109E-03 0.  1.
       11   -1    0    0    0    0 -0.00000000000E+00 -0.00000000000E+00 -0.34996269501E-01  0.35000000000E-01  0.51099999109E-03 0. -1.
       22    1    1    2    0    0  0.15870823259E-01 -0.11209580707E-01  0.27900539815E-01  0.33999674300E-01  0.00000000000E+00 0.  1.
       22    1    1    2    0    0  0.17010707311E-03  0.20085729485E-03  0.10708321273E-02  0.11027064496E-02  0.00000000000E+00 0.  1.
       22    1    1    2    0    0 -0.16040930332E-01  0.11008723412E-01 -0.28971371942E-01  0.34897619250E-01  0.00000000000E+00 0. -1.
</event>
<event>
 5   0  0.4143600E+04  0.9118800E+02  0.7546771E-02  0.1180000E+00
      -11   -1    0    0    0    0  0.00000000000E+00  0.00000000000E+00  0.34996269501E-01  0.35000000000E-01  0.51099999109E-03 0. -1.
       11   -1    0    0    0    0 -0.00000000000E+00 -0.00000000000E+00 -0.34996269501E-01  0.35000000000E-01  0.51099999109E-03 0.  1.
       22    1    1    2    0    0  0.96328229474E-02 -0.19627222414E-01  0.23226734372E-01  0.31898280944E-01  0.00000000000E+00 0. -1.
       22    1    1    2    0    0 -0.13712882709E-02  0.15753695817E-02  0.39369682120E-02  0.44566735962E-02  0.00000000000E+00 0. -1.
       22    1    1    2    0    0 -0.82615346765E-02  0.18051852832E-01 -0.27163702584E-01  0.33645045459E-01  0.00000000000E+00 0.  1.
</event>
<event>
 5   0  0.4143600E+04  0.9118800E+02  0.7546771E-02  0.1180000E+00
      -11   -1    0    0    0    0  0.00000000000E+00  0.00000000000E+00  0.34996269501E-01  0.35000000000E-01  0.51099999109E-03 0.  1.
       11   -1    0    0    0    0 -0.00000000000E+00 -0.00000000000E+00 -0.34996269501E-01  0.35000000000E-01  0.51099999109E-03 0. -1.
       22    1    1    2    0    0  0.19624804211E-01 -0.14479570017E-02 -0.23929503634E-01  0.30981456776E-01  0.00000000000E+00 0. -1.
       22    1    1    2    0    0  0.59828204537E-03  0.16461024109E-03 -0.42581203555E-02  0.43030950372E-02  0.00000000000E+00 0. -1.
       22    1    1    2    0    0 -0.20223086257E-01  0.12833467606E-02  0.28187623989E-01  0.34715448187E-01  0.00000000000E+00 0.  1.
</event>
<event>
 5   0  0.4143600E+04  0.9118800E+02  0.7546771E-02  0.1180000E+00
      -11   -1    0    0    0    0  0.00000000000E+00  0.00000000000E+00  0.34996269501E-01  0.35000000000E-01  0.51099999109E-03 0.  1.
       11   -1    0    0    0    0 -0.00000000000E+00 -0.00000000000E+00 -0.34996269501E-01  0.35000000000E-01  0.51099999109E-03 0. -1.
       22    1    1    2    0    0 -0.86211655652E-03 -0.21980309392E-03 -0.34504824042E-01  0.34516292393E-01  0.00000000000E+00 0. -1.
       22    1    1    2    0    0  0.62449579996E-03  0.36188887035E-03  0.34951086777E-01  0.34958538663E-01  0.00000000000E+00 0.  1.
       22    1    1    2    0    0  0.23762075656E-03 -0.14208577644E-03 -0.44626273443E-03  0.52516894420E-03  0.00000000000E+00 0.  1.
</event>
<event>
 5   0  0.4143600E+04  0.9118800E+02  0.7546771E-02  0.1180000E+00
      -11   -1    0    0    0    0  0.00000000000E+00  0.00000000000E+00  0.34996269501E-01  0.35000000000E-01  0.51099999109E-03 0. -1.
       11   -1    0    0    0    0 -0.00000000000E+00 -0.00000000000E+00 -0.34996269501E-01  0.35000000000E-01  0.51099999109E-03 0.  1.
       22    1    1    2    0    0 -0.20198484276E-02 -0.18554135937E-01 -0.28225939785E-01  0.33838431181E-01  0.00000000000E+00 0.  1.
       22    1    1    2    0    0  0.19374634964E-02  0.18404110368E-01  0.29528286335E-01  0.34848023432E-01  0.00000000000E+00 0. -1.
       22    1    1    2    0    0  0.82384931171E-04  0.15002556863E-03 -0.13023465498E-02  0.13135453871E-02  0.00000000000E+00 0. -1.
</event>
<event>
 5   0  0.4143600E+04  0.9118800E+02  0.7546771E-02  0.1180000E+00
      -11   -1    0    0    0    0  0.00000000000E+00  0.00000000000E+00  0.34996269501E-01  0.35000000000E-01  0.51099999109E-03 0. -1.
       11   -1    0    0    0    0 -0.00000000000E+00 -0.00000000000E+00 -0.34996269501E-01  0.35000000000E-01  0.51099999109E-03 0.  1.
       22    1    1    2    0    0  0.81381429156E-02 -0.63028329093E-03 -0.19098977936E-01  0.20770112791E-01  0.00000000000E+00 0.  1.
       22    1    1    2    0    0  0.24734069152E-02 -0.15113925855E-02 -0.14056289809E-01  0.14352049767E-01  0.00000000000E+00 0.  1.
       22    1    1    2    0    0 -0.10611549831E-01  0.21416758764E-02  0.33155267745E-01  0.34877837442E-01  0.00000000000E+00 0. -1.
</event>
<event>
 5   0  0.4143600E+04  0.9118800E+02  0.7546771E-02  0.1180000E+00
      -11   -1    0    0    0    0  0.00000000000E+00  0.00000000000E+00  0.34996269501E-01  0.35000000000E-01  0.51099999109E-03 0. -1.
       11   -1    0    0    0    0 -0.00000000000E+00 -0.00000000000E+00 -0.34996269501E-01  0.35000000000E-01  0.51099999109E-03 0.  1.
       22    1    1    2    0    0  0.81555043494E-04  0.72878302050E-03 -0.27883397260E-01  0.27893038892E-01  0.00000000000E+00 0.  1.
       22    1    1    2    0    0  0.24827152744E-02 -0.14347062557E-02  0.34685265615E-01  0.34803590447E-01  0.00000000000E+00 0. -1.
       22    1    1    2    0    0 -0.25642703179E-02  0.70592323517E-03 -0.68018683558E-02  0.73033706607E-02  0.00000000000E+00 0.  1.
</event>
<event>
 5   0  0.4143600E+04  0.9118800E+02  0.7546771E-02  0.1180000E+00
      -11   -1    0    0    0    0  0.00000000000E+00  0.00000000000E+00  0.34996269501E-01  0.35000000000E-01  0.51099999109E-03 0. -1.
       11   -1    0    0    0    0 -0.00000000000E+00 -0.00000000000E+00 -0.34996269501E-01  0.35000000000E-01  0.51099999109E-03 0.  1.
       22    1    1    2    0    0  0.21809262043E-01  0.14748583576E-02 -0.27236779226E-01  0.34923649017E-01  0.00000000000E+00 0.  1.
       22    1    1    2    0    0 -0.21767263424E-01 -0.14639990172E-02  0.26441445205E-01  0.34279834810E-01  0.00000000000E+00 0. -1.
       22    1    1    2    0    0 -0.41998619497E-04 -0.10859340381E-04  0.79533402126E-03  0.79651617353E-03  0.00000000000E+00 0.  1.
</event>
<event>
 5   0  0.4143600E+04  0.9118800E+02  0.7546771E-02  0.1180000E+00
      -11   -1    0    0    0    0  0.00000000000E+00  0.00000000000E+00  0.34996269501E-01  0.35000000000E-01  0.51099999109E-03 0. -1.
       11   -1    0    0    0    0 -0.00000000000E+00 -0.00000000000E+00 -0.34996269501E-01  0.35000000000E-01  0.51099999109E-03 0.  1.
       22    1    1    2    0    0  0.15448742003E-01  0.12993098128E-01 -0.27435110677E-01  0.34061261372E-01  0.00000000000E+00 0.  1.
       22    1    1    2    0    0 -0.15191849538E-01 -0.12918260798E-01  0.19144814251E-01  0.27644125364E-01  0.00000000000E+00 0. -1.
       22    1    1    2    0    0 -0.25689246425E-03 -0.74837330158E-04  0.82902964264E-02  0.82946132641E-02  0.00000000000E+00 0. -1.
</event>
<event>
 5   0  0.4143600E+04  0.9118800E+02  0.7546771E-02  0.1180000E+00
      -11   -1    0    0    0    0  0.00000000000E+00  0.00000000000E+00  0.34996269501E-01  0.35000000000E-01  0.51099999109E-03 0.  1.
       11   -1    0    0    0    0 -0.00000000000E+00 -0.00000000000E+00 -0.34996269501E-01  0.35000000000E-01  0.51099999109E-03 0. -1.
       22    1    1    2    0    0 -0.98276255751E-03  0.27031035095E-02  0.34836102122E-01  0.34954636343E-01  0.00000000000E+00 0.  1.
       22    1    1    2    0    0  0.11607744542E-02 -0.29670563867E-02 -0.34027690707E-01  0.34176520534E-01  0.00000000000E+00 0. -1.
       22    1    1    2    0    0 -0.17801189667E-03  0.26395287725E-03 -0.80841141480E-03  0.86884312298E-03  0.00000000000E+00 0.  1.
</event>
<event>
 5   0  0.4143600E+04  0.9118800E+02  0.7546771E-02  0.1180000E+00
      -11   -1    0    0    0    0  0.00000000000E+00  0.00000000000E+00  0.34996269501E-01  0.35000000000E-01  0.51099999109E-03 0. -1.
       11   -1    0    0    0    0 -0.00000000000E+00 -0.00000000000E+00 -0.34996269501E-01  0.35000000000E-01  0.51099999109E-03 0.  1.
       22    1    1    2    0    0 -0.56508823383E-02  0.62094498895E-02 -0.17118456184E-01  0.19066496302E-01  0.00000000000E+00 0.  1.
       22    1    1    2    0    0 -0.13073407980E-02 -0.18982539897E-02 -0.16333141274E-01  0.16494969295E-01  0.00000000000E+00 0.  1.
       22    1    1    2    0    0  0.69582231363E-02 -0.43111958998E-02  0.33451597458E-01  0.34438534402E-01  0.00000000000E+00 0. -1.
</event>
<event>
 5   0  0.4143600E+04  0.9118800E+02  0.7546771E-02  0.1180000E+00
      -11   -1    0    0    0    0  0.00000000000E+00  0.00000000000E+00  0.34996269501E-01  0.35000000000E-01  0.51099999109E-03 0.  1.
       11   -1    0    0    0    0 -0.00000000000E+00 -0.00000000000E+00 -0.34996269501E-01  0.35000000000E-01  0.51099999109E-03 0. -1.
       22    1    1    2    0    0 -0.17664338833E-02  0.20323089226E-01 -0.24757135663E-01  0.32079027582E-01  0.00000000000E+00 0. -1.
       22    1    1    2    0    0 -0.20736389372E-03 -0.19254017140E-01  0.77337145113E-02  0.20750193155E-01  0.00000000000E+00 0.  1.
       22    1    1    2    0    0  0.19737977770E-02 -0.10690720864E-02  0.17023421152E-01  0.17170779263E-01  0.00000000000E+00 0.  1.
</event>
<event>
 5   0  0.4143600E+04  0.9118800E+02  0.7546771E-02  0.1180000E+00
      -11   -1    0    0    0    0  0.00000000000E+00  0.00000000000E+00  0.34996269501E-01  0.35000000000E-01  0.51099999109E-03 0. -1.
       11   -1    0    0    0    0 -0.00000000000E+00 -0.00000000000E+00 -0.34996269501E-01  0.35000000000E-01  0.51099999109E-03 0.  1.
       22    1    1    2    0    0  0.30160739683E-02 -0.13728166203E-01  0.32012233972E-01  0.34962013291E-01  0.00000000000E+00 0. -1.
       22    1    1    2    0    0 -0.41146412940E-04 -0.45651800146E-04 -0.68063467650E-03  0.68340374378E-03  0.00000000000E+00 0.  1.
       22    1    1    2    0    0 -0.29749275554E-02  0.13773818003E-01 -0.31331599295E-01  0.34354582966E-01  0.00000000000E+00 0.  1.
</event>
<event>
 5   0  0.4143600E+04  0.9118800E+02  0.7546771E-02  0.1180000E+00
      -11   -1    0    0    0    0  0.00000000000E+00  0.00000000000E+00  0.34996269501E-01  0.35000000000E-01  0.51099999109E-03 0. -1.
       11   -1    0    0    0    0 -0.00000000000E+00 -0.00000000000E+00 -0.34996269501E-01  0.35000000000E-01  0.51099999109E-03 0.  1.
       22    1    1    2    0    0  0.34720915901E-03 -0.57959682266E-03  0.59243953622E-02  0.59627969180E-02  0.00000000000E+00 0. -1.
       22    1    1    2    0    0 -0.91821760324E-02 -0.21457673499E-01 -0.24540228682E-01  0.33866900248E-01  0.00000000000E+00 0.  1.
       22    1    1    2    0    0  0.88349668734E-02  0.22037270321E-01  0.18615833320E-01  0.30170302834E-01  0.00000000000E+00 0. -1.
</event>
<event>
 5   0  0.4143600E+04  0.9118800E+02  0.7546771E-02  0.1180000E+00
      -11   -1    0    0    0    0  0.00000000000E+00  0.00000000000E+00  0.34996269501E-01  0.35000000000E-01  0.51099999109E-03 0. -1.
       11   -1    0    0    0    0 -0.00000000000E+00 -0.00000000000E+00 -0.34996269501E-01  0.35000000000E-01  0.51099999109E-03 0.  1.
       22    1    1    2    0    0 -0.24986699763E-02  0.14567712952E-01  0.30312447228E-01  0.33723968765E-01  0.00000000000E+00 0. -1.
       22    1    1    2    0    0 -0.15374867346E-02 -0.15425502804E-01 -0.26249523498E-01  0.30485201100E-01  0.00000000000E+00 0.  1.
       22    1    1    2    0    0  0.40361567109E-02  0.85778985189E-03 -0.40629237297E-02  0.57908301355E-02  0.00000000000E+00 0.  1.
</event>
<event>
 5   0  0.4143600E+04  0.9118800E+02  0.7546771E-02  0.1180000E+00
      -11   -1    0    0    0    0  0.00000000000E+00  0.00000000000E+00  0.34996269501E-01  0.35000000000E-01  0.51099999109E-03 0. -1.
       11   -1    0    0    0    0 -0.00000000000E+00 -0.00000000000E+00 -0.34996269501E-01  0.35000000000E-01  0.51099999109E-03 0.  1.
       22    1    1    2    0    0  0.13296143273E-01  0.17531085092E-03  0.32268332108E-01  0.34900765276E-01  0.00000000000E+00 0. -1.
       22    1    1    2    0    0 -0.12972909467E-01  0.73778657656E-04 -0.32158461408E-01  0.34676627048E-01  0.00000000000E+00 0.  1.
       22    1    1    2    0    0 -0.32323380554E-03 -0.24908950858E-03 -0.10987070066E-03  0.42260767526E-03  0.00000000000E+00 0. -1.
</event>
<event>
 5   0  0.4143600E+04  0.9118800E+02  0.7546771E-02  0.1180000E+00
      -11   -1    0    0    0    0  0.00000000000E+00  0.00000000000E+00  0.34996269501E-01  0.35000000000E-01  0.51099999109E-03 0. -1.
       11   -1    0    0    0    0 -0.00000000000E+00 -0.00000000000E+00 -0.34996269501E-01  0.35000000000E-01  0.51099999109E-03 0.  1.
       22    1    1    2    0    0 -0.15413676192E-02  0.24385931714E-03 -0.20099888472E-02  0.25446682829E-02  0.00000000000E+00 0.  1.
       22    1    1    2    0    0 -0.21056058302E-01 -0.99685245932E-02  0.24724898894E-01  0.33971306997E-01  0.00000000000E+00 0. -1.
       22    1    1    2    0    0  0.22597425921E-01  0.97246652761E-02 -0.22714910047E-01  0.33484024720E-01  0.00000000000E+00 0.  1.
</event>
<event>
 5   0  0.4143600E+04  0.9118800E+02  0.7546771E-02  0.1180000E+00
      -11   -1    0    0    0    0  0.00000000000E+00  0.00000000000E+00  0.34996269501E-01  0.35000000000E-01  0.51099999109E-03 0. -1.
       11   -1    0    0    0    0 -0.00000000000E+00 -0.00000000000E+00 -0.34996269501E-01  0.35000000000E-01  0.51099999109E-03 0.  1.
       22    1    1    2    0    0  0.11437094865E-02 -0.23493226714E-01 -0.25131292073E-01  0.34421237835E-01  0.00000000000E+00 0.  1.
       22    1    1    2    0    0 -0.14627133519E-02  0.23345732514E-01  0.25798773110E-01  0.34824408839E-01  0.00000000000E+00 0. -1.
       22    1    1    2    0    0  0.31900386536E-03  0.14749420007E-03 -0.66748103705E-03  0.75435332570E-03  0.00000000000E+00 0.  1.
</event>
<event>
 5   0  0.4143600E+04  0.9118800E+02  0.7546771E-02  0.1180000E+00
      -11   -1    0    0    0    0  0.00000000000E+00  0.00000000000E+00  0.34996269501E-01  0.35000000000E-01  0.51099999109E-03 0.  1.
       11   -1    0    0    0    0 -0.00000000000E+00 -0.00000000000E+00 -0.34996269501E-01  0.35000000000E-01  0.51099999109E-03 0. -1.
       22    1    1    2    0    0 -0.12615943221E-02 -0.45149944841E-04  0.34963192040E-01  0.34985975138E-01  0.00000000000E+00 0.  1.
       22    1    1    2    0    0  0.10846447341E-02  0.90643405539E-04 -0.34484170444E-01  0.34501343186E-01  0.00000000000E+00 0. -1.
       22    1    1    2    0    0  0.17694958800E-03 -0.45493460699E-04 -0.47902159534E-03  0.51268167557E-03  0.00000000000E+00 0.  1.
</event>
<event>
 5   0  0.4143600E+04  0.9118800E+02  0.7546771E-02  0.1180000E+00
      -11   -1    0    0    0    0  0.00000000000E+00  0.00000000000E+00  0.34996269501E-01  0.35000000000E-01  0.51099999109E-03 0. -1.
       11   -1    0    0    0    0 -0.00000000000E+00 -0.00000000000E+00 -0.34996269501E-01  0.35000000000E-01  0.51099999109E-03 0.  1.
       22    1    1    2    0    0 -0.14410973005E-02 -0.36113268431E-02 -0.42401071596E-02  0.57529950219E-02  0.00000000000E+00 0. -1.
       22    1    1    2    0    0  0.82698245286E-02  0.38927797654E-02 -0.28950978678E-01  0.30359560248E-01  0.00000000000E+00 0.  1.
       22    1    1    2    0    0 -0.68287272281E-02 -0.28145292231E-03  0.33191085837E-01  0.33887444730E-01  0.00000000000E+00 0. -1.
</event>
<event>
 5   0  0.4143600E+04  0.9118800E+02  0.7546771E-02  0.1180000E+00
      -11   -1    0    0    0    0  0.00000000000E+00  0.00000000000E+00  0.34996269501E-01  0.35000000000E-01  0.51099999109E-03 0.  1.
       11   -1    0    0    0    0 -0.00000000000E+00 -0.00000000000E+00 -0.34996269501E-01  0.35000000000E-01  0.51099999109E-03 0. -1.
       22    1    1    2    0    0 -0.20545261377E-01 -0.79520468345E-02 -0.26509407141E-01  0.34468702918E-01  0.00000000000E+00 0. -1.
       22    1    1    2    0    0 -0.17641077580E-03 -0.29629373715E-03 -0.43417638174E-03  0.55445457068E-03  0.00000000000E+00 0.  1.
       22    1    1    2    0    0  0.20721672152E-01  0.82483405717E-02  0.26943583523E-01  0.34976842511E-01  0.00000000000E+00 0.  1.
</event>
<event>
 5   0  0.4143600E+04  0.9118800E+02  0.7546771E-02  0.1180000E+00
      -11   -1    0    0    0    0  0.00000000000E+00  0.00000000000E+00  0.34996269501E-01  0.35000000000E-01  0.51099999109E-03 0. -1.
       11   -1    0    0    0    0 -0.00000000000E+00 -0.00000000000E+00 -0.34996269501E-01  0.35000000000E-01  0.51099999109E-03 0.  1.
       22    1    1    2    0    0 -0.32693394203E-05 -0.19003228542E-03 -0.45895974110E-03  0.49675648162E-03  0.00000000000E+00 0.  1.
       22    1    1    2    0    0  0.65933751339E-02  0.27525964814E-01  0.20521087599E-01  0.34960926344E-01  0.00000000000E+00 0. -1.
       22    1    1    2    0    0 -0.65901057945E-02 -0.27335932529E-01 -0.20062127858E-01  0.34542317174E-01  0.00000000000E+00 0.  1.
</event>
<event>
 5   0  0.4143600E+04  0.9118800E+02  0.7546771E-02  0.1180000E+00
      -11   -1    0    0    0    0  0.00000000000E+00  0.00000000000E+00  0.34996269501E-01  0.35000000000E-01  0.51099999109E-03 0.  1.
       11   -1    0    0    0    0 -0.00000000000E+00 -0.00000000000E+00 -0.34996269501E-01  0.35000000000E-01  0.51099999109E-03 0. -1.
       22    1    1    2    0    0 -0.37814971704E-03  0.48094641675E-02 -0.33846254524E-01  0.34188344331E-01  0.00000000000E+00 0. -1.
       22    1    1    2    0    0 -0.22630055673E-03 -0.45713868336E-02  0.34551187932E-01  0.34853025365E-01  0.00000000000E+00 0.  1.
       22    1    1    2    0    0  0.60445027377E-03 -0.23807733389E-03 -0.70493340888E-03  0.95863030483E-03  0.00000000000E+00 0. -1.
</event>
<event>
 5   0  0.4143600E+04  0.9118800E+02  0.7546771E-02  0.1180000E+00
      -11   -1    0    0    0    0  0.00000000000E+00  0.00000000000E+00  0.34996269501E-01  0.35000000000E-01  0.51099999109E-03 0. -1.
       11   -1    0    0    0    0 -0.00000000000E+00 -0.00000000000E+00 -0.34996269501E-01  0.35000000000E-01  0.51099999109E-03 0.  1.
       22    1    1    2    0    0 -0.24380565271E-02 -0.19631602289E-01 -0.25143939661E-01  0.31993149732E-01  0.00000000000E+00 0.  1.
       22    1    1    2    0    0  0.34497733972E-02  0.15952004877E-01  0.28553936702E-01  0.32889127341E-01  0.00000000000E+00 0. -1.
       22    1    1    2    0    0 -0.10117168701E-02  0.36795974125E-02 -0.34099970405E-02  0.51177229272E-02  0.00000000000E+00 0.  1.
</event>
<event>
 5   0  0.4143600E+04  0.9118800E+02  0.7546771E-02  0.1180000E+00
      -11   -1    0    0    0    0  0.00000000000E+00  0.00000000000E+00  0.34996269501E-01  0.35000000000E-01  0.51099999109E-03 0. -1.
       11   -1    0    0    0    0 -0.00000000000E+00 -0.00000000000E+00 -0.34996269501E-01  0.35000000000E-01  0.51099999109E-03 0.  1.
       22    1    1    2    0    0 -0.19102888650E-01 -0.24990636595E-02  0.28133624746E-01  0.34097896054E-01  0.00000000000E+00 0. -1.
       22    1    1    2    0    0  0.19077462482E-01  0.25246666414E-02 -0.29125968589E-01  0.34909104295E-01  0.00000000000E+00 0.  1.
       22    1    1    2    0    0  0.25426168108E-04 -0.25602981834E-04  0.99234384391E-03  0.99299965118E-03  0.00000000000E+00 0. -1.
</event>
<event>
 5   0  0.4143600E+04  0.9118800E+02  0.7546771E-02  0.1180000E+00
      -11   -1    0    0    0    0  0.00000000000E+00  0.00000000000E+00  0.34996269501E-01  0.35000000000E-01  0.51099999109E-03 0.  1.
       11   -1    0    0    0    0 -0.00000000000E+00 -0.00000000000E+00 -0.34996269501E-01  0.35000000000E-01  0.51099999109E-03 0. -1.
       22    1    1    2    0    0  0.60353279461E-03 -0.42776240991E-03 -0.20836397103E-02  0.22110601429E-02  0.00000000000E+00 0. -1.
       22    1    1    2    0    0 -0.38541467703E-02  0.16784005202E-02 -0.32630675790E-01  0.32900341611E-01  0.00000000000E+00 0. -1.
       22    1    1    2    0    0  0.32506139757E-02 -0.12506381103E-02  0.34714315500E-01  0.34888598246E-01  0.00000000000E+00 0.  1.
</event>
<event>
 5   0  0.4143600E+04  0.9118800E+02  0.7546771E-02  0.1180000E+00
      -11   -1    0    0    0    0  0.00000000000E+00  0.00000000000E+00  0.34996269501E-01  0.35000000000E-01  0.51099999109E-03 0. -1.
       11   -1    0    0    0    0 -0.00000000000E+00 -0.00000000000E+00 -0.34996269501E-01  0.35000000000E-01  0.51099999109E-03 0.  1.
       22    1    1    2    0    0 -0.35947810552E-02  0.12927241235E-01 -0.59287862694E-03  0.13430842187E-01  0.00000000000E+00 0. -1.
       22    1    1    2    0    0 -0.20422183926E-03  0.10953024354E-02  0.26683309070E-01  0.26706560560E-01  0.00000000000E+00 0. -1.
       22    1    1    2    0    0  0.37990028945E-02 -0.14022543671E-01 -0.26090430443E-01  0.29862597253E-01  0.00000000000E+00 0.  1.
</event>
<event>
 5   0  0.4143600E+04  0.9118800E+02  0.7546771E-02  0.1180000E+00
      -11   -1    0    0    0    0  0.00000000000E+00  0.00000000000E+00  0.34996269501E-01  0.35000000000E-01  0.51099999109E-03 0. -1.
       11   -1    0    0    0    0 -0.00000000000E+00 -0.00000000000E+00 -0.34996269501E-01  0.35000000000E-01  0.51099999109E-03 0.  1.
       22    1    1    2    0    0  0.21916332445E-02  0.22864982160E-01 -0.24587948903E-01  0.33647851294E-01  0.00000000000E+00 0.  1.
       22    1    1    2    0    0 -0.27405110822E-04 -0.48544040498E-03 -0.16955318704E-02  0.17638684050E-02  0.00000000000E+00 0.  1.
       22    1    1    2    0    0 -0.21642281337E-02 -0.22379541755E-01  0.26283480774E-01  0.34588280301E-01  0.00000000000E+00 0. -1.
</event>
<event>
 5   0  0.4143600E+04  0.9118800E+02  0.7546771E-02  0.1180000E+00
      -11   -1    0    0    0    0  0.00000000000E+00  0.00000000000E+00  0.34996269501E-01  0.35000000000E-01  0.51099999109E-03 0. -1.
       11   -1    0    0    0    0 -0.00000000000E+00 -0.00000000000E+00 -0.34996269501E-01  0.35000000000E-01  0.51099999109E-03 0.  1.
       22    1    1    2    0    0 -0.49158431984E-03 -0.76900608368E-03  0.20399519663E-01  0.20419927227E-01  0.00000000000E+00 0. -1.
       22    1    1    2    0    0  0.12108129479E-01 -0.79012698008E-02  0.88387619147E-02  0.16945812938E-01  0.00000000000E+00 0. -1.
       22    1    1    2    0    0 -0.11616545159E-01  0.86702758844E-02 -0.29238281577E-01  0.32634259835E-01  0.00000000000E+00 0.  1.
</event>
<event>
 5   0  0.4143600E+04  0.9118800E+02  0.7546771E-02  0.1180000E+00
      -11   -1    0    0    0    0  0.00000000000E+00  0.00000000000E+00  0.34996269501E-01  0.35000000000E-01  0.51099999109E-03 0.  1.
       11   -1    0    0    0    0 -0.00000000000E+00 -0.00000000000E+00 -0.34996269501E-01  0.35000000000E-01  0.51099999109E-03 0. -1.
       22    1    1    2    0    0  0.12359308300E-01 -0.19256101283E-01  0.11795898009E-01  0.25742827119E-01  0.00000000000E+00 0. -1.
       22    1    1    2    0    0 -0.11264448974E-01  0.18023497184E-01 -0.23933255263E-01  0.32008357798E-01  0.00000000000E+00 0.  1.
       22    1    1    2    0    0 -0.10948593256E-02  0.12326040987E-02  0.12137357254E-01  0.12248815083E-01  0.00000000000E+00 0.  1.
</event>
<event>
 5   0  0.4143600E+04  0.9118800E+02  0.7546771E-02  0.1180000E+00
      -11   -1    0    0    0    0  0.00000000000E+00  0.00000000000E+00  0.34996269501E-01  0.35000000000E-01  0.51099999109E-03 0.  1.
       11   -1    0    0    0    0 -0.00000000000E+00 -0.00000000000E+00 -0.34996269501E-01  0.35000000000E-01  0.51099999109E-03 0. -1.
       22    1    1    2    0    0  0.91271895702E-04 -0.10567614969E-03  0.11813586634E-01  0.11814411842E-01  0.00000000000E+00 0.  1.
       22    1    1    2    0    0 -0.80909465884E-02 -0.16371646653E-01  0.16401869799E-01  0.24546192449E-01  0.00000000000E+00 0.  1.
       22    1    1    2    0    0  0.79996746927E-02  0.16477322803E-01 -0.28215456433E-01  0.33639395709E-01  0.00000000000E+00 0. -1.
</event>
<event>
 5   0  0.4143600E+04  0.9118800E+02  0.7546771E-02  0.1180000E+00
      -11   -1    0    0    0    0  0.00000000000E+00  0.00000000000E+00  0.34996269501E-01  0.35000000000E-01  0.51099999109E-03 0. -1.
       11   -1    0    0    0    0 -0.00000000000E+00 -0.00000000000E+00 -0.34996269501E-01  0.35000000000E-01  0.51099999109E-03 0.  1.
       22    1    1    2    0    0 -0.42677908996E-02  0.16094958438E-01  0.29538713335E-01  0.33908661309E-01  0.00000000000E+00 0. -1.
       22    1    1    2    0    0  0.13546203618E-03  0.12746441826E-03  0.11332159816E-02  0.11483795549E-02  0.00000000000E+00 0. -1.
       22    1    1    2    0    0  0.41323288634E-02 -0.16222422856E-01 -0.30671929317E-01  0.34942959136E-01  0.00000000000E+00 0.  1.
</event>
<event>
 5   0  0.4143600E+04  0.9118800E+02  0.7546771E-02  0.1180000E+00
      -11   -1    0    0    0    0  0.00000000000E+00  0.00000000000E+00  0.34996269501E-01  0.35000000000E-01  0.51099999109E-03 0. -1.
       11   -1    0    0    0    0 -0.00000000000E+00 -0.00000000000E+00 -0.34996269501E-01  0.35000000000E-01  0.51099999109E-03 0.  1.
       22    1    1    2    0    0  0.30681276010E-02  0.13694313117E-01 -0.32035498110E-01  0.34974573019E-01  0.00000000000E+00 0.  1.
       22    1    1    2    0    0 -0.25519443861E-02 -0.13114211536E-01  0.29767813423E-01  0.32628479590E-01  0.00000000000E+00 0. -1.
       22    1    1    2    0    0 -0.51618321484E-03 -0.58010158121E-03  0.22676846866E-02  0.23969473907E-02  0.00000000000E+00 0. -1.
</event>
<event>
 5   0  0.4143600E+04  0.9118800E+02  0.7546771E-02  0.1180000E+00
      -11   -1    0    0    0    0  0.00000000000E+00  0.00000000000E+00  0.34996269501E-01  0.35000000000E-01  0.51099999109E-03 0. -1.
       11   -1    0    0    0    0 -0.00000000000E+00 -0.00000000000E+00 -0.34996269501E-01  0.35000000000E-01  0.51099999109E-03 0.  1.
       22    1    1    2    0    0 -0.30857389495E-03  0.18151733603E-04  0.41502018737E-03  0.51748342002E-03  0.00000000000E+00 0.  1.
       22    1    1    2    0    0 -0.11234932938E-01  0.17499047200E-02  0.32566574912E-01  0.34494458775E-01  0.00000000000E+00 0. -1.
       22    1    1    2    0    0  0.11543506833E-01 -0.17680564536E-02 -0.32981595100E-01  0.34988057805E-01  0.00000000000E+00 0.  1.
</event>
<event>
 5   0  0.4143600E+04  0.9118800E+02  0.7546771E-02  0.1180000E+00
      -11   -1    0    0    0    0  0.00000000000E+00  0.00000000000E+00  0.34996269501E-01  0.35000000000E-01  0.51099999109E-03 0.  1.
       11   -1    0    0    0    0 -0.00000000000E+00 -0.00000000000E+00 -0.34996269501E-01  0.35000000000E-01  0.51099999109E-03 0. -1.
       22    1    1    2    0    0 -0.67182649430E-03 -0.20776429920E-03  0.34324216524E-01  0.34331419383E-01  0.00000000000E+00 0.  1.
       22    1    1    2    0    0  0.44282089118E-02  0.12157655166E-02 -0.26881788096E-01  0.27271187199E-01  0.00000000000E+00 0. -1.
       22    1    1    2    0    0 -0.37563824175E-02 -0.10080012174E-02 -0.74424284279E-02  0.83973934185E-02  0.00000000000E+00 0.  1.
</event>
<event>
 5   0  0.4143600E+04  0.9118800E+02  0.7546771E-02  0.1180000E+00
      -11   -1    0    0    0    0  0.00000000000E+00  0.00000000000E+00  0.34996269501E-01  0.35000000000E-01  0.51099999109E-03 0.  1.
       11   -1    0    0    0    0 -0.00000000000E+00 -0.00000000000E+00 -0.34996269501E-01  0.35000000000E-01  0.51099999109E-03 0. -1.
       22    1    1    2    0    0 -0.30507013503E-02 -0.11043430972E-01 -0.32882246879E-01  0.34821061244E-01  0.00000000000E+00 0. -1.
       22    1    1    2    0    0  0.23724704855E-02  0.10381050072E-01  0.32420332704E-01  0.34124372367E-01  0.00000000000E+00 0.  1.
       22    1    1    2    0    0  0.67823086479E-03  0.66238089976E-03  0.46191417525E-03  0.10545663884E-02  0.00000000000E+00 0. -1.
</event>
<event>
 5   0  0.4143600E+04  0.9118800E+02  0.7546771E-02  0.1180000E+00
      -11   -1    0    0    0    0  0.00000000000E+00  0.00000000000E+00  0.34996269501E-01  0.35000000000E-01  0.51099999109E-03 0.  1.
       11   -1    0    0    0    0 -0.00000000000E+00 -0.00000000000E+00 -0.34996269501E-01  0.35000000000E-01  0.51099999109E-03 0. -1.
       22    1    1    2    0    0 -0.85959743790E-02 -0.84344814762E-02 -0.31488192267E-01  0.33712571922E-01  0.00000000000E+00 0. -1.
       22    1    1    2    0    0  0.64790362705E-02  0.70110639417E-02  0.32243463248E-01  0.33626980994E-01  0.00000000000E+00 0.  1.
       22    1    1    2    0    0  0.21169381084E-02  0.14234175346E-02 -0.75527098033E-03  0.26604470839E-02  0.00000000000E+00 0. -1.
</event>
<event>
 5   0  0.4143600E+04  0.9118800E+02  0.7546771E-02  0.1180000E+00
      -11   -1    0    0    0    0  0.00000000000E+00  0.00000000000E+00  0.34996269501E-01  0.35000000000E-01  0.51099999109E-03 0. -1.
       11   -1    0    0    0    0 -0.00000000000E+00 -0.00000000000E+00 -0.34996269501E-01  0.35000000000E-01  0.51099999109E-03 0.  1.
       22    1    1    2    0    0 -0.12737769296E-01 -0.90466875847E-02  0.30560908594E-01  0.34322914460E-01  0.00000000000E+00 0. -1.
       22    1    1    2    0    0  0.92229096135E-02  0.27256903097E-02 -0.24216290973E-01  0.26056097134E-01  0.00000000000E+00 0.  1.
       22    1    1    2    0    0  0.35148596827E-02  0.63209972750E-02 -0.63446176219E-02  0.96209884060E-02  0.00000000000E+00 0.  1.
</event>
<event>
 5   0  0.4143600E+04  0.9118800E+02  0.7546771E-02  0.1180000E+00
      -11   -1    0    0    0    0  0.00000000000E+00  0.00000000000E+00  0.34996269501E-01  0.35000000000E-01  0.51099999109E-03 0.  1.
       11   -1    0    0    0    0 -0.00000000000E+00 -0.00000000000E+00 -0.34996269501E-01  0.35000000000E-01  0.51099999109E-03 0. -1.
       22    1    1    2    0    0  0.17407260921E-01 -0.46639659456E-02  0.29534703206E-01  0.34598612755E-01  0.00000000000E+00 0.  1.
       22    1    1    2    0    0 -0.17395464397E-01  0.46678024466E-02 -0.29970182237E-01  0.34965731575E-01  0.00000000000E+00 0. -1.
       22    1    1    2    0    0 -0.11796523601E-04 -0.38365010130E-05  0.43547903113E-03  0.43565567052E-03  0.00000000000E+00 0. -1.
</event>
<event>
 5   0  0.4143600E+04  0.9118800E+02  0.7546771E-02  0.1180000E+00
      -11   -1    0    0    0    0  0.00000000000E+00  0.00000000000E+00  0.34996269501E-01  0.35000000000E-01  0.51099999109E-03 0.  1.
       11   -1    0    0    0    0 -0.00000000000E+00 -0.00000000000E+00 -0.34996269501E-01  0.35000000000E-01  0.51099999109E-03 0. -1.
       22    1    1    2    0    0 -0.15530428801E-01 -0.34387444913E-02 -0.29964724290E-01  0.33924974343E-01  0.00000000000E+00 0. -1.
       22    1    1    2    0    0 -0.61582382978E-03 -0.25629734278E-03  0.10480907944E-01  0.10502112104E-01  0.00000000000E+00 0.  1.
       22    1    1    2    0    0  0.16146252631E-01  0.36950418341E-02  0.19483816346E-01  0.25572913553E-01  0.00000000000E+00 0.  1.
</event>
<event>
 5   0  0.4143600E+04  0.9118800E+02  0.7546771E-02  0.1180000E+00
      -11   -1    0    0    0    0  0.00000000000E+00  0.00000000000E+00  0.34996269501E-01  0.35000000000E-01  0.51099999109E-03 0.  1.
       11   -1    0    0    0    0 -0.00000000000E+00 -0.00000000000E+00 -0.34996269501E-01  0.35000000000E-01  0.51099999109E-03 0. -1.
       22    1    1    2    0    0 -0.80392486381E-02 -0.93188359631E-02 -0.31227750202E-01  0.33565497241E-01  0.00000000000E+00 0. -1.
       22    1    1    2    0    0 -0.31835856404E-03  0.10280995921E-01  0.15591710951E-01  0.18678910024E-01  0.00000000000E+00 0.  1.
       22    1    1    2    0    0  0.83576072022E-02 -0.96215995760E-03  0.15636039250E-01  0.17755592735E-01  0.00000000000E+00 0.  1.
</event>
<event>
 5   0  0.4143600E+04  0.9118800E+02  0.7546771E-02  0.1180000E+00
      -11   -1    0    0    0    0  0.00000000000E+00  0.00000000000E+00  0.34996269501E-01  0.35000000000E-01  0.51099999109E-03 0. -1.
       11   -1    0    0    0    0 -0.00000000000E+00 -0.00000000000E+00 -0.34996269501E-01  0.35000000000E-01  0.51099999109E-03 0.  1.
       22    1    1    2    0    0 -0.29171211467E-03 -0.12653588235E-03  0.33959607156E-01  0.33961095764E-01  0.00000000000E+00 0. -1.
       22    1    1    2    0    0  0.36412694489E-02  0.42864124247E-02 -0.24855372971E-01  0.25483754437E-01  0.00000000000E+00 0.  1.
       22    1    1    2    0    0 -0.33495573342E-02 -0.41598765423E-02 -0.91042341853E-02  0.10555149799E-01  0.00000000000E+00 0. -1.
</event>
<event>
 5   0  0.4143600E+04  0.9118800E+02  0.7546771E-02  0.1180000E+00
      -11   -1    0    0    0    0  0.00000000000E+00  0.00000000000E+00  0.34996269501E-01  0.35000000000E-01  0.51099999109E-03 0.  1.
       11   -1    0    0    0    0 -0.00000000000E+00 -0.00000000000E+00 -0.34996269501E-01  0.35000000000E-01  0.51099999109E-03 0. -1.
       22    1    1    2    0    0  0.49953308375E-04  0.21437640723E-03 -0.38525306332E-03  0.44370316631E-03  0.00000000000E+00 0. -1.
       22    1    1    2    0    0 -0.14668416975E-03 -0.39991100243E-02  0.34751994757E-01  0.34981645714E-01  0.00000000000E+00 0.  1.
       22    1    1    2    0    0  0.96730861371E-04  0.37847336170E-02 -0.34366741694E-01  0.34574651120E-01  0.00000000000E+00 0. -1.
</event>
<event>
 5   0  0.4143600E+04  0.9118800E+02  0.7546771E-02  0.1180000E+00
      -11   -1    0    0    0    0  0.00000000000E+00  0.00000000000E+00  0.34996269501E-01  0.35000000000E-01  0.51099999109E-03 0. -1.
       11   -1    0    0    0    0 -0.00000000000E+00 -0.00000000000E+00 -0.34996269501E-01  0.35000000000E-01  0.51099999109E-03 0.  1.
       22    1    1    2    0    0 -0.76167465550E-03  0.60385690430E-03 -0.21970369459E-02  0.24024493300E-02  0.00000000000E+00 0. -1.
       22    1    1    2    0    0  0.18480204918E-01  0.21016578670E-01  0.20052270785E-01  0.34428304002E-01  0.00000000000E+00 0. -1.
       22    1    1    2    0    0 -0.17718530263E-01 -0.21620435574E-01 -0.17855233839E-01  0.33169246668E-01  0.00000000000E+00 0.  1.
</event>
<event>
 5   0  0.4143600E+04  0.9118800E+02  0.7546771E-02  0.1180000E+00
      -11   -1    0    0    0    0  0.00000000000E+00  0.00000000000E+00  0.34996269501E-01  0.35000000000E-01  0.51099999109E-03 0.  1.
       11   -1    0    0    0    0 -0.00000000000E+00 -0.00000000000E+00 -0.34996269501E-01  0.35000000000E-01  0.51099999109E-03 0. -1.
       22    1    1    2    0    0  0.20548040393E-02  0.69263152437E-02  0.33696147302E-01  0.34461955916E-01  0.00000000000E+00 0.  1.
       22    1    1    2    0    0 -0.24791274455E-03 -0.43832351892E-03 -0.22262969144E-01  0.22268663708E-01  0.00000000000E+00 0. -1.
       22    1    1    2    0    0 -0.18068912948E-02 -0.64879917248E-02 -0.11433178159E-01  0.13269380377E-01  0.00000000000E+00 0. -1.
</event>
<event>
 5   0  0.4143600E+04  0.9118800E+02  0.7546771E-02  0.1180000E+00
      -11   -1    0    0    0    0  0.00000000000E+00  0.00000000000E+00  0.34996269501E-01  0.35000000000E-01  0.51099999109E-03 0.  1.
       11   -1    0    0    0    0 -0.00000000000E+00 -0.00000000000E+00 -0.34996269501E-01  0.35000000000E-01  0.51099999109E-03 0. -1.
       22    1    1    2    0    0 -0.78385061309E-02  0.75866940520E-02  0.33175391980E-01  0.34922868411E-01  0.00000000000E+00 0.  1.
       22    1    1    2    0    0  0.80905694021E-02 -0.76245225818E-02 -0.32053479679E-01  0.33926629914E-01  0.00000000000E+00 0. -1.
       22    1    1    2    0    0 -0.25206327120E-03  0.37828529838E-04 -0.11219123018E-02  0.11505016746E-02  0.00000000000E+00 0. -1.
</event>
<event>
 5   0  0.4143600E+04  0.9118800E+02  0.7546771E-02  0.1180000E+00
      -11   -1    0    0    0    0  0.00000000000E+00  0.00000000000E+00  0.34996269501E-01  0.35000000000E-01  0.51099999109E-03 0. -1.
       11   -1    0    0    0    0 -0.00000000000E+00 -0.00000000000E+00 -0.34996269501E-01  0.35000000000E-01  0.51099999109E-03 0.  1.
       22    1    1    2    0    0  0.10825384839E-03  0.19319575794E-03 -0.33052726636E-03  0.39785898304E-03  0.00000000000E+00 0. -1.
       22    1    1    2    0    0  0.81304294082E-02  0.47160216552E-02  0.33645770350E-01  0.34933974940E-01  0.00000000000E+00 0. -1.
       22    1    1    2    0    0 -0.82386832566E-02 -0.49092174132E-02 -0.33315243084E-01  0.34668166077E-01  0.00000000000E+00 0.  1.
</event>
<event>
 5   0  0.4143600E+04  0.9118800E+02  0.7546771E-02  0.1180000E+00
      -11   -1    0    0    0    0  0.00000000000E+00  0.00000000000E+00  0.34996269501E-01  0.35000000000E-01  0.51099999109E-03 0.  1.
       11   -1    0    0    0    0 -0.00000000000E+00 -0.00000000000E+00 -0.34996269501E-01  0.35000000000E-01  0.51099999109E-03 0.  1.
       22    1    1    2    0    0  0.10166216341E-02 -0.65586945109E-03  0.34905706258E-01  0.34926666226E-01  0.00000000000E+00 0.  1.
       22    1    1    2    0    0 -0.86690096700E-03  0.11662549262E-02 -0.33937908174E-01  0.33969004681E-01  0.00000000000E+00 0.  1.
       22    1    1    2    0    0 -0.14972066711E-03 -0.51038547506E-03 -0.96779808491E-03  0.11043290925E-02  0.00000000000E+00 0.  1.
</event>
<event>
 5   0  0.4143600E+04  0.9118800E+02  0.7546771E-02  0.1180000E+00
      -11   -1    0    0    0    0  0.00000000000E+00  0.00000000000E+00  0.34996269501E-01  0.35000000000E-01  0.51099999109E-03 0. -1.
       11   -1    0    0    0    0 -0.00000000000E+00 -0.00000000000E+00 -0.34996269501E-01  0.35000000000E-01  0.51099999109E-03 0.  1.
       22    1    1    2    0    0 -0.33309954095E-01 -0.61391087648E-02  0.11232611300E-02  0.33889576772E-01  0.00000000000E+00 0.  1.
       22    1    1    2    0    0  0.33855374279E-01  0.70184553463E-02  0.10821621399E-04  0.34575210775E-01  0.00000000000E+00 0. -1.
       22    1    1    2    0    0 -0.54542018451E-03 -0.87934658154E-03 -0.11340827514E-02  0.15352124528E-02  0.00000000000E+00 0.  1.
</event>
<event>
 5   0  0.4143600E+04  0.9118800E+02  0.7546771E-02  0.1180000E+00
      -11   -1    0    0    0    0  0.00000000000E+00  0.00000000000E+00  0.34996269501E-01  0.35000000000E-01  0.51099999109E-03 0. -1.
       11   -1    0    0    0    0 -0.00000000000E+00 -0.00000000000E+00 -0.34996269501E-01  0.35000000000E-01  0.51099999109E-03 0.  1.
       22    1    1    2    0    0 -0.13584780115E-02  0.18208287593E-02  0.34798764282E-01  0.34872838649E-01  0.00000000000E+00 0. -1.
       22    1    1    2    0    0  0.10883473991E-02 -0.23260472331E-02 -0.34207886450E-01  0.34304146851E-01  0.00000000000E+00 0.  1.
       22    1    1    2    0    0  0.27013061243E-03  0.50521847380E-03 -0.59087783277E-03  0.82301450005E-03  0.00000000000E+00 0.  1.
</event>
<event>
 5   0  0.4143600E+04  0.9118800E+02  0.7546771E-02  0.1180000E+00
      -11   -1    0    0    0    0  0.00000000000E+00  0.00000000000E+00  0.34996269501E-01  0.35000000000E-01  0.51099999109E-03 0.  1.
       11   -1    0    0    0    0 -0.00000000000E+00 -0.00000000000E+00 -0.34996269501E-01  0.35000000000E-01  0.51099999109E-03 0. -1.
       22    1    1    2    0    0  0.55795980774E-02 -0.14817731804E-01 -0.29694859277E-01  0.33652366306E-01  0.00000000000E+00 0. -1.
       22    1    1    2    0    0 -0.58106917680E-02  0.14698430098E-01  0.31117515965E-01  0.34901400918E-01  0.00000000000E+00 0.  1.
       22    1    1    2    0    0  0.23109369062E-03  0.11930170577E-03 -0.14226566880E-02  0.14462327761E-02  0.00000000000E+00 0. -1.
</event>
<event>
 5   0  0.4143600E+04  0.9118800E+02  0.7546771E-02  0.1180000E+00
      -11   -1    0    0    0    0  0.00000000000E+00  0.00000000000E+00  0.34996269501E-01  0.35000000000E-01  0.51099999109E-03 0.  1.
       11   -1    0    0    0    0 -0.00000000000E+00 -0.00000000000E+00 -0.34996269501E-01  0.35000000000E-01  0.51099999109E-03 0. -1.
       22    1    1    2    0    0  0.19871970398E-01 -0.14479085673E-01  0.24492129093E-01  0.34704517241E-01  0.00000000000E+00 0.  1.
       22    1    1    2    0    0 -0.20198595095E-01  0.13724513573E-01 -0.22778007512E-01  0.33394357949E-01  0.00000000000E+00 0. -1.
       22    1    1    2    0    0  0.32662469683E-03  0.75457210057E-03 -0.17141215815E-02  0.19011248102E-02  0.00000000000E+00 0. -1.
</event>
<event>
 5   0  0.4143600E+04  0.9118800E+02  0.7546771E-02  0.1180000E+00
      -11   -1    0    0    0    0  0.00000000000E+00  0.00000000000E+00  0.34996269501E-01  0.35000000000E-01  0.51099999109E-03 0. -1.
       11   -1    0    0    0    0 -0.00000000000E+00 -0.00000000000E+00 -0.34996269501E-01  0.35000000000E-01  0.51099999109E-03 0.  1.
       22    1    1    2    0    0 -0.65787976189E-02  0.10262475113E-01 -0.32590232403E-01  0.34795433919E-01  0.00000000000E+00 0.  1.
       22    1    1    2    0    0 -0.93706799777E-03 -0.86224089573E-03  0.28661051379E-02  0.31362580341E-02  0.00000000000E+00 0.  1.
       22    1    1    2    0    0  0.75158656167E-02 -0.94002342170E-02  0.29724127265E-01  0.32068308047E-01  0.00000000000E+00 0. -1.
</event>
<event>
 5   0  0.4143600E+04  0.9118800E+02  0.7546771E-02  0.1180000E+00
      -11   -1    0    0    0    0  0.00000000000E+00  0.00000000000E+00  0.34996269501E-01  0.35000000000E-01  0.51099999109E-03 0.  1.
       11   -1    0    0    0    0 -0.00000000000E+00 -0.00000000000E+00 -0.34996269501E-01  0.35000000000E-01  0.51099999109E-03 0. -1.
       22    1    1    2    0    0  0.10921109968E-01  0.15331513804E-01 -0.22982948145E-01  0.29707606162E-01  0.00000000000E+00 0. -1.
       22    1    1    2    0    0 -0.11037085791E-01 -0.15037536841E-01  0.28883625101E-01  0.34383260112E-01  0.00000000000E+00 0.  1.
       22    1    1    2    0    0  0.11597582294E-03 -0.29397696361E-03 -0.59006769561E-02  0.59091337256E-02  0.00000000000E+00 0.  1.
</event>
<event>
 5   0  0.4143600E+04  0.9118800E+02  0.7546771E-02  0.1180000E+00
      -11   -1    0    0    0    0  0.00000000000E+00  0.00000000000E+00  0.34996269501E-01  0.35000000000E-01  0.51099999109E-03 0. -1.
       11   -1    0    0    0    0 -0.00000000000E+00 -0.00000000000E+00 -0.34996269501E-01  0.35000000000E-01  0.51099999109E-03 0.  1.
       22    1    1    2    0    0  0.41598951900E-04 -0.25076122509E-04 -0.52393605185E-03  0.52618273551E-03  0.00000000000E+00 0.  1.
       22    1    1    2    0    0  0.13229620094E-01  0.18011155671E-02  0.32322316801E-01  0.34971403010E-01  0.00000000000E+00 0. -1.
       22    1    1    2    0    0 -0.13271219046E-01 -0.17760394445E-02 -0.31798380749E-01  0.34502414254E-01  0.00000000000E+00 0.  1.
</event>
<event>
 5   0  0.4143600E+04  0.9118800E+02  0.7546771E-02  0.1180000E+00
      -11   -1    0    0    0    0  0.00000000000E+00  0.00000000000E+00  0.34996269501E-01  0.35000000000E-01  0.51099999109E-03 0. -1.
       11   -1    0    0    0    0 -0.00000000000E+00 -0.00000000000E+00 -0.34996269501E-01  0.35000000000E-01  0.51099999109E-03 0.  1.
       22    1    1    2    0    0  0.16663750397E-01  0.49782210271E-02  0.29977531853E-01  0.34657115834E-01  0.00000000000E+00 0. -1.
       22    1    1    2    0    0 -0.25105409629E-04 -0.50433206802E-05  0.37376343184E-03  0.37463958635E-03  0.00000000000E+00 0. -1.
       22    1    1    2    0    0 -0.16638644988E-01 -0.49731777064E-02 -0.30351295285E-01  0.34968244580E-01  0.00000000000E+00 0.  1.
</event>
<event>
 5   0  0.4143600E+04  0.9118800E+02  0.7546771E-02  0.1180000E+00
      -11   -1    0    0    0    0  0.00000000000E+00  0.00000000000E+00  0.34996269501E-01  0.35000000000E-01  0.51099999109E-03 0. -1.
       11   -1    0    0    0    0 -0.00000000000E+00 -0.00000000000E+00 -0.34996269501E-01  0.35000000000E-01  0.51099999109E-03 0.  1.
       22    1    1    2    0    0 -0.12361201929E-01 -0.12877784023E-01 -0.30039752023E-01  0.34943144336E-01  0.00000000000E+00 0. -1.
       22    1    1    2    0    0  0.62467466172E-05 -0.32921140745E-04  0.71870005876E-03  0.71948078349E-03  0.00000000000E+00 0.  1.
       22    1    1    2    0    0  0.12354955183E-01  0.12910705164E-01  0.29321051964E-01  0.34337374881E-01  0.00000000000E+00 0.  1.
</event>
<event>
 5   0  0.4143600E+04  0.9118800E+02  0.7546771E-02  0.1180000E+00
      -11   -1    0    0    0    0  0.00000000000E+00  0.00000000000E+00  0.34996269501E-01  0.35000000000E-01  0.51099999109E-03 0.  1.
       11   -1    0    0    0    0 -0.00000000000E+00 -0.00000000000E+00 -0.34996269501E-01  0.35000000000E-01  0.51099999109E-03 0. -1.
       22    1    1    2    0    0 -0.14766016466E-01  0.14268479512E-02 -0.19032644421E-01  0.24131156023E-01  0.00000000000E+00 0. -1.
       22    1    1    2    0    0 -0.18983823898E-02  0.28209020239E-02  0.26788596113E-01  0.27003522467E-01  0.00000000000E+00 0.  1.
       22    1    1    2    0    0  0.16664398855E-01 -0.42477499751E-02 -0.77559516918E-02  0.18865321511E-01  0.00000000000E+00 0.  1.
</event>
<event>
 5   0  0.4143600E+04  0.9118800E+02  0.7546771E-02  0.1180000E+00
      -11   -1    0    0    0    0  0.00000000000E+00  0.00000000000E+00  0.34996269501E-01  0.35000000000E-01  0.51099999109E-03 0. -1.
       11   -1    0    0    0    0 -0.00000000000E+00 -0.00000000000E+00 -0.34996269501E-01  0.35000000000E-01  0.51099999109E-03 0.  1.
       22    1    1    2    0    0 -0.39337343319E-03  0.21392372954E-02 -0.30240373893E-01  0.30318497523E-01  0.00000000000E+00 0.  1.
       22    1    1    2    0    0 -0.61656293762E-03 -0.51950097760E-02  0.34189292935E-01  0.34587223477E-01  0.00000000000E+00 0. -1.
       22    1    1    2    0    0  0.10099363708E-02  0.30557724807E-02 -0.39489190418E-02  0.50942789996E-02  0.00000000000E+00 0.  1.
</event>
<event>
 5   0  0.4143600E+04  0.9118800E+02  0.7546771E-02  0.1180000E+00
      -11   -1    0    0    0    0  0.00000000000E+00  0.00000000000E+00  0.34996269501E-01  0.35000000000E-01  0.51099999109E-03 0.  1.
       11   -1    0    0    0    0 -0.00000000000E+00 -0.00000000000E+00 -0.34996269501E-01  0.35000000000E-01  0.51099999109E-03 0. -1.
       22    1    1    2    0    0  0.83838801605E-02  0.24316211519E-03  0.33738680153E-01  0.34765602437E-01  0.00000000000E+00 0.  1.
       22    1    1    2    0    0 -0.36606300027E-02 -0.18886223321E-02 -0.23275927689E-01  0.23637595396E-01  0.00000000000E+00 0. -1.
       22    1    1    2    0    0 -0.47232501578E-02  0.16454602169E-02 -0.10462752464E-01  0.11596802167E-01  0.00000000000E+00 0. -1.
</event>
<event>
 5   0  0.4143600E+04  0.9118800E+02  0.7546771E-02  0.1180000E+00
      -11   -1    0    0    0    0  0.00000000000E+00  0.00000000000E+00  0.34996269501E-01  0.35000000000E-01  0.51099999109E-03 0. -1.
       11   -1    0    0    0    0 -0.00000000000E+00 -0.00000000000E+00 -0.34996269501E-01  0.35000000000E-01  0.51099999109E-03 0.  1.
       22    1    1    2    0    0  0.47364106212E-02  0.12551104746E-01  0.30439922350E-01  0.33264886722E-01  0.00000000000E+00 0. -1.
       22    1    1    2    0    0 -0.38901091680E-02 -0.16299485297E-02  0.17311481068E-03  0.42213327618E-02  0.00000000000E+00 0.  1.
       22    1    1    2    0    0 -0.84630145321E-03 -0.10921156216E-01 -0.30613037161E-01  0.32513780516E-01  0.00000000000E+00 0.  1.
</event>
<event>
 5   0  0.4143600E+04  0.9118800E+02  0.7546771E-02  0.1180000E+00
      -11   -1    0    0    0    0  0.00000000000E+00  0.00000000000E+00  0.34996269501E-01  0.35000000000E-01  0.51099999109E-03 0.  1.
       11   -1    0    0    0    0 -0.00000000000E+00 -0.00000000000E+00 -0.34996269501E-01  0.35000000000E-01  0.51099999109E-03 0. -1.
       22    1    1    2    0    0  0.20867736516E-01 -0.11232912525E-01 -0.25728408185E-01  0.34979876198E-01  0.00000000000E+00 0. -1.
       22    1    1    2    0    0 -0.20207695035E-01  0.10889504224E-01  0.24421704263E-01  0.33516441935E-01  0.00000000000E+00 0.  1.
       22    1    1    2    0    0 -0.66004148156E-03  0.34340830099E-03  0.13067039214E-02  0.15036818669E-02  0.00000000000E+00 0. -1.
</event>
<event>
 5   0  0.4143600E+04  0.9118800E+02  0.7546771E-02  0.1180000E+00
      -11   -1    0    0    0    0  0.00000000000E+00  0.00000000000E+00  0.34996269501E-01  0.35000000000E-01  0.51099999109E-03 0. -1.
       11   -1    0    0    0    0 -0.00000000000E+00 -0.00000000000E+00 -0.34996269501E-01  0.35000000000E-01  0.51099999109E-03 0.  1.
       22    1    1    2    0    0 -0.55822776068E-02 -0.13297885535E-01  0.30776338094E-01  0.33987917992E-01  0.00000000000E+00 0. -1.
       22    1    1    2    0    0  0.15439848139E-03 -0.33463435810E-03  0.97056942971E-03  0.10381830583E-02  0.00000000000E+00 0. -1.
       22    1    1    2    0    0  0.54278791254E-02  0.13632519893E-01 -0.31746907523E-01  0.34973898950E-01  0.00000000000E+00 0.  1.
</event>
<event>
 5   0  0.4143600E+04  0.9118800E+02  0.7546771E-02  0.1180000E+00
      -11   -1    0    0    0    0  0.00000000000E+00  0.00000000000E+00  0.34996269501E-01  0.35000000000E-01  0.51099999109E-03 0. -1.
       11   -1    0    0    0    0 -0.00000000000E+00 -0.00000000000E+00 -0.34996269501E-01  0.35000000000E-01  0.51099999109E-03 0.  1.
       22    1    1    2    0    0  0.22128524275E-02 -0.91846305282E-03 -0.46478046661E-02  0.52289940198E-02  0.00000000000E+00 0.  1.
       22    1    1    2    0    0 -0.81374642166E-03  0.33257858063E-03 -0.30038595730E-01  0.30051456290E-01  0.00000000000E+00 0.  1.
       22    1    1    2    0    0 -0.13991060058E-02  0.58588447219E-03  0.34686400396E-01  0.34719549690E-01  0.00000000000E+00 0. -1.
</event>
<event>
 5   0  0.4143600E+04  0.9118800E+02  0.7546771E-02  0.1180000E+00
      -11   -1    0    0    0    0  0.00000000000E+00  0.00000000000E+00  0.34996269501E-01  0.35000000000E-01  0.51099999109E-03 0.  1.
       11   -1    0    0    0    0 -0.00000000000E+00 -0.00000000000E+00 -0.34996269501E-01  0.35000000000E-01  0.51099999109E-03 0. -1.
       22    1    1    2    0    0  0.53953999078E-02  0.21074149075E-01 -0.27324157867E-01  0.34926203666E-01  0.00000000000E+00 0. -1.
       22    1    1    2    0    0 -0.53676964179E-02 -0.20574440070E-01  0.27255684484E-01  0.34568657563E-01  0.00000000000E+00 0.  1.
       22    1    1    2    0    0 -0.27703489843E-04 -0.49970900514E-03  0.68473382603E-04  0.50513877033E-03  0.00000000000E+00 0.  1.
</event>
<event>
 5   0  0.4143600E+04  0.9118800E+02  0.7546771E-02  0.1180000E+00
      -11   -1    0    0    0    0  0.00000000000E+00  0.00000000000E+00  0.34996269501E-01  0.35000000000E-01  0.51099999109E-03 0. -1.
       11   -1    0    0    0    0 -0.00000000000E+00 -0.00000000000E+00 -0.34996269501E-01  0.35000000000E-01  0.51099999109E-03 0.  1.
       22    1    1    2    0    0 -0.96605479168E-04 -0.31100064648E-03 -0.20717500716E-04  0.32631769114E-03  0.00000000000E+00 0. -1.
       22    1    1    2    0    0 -0.10428102298E-01  0.89803271387E-02 -0.32020040643E-01  0.34852182082E-01  0.00000000000E+00 0.  1.
       22    1    1    2    0    0  0.10524707777E-01 -0.86693264922E-02  0.32040758144E-01  0.34821500227E-01  0.00000000000E+00 0. -1.
</event>
<event>
 5   0  0.4143600E+04  0.9118800E+02  0.7546771E-02  0.1180000E+00
      -11   -1    0    0    0    0  0.00000000000E+00  0.00000000000E+00  0.34996269501E-01  0.35000000000E-01  0.51099999109E-03 0. -1.
       11   -1    0    0    0    0 -0.00000000000E+00 -0.00000000000E+00 -0.34996269501E-01  0.35000000000E-01  0.51099999109E-03 0.  1.
       22    1    1    2    0    0 -0.83695566567E-02 -0.10205476341E-01 -0.30682176052E-01  0.33400556182E-01  0.00000000000E+00 0.  1.
       22    1    1    2    0    0 -0.23986714692E-02  0.60527637732E-02  0.19385746990E-01  0.20449859668E-01  0.00000000000E+00 0. -1.
       22    1    1    2    0    0  0.10768228126E-01  0.41527125680E-02  0.11296429062E-01  0.16149584150E-01  0.00000000000E+00 0. -1.
</event>
<event>
 5   0  0.4143600E+04  0.9118800E+02  0.7546771E-02  0.1180000E+00
      -11   -1    0    0    0    0  0.00000000000E+00  0.00000000000E+00  0.34996269501E-01  0.35000000000E-01  0.51099999109E-03 0. -1.
       11   -1    0    0    0    0 -0.00000000000E+00 -0.00000000000E+00 -0.34996269501E-01  0.35000000000E-01  0.51099999109E-03 0.  1.
       22    1    1    2    0    0 -0.36992471202E-02 -0.17765082032E-02 -0.18701980671E-01  0.19146918595E-01  0.00000000000E+00 0.  1.
       22    1    1    2    0    0  0.12405426405E-02 -0.36758215613E-02  0.34107407899E-01  0.34327334353E-01  0.00000000000E+00 0. -1.
       22    1    1    2    0    0  0.24587044797E-02  0.54523297645E-02 -0.15405427227E-01  0.16525747052E-01  0.00000000000E+00 0. -1.
</event>
<event>
 5   0  0.4143600E+04  0.9118800E+02  0.7546771E-02  0.1180000E+00
      -11   -1    0    0    0    0  0.00000000000E+00  0.00000000000E+00  0.34996269501E-01  0.35000000000E-01  0.51099999109E-03 0.  1.
       11   -1    0    0    0    0 -0.00000000000E+00 -0.00000000000E+00 -0.34996269501E-01  0.35000000000E-01  0.51099999109E-03 0. -1.
       22    1    1    2    0    0  0.13823634736E-03  0.18123207620E-04  0.38361960287E-02  0.38387286579E-02  0.00000000000E+00 0.  1.
       22    1    1    2    0    0 -0.17273788198E-01  0.16278228912E-01 -0.24966723823E-01  0.34448538339E-01  0.00000000000E+00 0. -1.
       22    1    1    2    0    0  0.17135551850E-01 -0.16296352120E-01  0.21130527795E-01  0.31712733003E-01  0.00000000000E+00 0.  1.
</event>
<event>
 5   0  0.4143600E+04  0.9118800E+02  0.7546771E-02  0.1180000E+00
      -11   -1    0    0    0    0  0.00000000000E+00  0.00000000000E+00  0.34996269501E-01  0.35000000000E-01  0.51099999109E-03 0. -1.
       11   -1    0    0    0    0 -0.00000000000E+00 -0.00000000000E+00 -0.34996269501E-01  0.35000000000E-01  0.51099999109E-03 0.  1.
       22    1    1    2    0    0  0.15311604392E-01 -0.88619923161E-02  0.13494335105E-01  0.22250330712E-01  0.00000000000E+00 0. -1.
       22    1    1    2    0    0 -0.12536742011E-01  0.45430679650E-02 -0.28729309885E-01  0.31673058161E-01  0.00000000000E+00 0.  1.
       22    1    1    2    0    0 -0.27748623810E-02  0.43189243511E-02  0.15234974780E-01  0.16076611127E-01  0.00000000000E+00 0.  1.
</event>
<event>
 5   0  0.4143600E+04  0.9118800E+02  0.7546771E-02  0.1180000E+00
      -11   -1    0    0    0    0  0.00000000000E+00  0.00000000000E+00  0.34996269501E-01  0.35000000000E-01  0.51099999109E-03 0.  1.
       11   -1    0    0    0    0 -0.00000000000E+00 -0.00000000000E+00 -0.34996269501E-01  0.35000000000E-01  0.51099999109E-03 0. -1.
       22    1    1    2    0    0 -0.12690146968E-03 -0.13348026391E-02  0.25849725861E-01  0.25884476605E-01  0.00000000000E+00 0.  1.
       22    1    1    2    0    0  0.90063927797E-03  0.12616546460E-01 -0.29610015181E-01  0.32198468825E-01  0.00000000000E+00 0. -1.
       22    1    1    2    0    0 -0.77373780829E-03 -0.11281743821E-01  0.37602893202E-02  0.11917054569E-01  0.00000000000E+00 0.  1.
</event>
<event>
 5   0  0.4143600E+04  0.9118800E+02  0.7546771E-02  0.1180000E+00
      -11   -1    0    0    0    0  0.00000000000E+00  0.00000000000E+00  0.34996269501E-01  0.35000000000E-01  0.51099999109E-03 0. -1.
       11   -1    0    0    0    0 -0.00000000000E+00 -0.00000000000E+00 -0.34996269501E-01  0.35000000000E-01  0.51099999109E-03 0.  1.
       22    1    1    2    0    0  0.17172716573E-01  0.91061297507E-04 -0.25064657328E-01  0.30383343029E-01  0.00000000000E+00 0.  1.
       22    1    1    2    0    0  0.10722023246E-03 -0.13881424871E-02 -0.48497866042E-02  0.50456779375E-02  0.00000000000E+00 0.  1.
       22    1    1    2    0    0 -0.17279936805E-01  0.12970811896E-02  0.29914443932E-01  0.34570979034E-01  0.00000000000E+00 0. -1.
</event>
<event>
 5   0  0.4143600E+04  0.9118800E+02  0.7546771E-02  0.1180000E+00
      -11   -1    0    0    0    0  0.00000000000E+00  0.00000000000E+00  0.34996269501E-01  0.35000000000E-01  0.51099999109E-03 0.  1.
       11   -1    0    0    0    0 -0.00000000000E+00 -0.00000000000E+00 -0.34996269501E-01  0.35000000000E-01  0.51099999109E-03 0. -1.
       22    1    1    2    0    0 -0.37690613933E-02  0.16496659385E-01 -0.29901183565E-01  0.34357333617E-01  0.00000000000E+00 0. -1.
       22    1    1    2    0    0 -0.42727446830E-04 -0.51770322445E-04 -0.69517430196E-03  0.69840755373E-03  0.00000000000E+00 0. -1.
       22    1    1    2    0    0  0.38117888401E-02 -0.16444889062E-01  0.30596357867E-01  0.34944258830E-01  0.00000000000E+00 0.  1.
</event>
<event>
 5   0  0.4143600E+04  0.9118800E+02  0.7546771E-02  0.1180000E+00
      -11   -1    0    0    0    0  0.00000000000E+00  0.00000000000E+00  0.34996269501E-01  0.35000000000E-01  0.51099999109E-03 0. -1.
       11   -1    0    0    0    0 -0.00000000000E+00 -0.00000000000E+00 -0.34996269501E-01  0.35000000000E-01  0.51099999109E-03 0.  1.
       22    1    1    2    0    0  0.13471830625E-01  0.17114130710E-03  0.31758967031E-01  0.34498572385E-01  0.00000000000E+00 0. -1.
       22    1    1    2    0    0 -0.48579660007E-04  0.42003198760E-04  0.52942638659E-03  0.53330718248E-03  0.00000000000E+00 0. -1.
       22    1    1    2    0    0 -0.13423250965E-01 -0.21314450586E-03 -0.32288393418E-01  0.34968120432E-01  0.00000000000E+00 0.  1.
</event>
<event>
 5   0  0.4143600E+04  0.9118800E+02  0.7546771E-02  0.1180000E+00
      -11   -1    0    0    0    0  0.00000000000E+00  0.00000000000E+00  0.34996269501E-01  0.35000000000E-01  0.51099999109E-03 0.  1.
       11   -1    0    0    0    0 -0.00000000000E+00 -0.00000000000E+00 -0.34996269501E-01  0.35000000000E-01  0.51099999109E-03 0. -1.
       22    1    1    2    0    0 -0.17360855068E-01 -0.10185078270E-01  0.26900562443E-01  0.33597252385E-01  0.00000000000E+00 0.  1.
       22    1    1    2    0    0  0.80942972295E-04  0.95729430657E-03  0.15719041519E-02  0.18422396198E-02  0.00000000000E+00 0.  1.
       22    1    1    2    0    0  0.17279912096E-01  0.92277839634E-02 -0.28472466595E-01  0.34560507995E-01  0.00000000000E+00 0. -1.
</event>
<event>
 5   0  0.4143600E+04  0.9118800E+02  0.7546771E-02  0.1180000E+00
      -11   -1    0    0    0    0  0.00000000000E+00  0.00000000000E+00  0.34996269501E-01  0.35000000000E-01  0.51099999109E-03 0.  1.
       11   -1    0    0    0    0 -0.00000000000E+00 -0.00000000000E+00 -0.34996269501E-01  0.35000000000E-01  0.51099999109E-03 0. -1.
       22    1    1    2    0    0 -0.91997594664E-02  0.20844307149E-02 -0.10331042773E-01  0.13989670133E-01  0.00000000000E+00 0. -1.
       22    1    1    2    0    0  0.11329908377E-02 -0.81246493502E-03  0.32425239732E-01  0.32455198955E-01  0.00000000000E+00 0.  1.
       22    1    1    2    0    0  0.80667686287E-02 -0.12719657798E-02 -0.22094196959E-01  0.23555130913E-01  0.00000000000E+00 0.  1.
</event>
<event>
 5   0  0.4143600E+04  0.9118800E+02  0.7546771E-02  0.1180000E+00
      -11   -1    0    0    0    0  0.00000000000E+00  0.00000000000E+00  0.34996269501E-01  0.35000000000E-01  0.51099999109E-03 0.  1.
       11   -1    0    0    0    0 -0.00000000000E+00 -0.00000000000E+00 -0.34996269501E-01  0.35000000000E-01  0.51099999109E-03 0. -1.
       22    1    1    2    0    0  0.17694603782E-02 -0.80650907000E-03 -0.20457352453E-01  0.20549567302E-01  0.00000000000E+00 0.  1.
       22    1    1    2    0    0  0.38096195291E-02 -0.30148036105E-02 -0.13748988556E-01  0.14582075575E-01  0.00000000000E+00 0. -1.
       22    1    1    2    0    0 -0.55790799073E-02  0.38213126805E-02  0.34206341009E-01  0.34868357123E-01  0.00000000000E+00 0.  1.
</event>
<event>
 5   0  0.4143600E+04  0.9118800E+02  0.7546771E-02  0.1180000E+00
      -11   -1    0    0    0    0  0.00000000000E+00  0.00000000000E+00  0.34996269501E-01  0.35000000000E-01  0.51099999109E-03 0.  1.
       11   -1    0    0    0    0 -0.00000000000E+00 -0.00000000000E+00 -0.34996269501E-01  0.35000000000E-01  0.51099999109E-03 0. -1.
       22    1    1    2    0    0 -0.49786928799E-02  0.37836046396E-02  0.27836293685E-02  0.68448257336E-02  0.00000000000E+00 0.  1.
       22    1    1    2    0    0 -0.10436091341E-01  0.17020497237E-02  0.27097626539E-01  0.29087632075E-01  0.00000000000E+00 0.  1.
       22    1    1    2    0    0  0.15414784220E-01 -0.54856543633E-02 -0.29881255907E-01  0.34067542191E-01  0.00000000000E+00 0. -1.
</event>
<event>
 5   0  0.4143600E+04  0.9118800E+02  0.7546771E-02  0.1180000E+00
      -11   -1    0    0    0    0  0.00000000000E+00  0.00000000000E+00  0.34996269501E-01  0.35000000000E-01  0.51099999109E-03 0.  1.
       11   -1    0    0    0    0 -0.00000000000E+00 -0.00000000000E+00 -0.34996269501E-01  0.35000000000E-01  0.51099999109E-03 0. -1.
       22    1    1    2    0    0  0.72315890335E-03 -0.11165293025E-02 -0.27959347243E-03  0.13593266688E-02  0.00000000000E+00 0. -1.
       22    1    1    2    0    0  0.19760023751E-01  0.33044879470E-03 -0.27655903227E-01  0.33991421246E-01  0.00000000000E+00 0. -1.
       22    1    1    2    0    0 -0.20483182655E-01  0.78608050779E-03  0.27935496699E-01  0.34649252085E-01  0.00000000000E+00 0.  1.
</event>
<event>
 5   0  0.4143600E+04  0.9118800E+02  0.7546771E-02  0.1180000E+00
      -11   -1    0    0    0    0  0.00000000000E+00  0.00000000000E+00  0.34996269501E-01  0.35000000000E-01  0.51099999109E-03 0.  1.
       11   -1    0    0    0    0 -0.00000000000E+00 -0.00000000000E+00 -0.34996269501E-01  0.35000000000E-01  0.51099999109E-03 0. -1.
       22    1    1    2    0    0  0.22331134651E-03  0.15463082957E-03 -0.34033044771E-03  0.43543479945E-03  0.00000000000E+00 0.  1.
       22    1    1    2    0    0 -0.32996803398E-02  0.10369011128E-02  0.34787879950E-01  0.34959399961E-01  0.00000000000E+00 0.  1.
       22    1    1    2    0    0  0.30763689933E-02 -0.11915319424E-02 -0.34447549502E-01  0.34605165239E-01  0.00000000000E+00 0. -1.
</event>
<event>
 5   0  0.4143600E+04  0.9118800E+02  0.7546771E-02  0.1180000E+00
      -11   -1    0    0    0    0  0.00000000000E+00  0.00000000000E+00  0.34996269501E-01  0.35000000000E-01  0.51099999109E-03 0.  1.
       11   -1    0    0    0    0 -0.00000000000E+00 -0.00000000000E+00 -0.34996269501E-01  0.35000000000E-01  0.51099999109E-03 0. -1.
       22    1    1    2    0    0  0.72260416061E-04 -0.79376236206E-05 -0.84787857213E-03  0.85098921655E-03  0.00000000000E+00 0.  1.
       22    1    1    2    0    0 -0.13572639060E-01 -0.16119129623E-01 -0.27001030453E-01  0.34250525782E-01  0.00000000000E+00 0. -1.
       22    1    1    2    0    0  0.13500378644E-01  0.16127067247E-01  0.27848909025E-01  0.34898485001E-01  0.00000000000E+00 0.  1.
</event>
<event>
 5   0  0.4143600E+04  0.9118800E+02  0.7546771E-02  0.1180000E+00
      -11   -1    0    0    0    0  0.00000000000E+00  0.00000000000E+00  0.34996269501E-01  0.35000000000E-01  0.51099999109E-03 0. -1.
       11   -1    0    0    0    0 -0.00000000000E+00 -0.00000000000E+00 -0.34996269501E-01  0.35000000000E-01  0.51099999109E-03 0.  1.
       22    1    1    2    0    0  0.56240614426E-03 -0.11235460724E-02 -0.34533261396E-01  0.34556110879E-01  0.00000000000E+00 0.  1.
       22    1    1    2    0    0 -0.75010968971E-03  0.11100141458E-02  0.34955734076E-01  0.34981397067E-01  0.00000000000E+00 0. -1.
       22    1    1    2    0    0  0.18770354545E-03  0.13531926604E-04 -0.42247268041E-03  0.46249205366E-03  0.00000000000E+00 0. -1.
</event>
<event>
 5   0  0.4143600E+04  0.9118800E+02  0.7546771E-02  0.1180000E+00
      -11   -1    0    0    0    0  0.00000000000E+00  0.00000000000E+00  0.34996269501E-01  0.35000000000E-01  0.51099999109E-03 0. -1.
       11   -1    0    0    0    0 -0.00000000000E+00 -0.00000000000E+00 -0.34996269501E-01  0.35000000000E-01  0.51099999109E-03 0.  1.
       22    1    1    2    0    0 -0.44781034844E-03 -0.16688769311E-02 -0.31925895448E-01  0.31972620857E-01  0.00000000000E+00 0.  1.
       22    1    1    2    0    0  0.43725872734E-03 -0.93510543345E-03 -0.29134138779E-02  0.30908894820E-02  0.00000000000E+00 0.  1.
       22    1    1    2    0    0  0.10551621100E-04  0.26039823645E-02  0.34839309326E-01  0.34936489661E-01  0.00000000000E+00 0. -1.
</event>
<event>
 5   0  0.4143600E+04  0.9118800E+02  0.7546771E-02  0.1180000E+00
      -11   -1    0    0    0    0  0.00000000000E+00  0.00000000000E+00  0.34996269501E-01  0.35000000000E-01  0.51099999109E-03 0.  1.
       11   -1    0    0    0    0 -0.00000000000E+00 -0.00000000000E+00 -0.34996269501E-01  0.35000000000E-01  0.51099999109E-03 0. -1.
       22    1    1    2    0    0  0.25415798156E-03  0.12366269766E-03 -0.20770711972E-02  0.20962140875E-02  0.00000000000E+00 0.  1.
       22    1    1    2    0    0  0.14648947414E-01  0.95849157412E-02 -0.27964282686E-01  0.32991868336E-01  0.00000000000E+00 0. -1.
       22    1    1    2    0    0 -0.14903105396E-01 -0.97085784389E-02  0.30041353884E-01  0.34911917577E-01  0.00000000000E+00 0.  1.
</event>
<event>
 5   0  0.4143600E+04  0.9118800E+02  0.7546771E-02  0.1180000E+00
      -11   -1    0    0    0    0  0.00000000000E+00  0.00000000000E+00  0.34996269501E-01  0.35000000000E-01  0.51099999109E-03 0.  1.
       11   -1    0    0    0    0 -0.00000000000E+00 -0.00000000000E+00 -0.34996269501E-01  0.35000000000E-01  0.51099999109E-03 0. -1.
       22    1    1    2    0    0 -0.19332454829E-02  0.55881669987E-02  0.34406907045E-01  0.34911320527E-01  0.00000000000E+00 0.  1.
       22    1    1    2    0    0  0.62041134308E-03 -0.22522787220E-02 -0.57205646490E-02  0.61792013707E-02  0.00000000000E+00 0. -1.
       22    1    1    2    0    0  0.13128341398E-02 -0.33358882767E-02 -0.28686342396E-01  0.28909478102E-01  0.00000000000E+00 0. -1.
</event>
<event>
 5   0  0.4143600E+04  0.9118800E+02  0.7546771E-02  0.1180000E+00
      -11   -1    0    0    0    0  0.00000000000E+00  0.00000000000E+00  0.34996269501E-01  0.35000000000E-01  0.51099999109E-03 0. -1.
       11   -1    0    0    0    0 -0.00000000000E+00 -0.00000000000E+00 -0.34996269501E-01  0.35000000000E-01  0.51099999109E-03 0.  1.
       22    1    1    2    0    0  0.29025686709E-02 -0.20582729653E-02 -0.24678656841E-01  0.24933862436E-01  0.00000000000E+00 0.  1.
       22    1    1    2    0    0 -0.95072218231E-03  0.45381114657E-02 -0.95902179275E-02  0.10652258363E-01  0.00000000000E+00 0. -1.
       22    1    1    2    0    0 -0.19518464886E-02 -0.24798385004E-02  0.34268874769E-01  0.34413879201E-01  0.00000000000E+00 0. -1.
</event>
<event>
 5   0  0.4143600E+04  0.9118800E+02  0.7546771E-02  0.1180000E+00
      -11   -1    0    0    0    0  0.00000000000E+00  0.00000000000E+00  0.34996269501E-01  0.35000000000E-01  0.51099999109E-03 0. -1.
       11   -1    0    0    0    0 -0.00000000000E+00 -0.00000000000E+00 -0.34996269501E-01  0.35000000000E-01  0.51099999109E-03 0.  1.
       22    1    1    2    0    0 -0.28102227871E-03  0.16997335271E-03 -0.11217018208E-01  0.11221825250E-01  0.00000000000E+00 0.  1.
       22    1    1    2    0    0  0.10386946798E-01  0.95133180489E-02 -0.20060696702E-01  0.24511699987E-01  0.00000000000E+00 0.  1.
       22    1    1    2    0    0 -0.10105924519E-01 -0.96832914017E-02  0.31277714910E-01  0.34266474764E-01  0.00000000000E+00 0. -1.
</event>
<event>
 5   0  0.4143600E+04  0.9118800E+02  0.7546771E-02  0.1180000E+00
      -11   -1    0    0    0    0  0.00000000000E+00  0.00000000000E+00  0.34996269501E-01  0.35000000000E-01  0.51099999109E-03 0.  1.
       11   -1    0    0    0    0 -0.00000000000E+00 -0.00000000000E+00 -0.34996269501E-01  0.35000000000E-01  0.51099999109E-03 0. -1.
       22    1    1    2    0    0  0.61120247700E-04 -0.30474551341E-03  0.29682890324E-02  0.29845175980E-02  0.00000000000E+00 0.  1.
       22    1    1    2    0    0 -0.51682527496E-02  0.14139412488E-01  0.28517484244E-01  0.32247181731E-01  0.00000000000E+00 0.  1.
       22    1    1    2    0    0  0.51071325019E-02 -0.13834666975E-01 -0.31485773277E-01  0.34768300671E-01  0.00000000000E+00 0. -1.
</event>
<event>
 5   0  0.4143600E+04  0.9118800E+02  0.7546771E-02  0.1180000E+00
      -11   -1    0    0    0    0  0.00000000000E+00  0.00000000000E+00  0.34996269501E-01  0.35000000000E-01  0.51099999109E-03 0.  1.
       11   -1    0    0    0    0 -0.00000000000E+00 -0.00000000000E+00 -0.34996269501E-01  0.35000000000E-01  0.51099999109E-03 0. -1.
       22    1    1    2    0    0 -0.58376980407E-03 -0.10841650899E-02 -0.16707373670E-02  0.20754672910E-02  0.00000000000E+00 0. -1.
       22    1    1    2    0    0  0.23009473791E-01  0.15551401794E-01  0.21129763925E-01  0.34896259189E-01  0.00000000000E+00 0.  1.
       22    1    1    2    0    0 -0.22425703987E-01 -0.14467236704E-01 -0.19459026558E-01  0.33028273520E-01  0.00000000000E+00 0. -1.
</event>
<event>
 5   0  0.4143600E+04  0.9118800E+02  0.7546771E-02  0.1180000E+00
      -11   -1    0    0    0    0  0.00000000000E+00  0.00000000000E+00  0.34996269501E-01  0.35000000000E-01  0.51099999109E-03 0.  1.
       11   -1    0    0    0    0 -0.00000000000E+00 -0.00000000000E+00 -0.34996269501E-01  0.35000000000E-01  0.51099999109E-03 0. -1.
       22    1    1    2    0    0  0.17178133887E-03  0.59402183020E-04  0.10258561427E-02  0.10418340910E-02  0.00000000000E+00 0. -1.
       22    1    1    2    0    0 -0.36146611266E-02  0.15331629791E-01 -0.31177519511E-01  0.34930822635E-01  0.00000000000E+00 0. -1.
       22    1    1    2    0    0  0.34428797877E-02 -0.15391031974E-01  0.30151663368E-01  0.34027343274E-01  0.00000000000E+00 0.  1.
</event>
<event>
 5   0  0.4143600E+04  0.9118800E+02  0.7546771E-02  0.1180000E+00
      -11   -1    0    0    0    0  0.00000000000E+00  0.00000000000E+00  0.34996269501E-01  0.35000000000E-01  0.51099999109E-03 0.  1.
       11   -1    0    0    0    0 -0.00000000000E+00 -0.00000000000E+00 -0.34996269501E-01  0.35000000000E-01  0.51099999109E-03 0. -1.
       22    1    1    2    0    0 -0.13515374054E-03  0.10567196319E-01 -0.28521231624E-01  0.30416189077E-01  0.00000000000E+00 0. -1.
       22    1    1    2    0    0 -0.51060140274E-04 -0.10160014972E-01 -0.86248304940E-03  0.10196685166E-01  0.00000000000E+00 0.  1.
       22    1    1    2    0    0  0.18621388081E-03 -0.40718134769E-03  0.29383714674E-01  0.29387125757E-01  0.00000000000E+00 0.  1.
</event>
<event>
 5   0  0.4143600E+04  0.9118800E+02  0.7546771E-02  0.1180000E+00
      -11   -1    0    0    0    0  0.00000000000E+00  0.00000000000E+00  0.34996269501E-01  0.35000000000E-01  0.51099999109E-03 0.  1.
       11   -1    0    0    0    0 -0.00000000000E+00 -0.00000000000E+00 -0.34996269501E-01  0.35000000000E-01  0.51099999109E-03 0. -1.
       22    1    1    2    0    0  0.34485959703E-02 -0.24302183686E-02 -0.66532440689E-02  0.78780982556E-02  0.00000000000E+00 0. -1.
       22    1    1    2    0    0 -0.14310767016E-01  0.26597445557E-01 -0.87870000582E-02  0.31455262402E-01  0.00000000000E+00 0. -1.
       22    1    1    2    0    0  0.10862171046E-01 -0.24167227189E-01  0.15440244127E-01  0.30666639342E-01  0.00000000000E+00 0.  1.
</event>
<event>
 5   0  0.4143600E+04  0.9118800E+02  0.7546771E-02  0.1180000E+00
      -11   -1    0    0    0    0  0.00000000000E+00  0.00000000000E+00  0.34996269501E-01  0.35000000000E-01  0.51099999109E-03 0.  1.
       11   -1    0    0    0    0 -0.00000000000E+00 -0.00000000000E+00 -0.34996269501E-01  0.35000000000E-01  0.51099999109E-03 0. -1.
       22    1    1    2    0    0  0.17982048705E-01 -0.17343530381E-01  0.21059367291E-01  0.32674899731E-01  0.00000000000E+00 0.  1.
       22    1    1    2    0    0 -0.17582277928E-01  0.20080999147E-01 -0.14887954778E-01  0.30561973453E-01  0.00000000000E+00 0. -1.
       22    1    1    2    0    0 -0.39977077699E-03 -0.27374687656E-02 -0.61714125134E-02  0.67631268159E-02  0.00000000000E+00 0.  1.
</event>
<event>
 5   0  0.4143600E+04  0.9118800E+02  0.7546771E-02  0.1180000E+00
      -11   -1    0    0    0    0  0.00000000000E+00  0.00000000000E+00  0.34996269501E-01  0.35000000000E-01  0.51099999109E-03 0. -1.
       11   -1    0    0    0    0 -0.00000000000E+00 -0.00000000000E+00 -0.34996269501E-01  0.35000000000E-01  0.51099999109E-03 0.  1.
       22    1    1    2    0    0  0.30619121737E-02  0.61114492007E-02  0.34264354370E-01  0.34939534884E-01  0.00000000000E+00 0. -1.
       22    1    1    2    0    0  0.20886834178E-03 -0.79110375933E-03 -0.15237848348E-02  0.17295639233E-02  0.00000000000E+00 0. -1.
       22    1    1    2    0    0 -0.32707805155E-02 -0.53203454414E-02 -0.32740569536E-01  0.33330901193E-01  0.00000000000E+00 0.  1.
</event>
<event>
 5   0  0.4143600E+04  0.9118800E+02  0.7546771E-02  0.1180000E+00
      -11   -1    0    0    0    0  0.00000000000E+00  0.00000000000E+00  0.34996269501E-01  0.35000000000E-01  0.51099999109E-03 0.  1.
       11   -1    0    0    0    0 -0.00000000000E+00 -0.00000000000E+00 -0.34996269501E-01  0.35000000000E-01  0.51099999109E-03 0. -1.
       22    1    1    2    0    0  0.19734272847E-02  0.12342706749E-02  0.34814490871E-01  0.34892214231E-01  0.00000000000E+00 0.  1.
       22    1    1    2    0    0 -0.25978856741E-02 -0.98863862692E-03 -0.33643675193E-01  0.33758307078E-01  0.00000000000E+00 0. -1.
       22    1    1    2    0    0  0.62445838942E-03 -0.24563204798E-03 -0.11708156784E-02  0.13494786905E-02  0.00000000000E+00 0.  1.
</event>
<event>
 5   0  0.4143600E+04  0.9118800E+02  0.7546771E-02  0.1180000E+00
      -11   -1    0    0    0    0  0.00000000000E+00  0.00000000000E+00  0.34996269501E-01  0.35000000000E-01  0.51099999109E-03 0.  1.
       11   -1    0    0    0    0 -0.00000000000E+00 -0.00000000000E+00 -0.34996269501E-01  0.35000000000E-01  0.51099999109E-03 0. -1.
       22    1    1    2    0    0  0.14292693224E-03 -0.97437721790E-04 -0.57903049936E-02  0.57928882378E-02  0.00000000000E+00 0. -1.
       22    1    1    2    0    0 -0.12552414308E-01  0.38387051490E-02 -0.26412184686E-01  0.29494105548E-01  0.00000000000E+00 0. -1.
       22    1    1    2    0    0  0.12409487376E-01 -0.37412674272E-02  0.32202489679E-01  0.34713006214E-01  0.00000000000E+00 0.  1.
</event>
<event>
 5   0  0.4143600E+04  0.9118800E+02  0.7546771E-02  0.1180000E+00
      -11   -1    0    0    0    0  0.00000000000E+00  0.00000000000E+00  0.34996269501E-01  0.35000000000E-01  0.51099999109E-03 0.  1.
       11   -1    0    0    0    0 -0.00000000000E+00 -0.00000000000E+00 -0.34996269501E-01  0.35000000000E-01  0.51099999109E-03 0. -1.
       22    1    1    2    0    0 -0.59081127114E-05 -0.10889392512E-04  0.31884061024E-03  0.31908121129E-03  0.00000000000E+00 0. -1.
       22    1    1    2    0    0  0.92019316714E-02  0.97423519994E-02  0.32003051467E-01  0.34695594420E-01  0.00000000000E+00 0.  1.
       22    1    1    2    0    0 -0.91960235587E-02 -0.97314626069E-02 -0.32321892077E-01  0.34985324369E-01  0.00000000000E+00 0. -1.
</event>
<event>
 5   0  0.4143600E+04  0.9118800E+02  0.7546771E-02  0.1180000E+00
      -11   -1    0    0    0    0  0.00000000000E+00  0.00000000000E+00  0.34996269501E-01  0.35000000000E-01  0.51099999109E-03 0. -1.
       11   -1    0    0    0    0 -0.00000000000E+00 -0.00000000000E+00 -0.34996269501E-01  0.35000000000E-01  0.51099999109E-03 0.  1.
       22    1    1    2    0    0 -0.15392136325E-03 -0.57293273543E-03 -0.26101200283E-03  0.64812882286E-03  0.00000000000E+00 0.  1.
       22    1    1    2    0    0  0.10753373633E-01  0.11930825423E-01 -0.30735958223E-01  0.34679659279E-01  0.00000000000E+00 0.  1.
       22    1    1    2    0    0 -0.10599452269E-01 -0.11357892688E-01  0.30996970226E-01  0.34672211898E-01  0.00000000000E+00 0. -1.
</event>
<event>
 5   0  0.4143600E+04  0.9118800E+02  0.7546771E-02  0.1180000E+00
      -11   -1    0    0    0    0  0.00000000000E+00  0.00000000000E+00  0.34996269501E-01  0.35000000000E-01  0.51099999109E-03 0.  1.
       11   -1    0    0    0    0 -0.00000000000E+00 -0.00000000000E+00 -0.34996269501E-01  0.35000000000E-01  0.51099999109E-03 0.  1.
       22    1    1    2    0    0 -0.27289173217E-02  0.21051150732E-02 -0.95570857334E-02  0.10159546591E-01  0.00000000000E+00 0. -1.
       22    1    1    2    0    0  0.10515173903E-02  0.61091097112E-03  0.34586709572E-01  0.34608082583E-01  0.00000000000E+00 0.  1.
       22    1    1    2    0    0  0.16773999314E-02 -0.27160260443E-02 -0.25029623839E-01  0.25232370826E-01  0.00000000000E+00 0.  1.
</event>
<event>
 5   0  0.4143600E+04  0.9118800E+02  0.7546771E-02  0.1180000E+00
      -11   -1    0    0    0    0  0.00000000000E+00  0.00000000000E+00  0.34996269501E-01  0.35000000000E-01  0.51099999109E-03 0.  1.
       11   -1    0    0    0    0 -0.00000000000E+00 -0.00000000000E+00 -0.34996269501E-01  0.35000000000E-01  0.51099999109E-03 0. -1.
       22    1    1    2    0    0 -0.23445027241E-03 -0.50232136569E-04  0.26470471099E-02  0.26578842338E-02  0.00000000000E+00 0.  1.
       22    1    1    2    0    0 -0.18779565169E-02 -0.18822299419E-01  0.26497520972E-01  0.32556478522E-01  0.00000000000E+00 0.  1.
       22    1    1    2    0    0  0.21124067893E-02  0.18872531556E-01 -0.29144568082E-01  0.34785637244E-01  0.00000000000E+00 0. -1.
</event>
<event>
 5   0  0.4143600E+04  0.9118800E+02  0.7546771E-02  0.1180000E+00
      -11   -1    0    0    0    0  0.00000000000E+00  0.00000000000E+00  0.34996269501E-01  0.35000000000E-01  0.51099999109E-03 0.  1.
       11   -1    0    0    0    0 -0.00000000000E+00 -0.00000000000E+00 -0.34996269501E-01  0.35000000000E-01  0.51099999109E-03 0. -1.
       22    1    1    2    0    0 -0.29341632656E-04 -0.35562709919E-04  0.10505890737E-02  0.10516002280E-02  0.00000000000E+00 0. -1.
       22    1    1    2    0    0  0.17708929024E-01  0.10012409343E-01 -0.28371399937E-01  0.34911185061E-01  0.00000000000E+00 0. -1.
       22    1    1    2    0    0 -0.17679587391E-01 -0.99768466326E-02  0.27320810863E-01  0.34037214711E-01  0.00000000000E+00 0.  1.
</event>
<event>
 5   0  0.4143600E+04  0.9118800E+02  0.7546771E-02  0.1180000E+00
      -11   -1    0    0    0    0  0.00000000000E+00  0.00000000000E+00  0.34996269501E-01  0.35000000000E-01  0.51099999109E-03 0.  1.
       11   -1    0    0    0    0 -0.00000000000E+00 -0.00000000000E+00 -0.34996269501E-01  0.35000000000E-01  0.51099999109E-03 0. -1.
       22    1    1    2    0    0 -0.71481716805E-02  0.12874490775E-01 -0.15813560389E-01  0.21608275342E-01  0.00000000000E+00 0. -1.
       22    1    1    2    0    0  0.86750543038E-02 -0.17354432630E-01  0.28711771891E-01  0.34652543113E-01  0.00000000000E+00 0.  1.
       22    1    1    2    0    0 -0.15268826233E-02  0.44799418545E-02 -0.12898211502E-01  0.13739181545E-01  0.00000000000E+00 0. -1.
</event>
<event>
 5   0  0.4143600E+04  0.9118800E+02  0.7546771E-02  0.1180000E+00
      -11   -1    0    0    0    0  0.00000000000E+00  0.00000000000E+00  0.34996269501E-01  0.35000000000E-01  0.51099999109E-03 0. -1.
       11   -1    0    0    0    0 -0.00000000000E+00 -0.00000000000E+00 -0.34996269501E-01  0.35000000000E-01  0.51099999109E-03 0.  1.
       22    1    1    2    0    0  0.10488358652E-03  0.58349108529E-05 -0.16288370662E-02  0.16322208188E-02  0.00000000000E+00 0.  1.
       22    1    1    2    0    0 -0.86733156685E-02 -0.10556724936E-01 -0.30533736899E-01  0.33451157455E-01  0.00000000000E+00 0.  1.
       22    1    1    2    0    0  0.85684320820E-02  0.10550890025E-01  0.32162573965E-01  0.34916621726E-01  0.00000000000E+00 0. -1.
</event>
<event>
 5   0  0.4143600E+04  0.9118800E+02  0.7546771E-02  0.1180000E+00
      -11   -1    0    0    0    0  0.00000000000E+00  0.00000000000E+00  0.34996269501E-01  0.35000000000E-01  0.51099999109E-03 0.  1.
       11   -1    0    0    0    0 -0.00000000000E+00 -0.00000000000E+00 -0.34996269501E-01  0.35000000000E-01  0.51099999109E-03 0. -1.
       22    1    1    2    0    0  0.26128059646E-01 -0.89091338776E-02 -0.57880977115E-02  0.28205500216E-01  0.00000000000E+00 0. -1.
       22    1    1    2    0    0 -0.25814834713E-01  0.44888014804E-02  0.15973217468E-01  0.30687109774E-01  0.00000000000E+00 0.  1.
       22    1    1    2    0    0 -0.31322493282E-03  0.44203323972E-02 -0.10185119757E-01  0.11107390010E-01  0.00000000000E+00 0.  1.
</event>
<event>
 5   0  0.4143600E+04  0.9118800E+02  0.7546771E-02  0.1180000E+00
      -11   -1    0    0    0    0  0.00000000000E+00  0.00000000000E+00  0.34996269501E-01  0.35000000000E-01  0.51099999109E-03 0.  1.
       11   -1    0    0    0    0 -0.00000000000E+00 -0.00000000000E+00 -0.34996269501E-01  0.35000000000E-01  0.51099999109E-03 0. -1.
       22    1    1    2    0    0 -0.45153670249E-02 -0.36973637519E-02 -0.11552040585E-01  0.12942514430E-01  0.00000000000E+00 0. -1.
       22    1    1    2    0    0  0.55594488818E-03 -0.17361036827E-01 -0.14991383350E-01  0.22944634431E-01  0.00000000000E+00 0. -1.
       22    1    1    2    0    0  0.39594221367E-02  0.21058400579E-01  0.26543423936E-01  0.34112851139E-01  0.00000000000E+00 0.  1.
</event>
<event>
 5   0  0.4143600E+04  0.9118800E+02  0.7546771E-02  0.1180000E+00
      -11   -1    0    0    0    0  0.00000000000E+00  0.00000000000E+00  0.34996269501E-01  0.35000000000E-01  0.51099999109E-03 0. -1.
       11   -1    0    0    0    0 -0.00000000000E+00 -0.00000000000E+00 -0.34996269501E-01  0.35000000000E-01  0.51099999109E-03 0.  1.
       22    1    1    2    0    0  0.13024416969E-03 -0.14194853103E-02 -0.28066504392E-02  0.31478863984E-02  0.00000000000E+00 0. -1.
       22    1    1    2    0    0  0.42245396555E-02  0.12148141032E-01  0.32515373617E-01  0.34966749739E-01  0.00000000000E+00 0. -1.
       22    1    1    2    0    0 -0.43547838252E-02 -0.10728655722E-01 -0.29708723178E-01  0.31885363862E-01  0.00000000000E+00 0.  1.
</event>
<event>
 5   0  0.4143600E+04  0.9118800E+02  0.7546771E-02  0.1180000E+00
      -11   -1    0    0    0    0  0.00000000000E+00  0.00000000000E+00  0.34996269501E-01  0.35000000000E-01  0.51099999109E-03 0. -1.
       11   -1    0    0    0    0 -0.00000000000E+00 -0.00000000000E+00 -0.34996269501E-01  0.35000000000E-01  0.51099999109E-03 0.  1.
       22    1    1    2    0    0  0.26177819810E-02  0.14608123900E-01  0.12386095788E-01  0.19330427705E-01  0.00000000000E+00 0. -1.
       22    1    1    2    0    0 -0.48906933788E-02 -0.14463384355E-01 -0.29599987080E-01  0.33305669244E-01  0.00000000000E+00 0.  1.
       22    1    1    2    0    0  0.22729113978E-02 -0.14473954552E-03  0.17213891291E-01  0.17363903051E-01  0.00000000000E+00 0. -1.
</event>
<event>
 5   0  0.4143600E+04  0.9118800E+02  0.7546771E-02  0.1180000E+00
      -11   -1    0    0    0    0  0.00000000000E+00  0.00000000000E+00  0.34996269501E-01  0.35000000000E-01  0.51099999109E-03 0.  1.
       11   -1    0    0    0    0 -0.00000000000E+00 -0.00000000000E+00 -0.34996269501E-01  0.35000000000E-01  0.51099999109E-03 0. -1.
       22    1    1    2    0    0 -0.15099259523E-02 -0.17727700851E-02 -0.23397817285E-01  0.23513409873E-01  0.00000000000E+00 0. -1.
       22    1    1    2    0    0  0.16813643386E-02 -0.21338766611E-02  0.34556214349E-01  0.34662838398E-01  0.00000000000E+00 0.  1.
       22    1    1    2    0    0 -0.17143838629E-03  0.39066467462E-02 -0.11158397064E-01  0.11823751729E-01  0.00000000000E+00 0. -1.
</event>
<event>
 5   0  0.4143600E+04  0.9118800E+02  0.7546771E-02  0.1180000E+00
      -11   -1    0    0    0    0  0.00000000000E+00  0.00000000000E+00  0.34996269501E-01  0.35000000000E-01  0.51099999109E-03 0. -1.
       11   -1    0    0    0    0 -0.00000000000E+00 -0.00000000000E+00 -0.34996269501E-01  0.35000000000E-01  0.51099999109E-03 0.  1.
       22    1    1    2    0    0  0.64018640082E-02  0.15865975027E-01  0.29703493516E-01  0.34278426939E-01  0.00000000000E+00 0. -1.
       22    1    1    2    0    0 -0.89102270898E-02 -0.13703621239E-01 -0.26352303243E-01  0.31010083329E-01  0.00000000000E+00 0.  1.
       22    1    1    2    0    0  0.25083630816E-02 -0.21623537877E-02 -0.33511902728E-02  0.47114897322E-02  0.00000000000E+00 0. -1.
</event>
<event>
 5   0  0.4143600E+04  0.9118800E+02  0.7546771E-02  0.1180000E+00
      -11   -1    0    0    0    0  0.00000000000E+00  0.00000000000E+00  0.34996269501E-01  0.35000000000E-01  0.51099999109E-03 0.  1.
       11   -1    0    0    0    0 -0.00000000000E+00 -0.00000000000E+00 -0.34996269501E-01  0.35000000000E-01  0.51099999109E-03 0. -1.
       22    1    1    2    0    0  0.68480055190E-03  0.46193101661E-03 -0.22457797384E-02  0.23928766566E-02  0.00000000000E+00 0.  1.
       22    1    1    2    0    0  0.17809749239E-02 -0.37795129834E-02 -0.32423855235E-01  0.32691940572E-01  0.00000000000E+00 0. -1.
       22    1    1    2    0    0 -0.24657754758E-02  0.33175819668E-02  0.34669634973E-01  0.34915182772E-01  0.00000000000E+00 0.  1.
</event>
<event>
 5   0  0.4143600E+04  0.9118800E+02  0.7546771E-02  0.1180000E+00
      -11   -1    0    0    0    0  0.00000000000E+00  0.00000000000E+00  0.34996269501E-01  0.35000000000E-01  0.51099999109E-03 0. -1.
       11   -1    0    0    0    0 -0.00000000000E+00 -0.00000000000E+00 -0.34996269501E-01  0.35000000000E-01  0.51099999109E-03 0.  1.
       22    1    1    2    0    0  0.36885135998E-02  0.21675747167E-01 -0.26402944391E-01  0.34359258145E-01  0.00000000000E+00 0.  1.
       22    1    1    2    0    0  0.18056643111E-03 -0.11819697244E-02  0.71748058678E-02  0.72737539074E-02  0.00000000000E+00 0. -1.
       22    1    1    2    0    0 -0.38690800309E-02 -0.20493777442E-01  0.19228138523E-01  0.28366987947E-01  0.00000000000E+00 0. -1.
</event>
<event>
 5   0  0.4143600E+04  0.9118800E+02  0.7546771E-02  0.1180000E+00
      -11   -1    0    0    0    0  0.00000000000E+00  0.00000000000E+00  0.34996269501E-01  0.35000000000E-01  0.51099999109E-03 0.  1.
       11   -1    0    0    0    0 -0.00000000000E+00 -0.00000000000E+00 -0.34996269501E-01  0.35000000000E-01  0.51099999109E-03 0. -1.
       22    1    1    2    0    0 -0.12007156357E-01 -0.88446810687E-02 -0.29925597123E-01  0.33435632941E-01  0.00000000000E+00 0. -1.
       22    1    1    2    0    0  0.99489140119E-02  0.51266049379E-04  0.23385507500E-01  0.25413883592E-01  0.00000000000E+00 0.  1.
       22    1    1    2    0    0  0.20582423454E-02  0.87934150193E-02  0.65400896237E-02  0.11150483467E-01  0.00000000000E+00 0.  1.
</event>
<event>
 5   0  0.4143600E+04  0.9118800E+02  0.7546771E-02  0.1180000E+00
      -11   -1    0    0    0    0  0.00000000000E+00  0.00000000000E+00  0.34996269501E-01  0.35000000000E-01  0.51099999109E-03 0. -1.
       11   -1    0    0    0    0 -0.00000000000E+00 -0.00000000000E+00 -0.34996269501E-01  0.35000000000E-01  0.51099999109E-03 0.  1.
       22    1    1    2    0    0 -0.61566215039E-04 -0.95217239613E-04 -0.36467130032E-03  0.38189249644E-03  0.00000000000E+00 0. -1.
       22    1    1    2    0    0 -0.21678351518E-01  0.68915969648E-02 -0.26152601225E-01  0.34661269223E-01  0.00000000000E+00 0.  1.
       22    1    1    2    0    0  0.21739917733E-01 -0.67963797252E-02  0.26517272526E-01  0.34956838281E-01  0.00000000000E+00 0. -1.
</event>
<event>
 5   0  0.4143600E+04  0.9118800E+02  0.7546771E-02  0.1180000E+00
      -11   -1    0    0    0    0  0.00000000000E+00  0.00000000000E+00  0.34996269501E-01  0.35000000000E-01  0.51099999109E-03 0.  1.
       11   -1    0    0    0    0 -0.00000000000E+00 -0.00000000000E+00 -0.34996269501E-01  0.35000000000E-01  0.51099999109E-03 0. -1.
       22    1    1    2    0    0 -0.36364256405E-02 -0.35838596014E-02  0.34614446318E-01  0.34988963045E-01  0.00000000000E+00 0.  1.
       22    1    1    2    0    0  0.35652723088E-02  0.34391793691E-02 -0.34317099406E-01  0.34672790961E-01  0.00000000000E+00 0. -1.
       22    1    1    2    0    0  0.71153331645E-04  0.14468023232E-03 -0.29734691170E-03  0.33824599351E-03  0.00000000000E+00 0. -1.
</event>
<event>
 5   0  0.4143600E+04  0.9118800E+02  0.7546771E-02  0.1180000E+00
      -11   -1    0    0    0    0  0.00000000000E+00  0.00000000000E+00  0.34996269501E-01  0.35000000000E-01  0.51099999109E-03 0. -1.
       11   -1    0    0    0    0 -0.00000000000E+00 -0.00000000000E+00 -0.34996269501E-01  0.35000000000E-01  0.51099999109E-03 0.  1.
       22    1    1    2    0    0  0.67648716081E-03 -0.16819860648E-02  0.19030984151E-01  0.19117140731E-01  0.00000000000E+00 0.  1.
       22    1    1    2    0    0  0.87195573327E-02 -0.10677954436E-01 -0.29222339826E-01  0.32310904288E-01  0.00000000000E+00 0.  1.
       22    1    1    2    0    0 -0.93960444936E-02  0.12359940501E-01  0.10191355675E-01  0.18571954981E-01  0.00000000000E+00 0. -1.
</event>
<event>
 5   0  0.4143600E+04  0.9118800E+02  0.7546771E-02  0.1180000E+00
      -11   -1    0    0    0    0  0.00000000000E+00  0.00000000000E+00  0.34996269501E-01  0.35000000000E-01  0.51099999109E-03 0. -1.
       11   -1    0    0    0    0 -0.00000000000E+00 -0.00000000000E+00 -0.34996269501E-01  0.35000000000E-01  0.51099999109E-03 0.  1.
       22    1    1    2    0    0 -0.24842349108E-03  0.82255076443E-02  0.33990499834E-01  0.34972485888E-01  0.00000000000E+00 0. -1.
       22    1    1    2    0    0 -0.10134632421E-03  0.85619586453E-04 -0.36533259934E-03  0.38867685698E-03  0.00000000000E+00 0.  1.
       22    1    1    2    0    0  0.34976981529E-03 -0.83111272308E-02 -0.33625167235E-01  0.34638837255E-01  0.00000000000E+00 0.  1.
</event>
<event>
 5   0  0.4143600E+04  0.9118800E+02  0.7546771E-02  0.1180000E+00
      -11   -1    0    0    0    0  0.00000000000E+00  0.00000000000E+00  0.34996269501E-01  0.35000000000E-01  0.51099999109E-03 0.  1.
       11   -1    0    0    0    0 -0.00000000000E+00 -0.00000000000E+00 -0.34996269501E-01  0.35000000000E-01  0.51099999109E-03 0. -1.
       22    1    1    2    0    0  0.82572626831E-02 -0.18435655902E-01  0.27445894386E-01  0.34078334968E-01  0.00000000000E+00 0.  1.
       22    1    1    2    0    0 -0.82027266059E-02  0.18467582330E-01 -0.28460730331E-01  0.34904863441E-01  0.00000000000E+00 0. -1.
       22    1    1    2    0    0 -0.54536077140E-04 -0.31926428407E-04  0.10148359451E-02  0.10168015913E-02  0.00000000000E+00 0. -1.
</event>
<event>
 5   0  0.4143600E+04  0.9118800E+02  0.7546771E-02  0.1180000E+00
      -11   -1    0    0    0    0  0.00000000000E+00  0.00000000000E+00  0.34996269501E-01  0.35000000000E-01  0.51099999109E-03 0.  1.
       11   -1    0    0    0    0 -0.00000000000E+00 -0.00000000000E+00 -0.34996269501E-01  0.35000000000E-01  0.51099999109E-03 0. -1.
       22    1    1    2    0    0  0.24211003984E-02  0.19248739089E-01 -0.26996883994E-01  0.33244660158E-01  0.00000000000E+00 0. -1.
       22    1    1    2    0    0 -0.60957612196E-04 -0.12779131631E-03 -0.19653272762E-02  0.19704207048E-02  0.00000000000E+00 0. -1.
       22    1    1    2    0    0 -0.23601427862E-02 -0.19120947773E-01  0.28962211270E-01  0.34784919137E-01  0.00000000000E+00 0.  1.
</event>
<event>
 5   0  0.4143600E+04  0.9118800E+02  0.7546771E-02  0.1180000E+00
      -11   -1    0    0    0    0  0.00000000000E+00  0.00000000000E+00  0.34996269501E-01  0.35000000000E-01  0.51099999109E-03 0.  1.
       11   -1    0    0    0    0 -0.00000000000E+00 -0.00000000000E+00 -0.34996269501E-01  0.35000000000E-01  0.51099999109E-03 0. -1.
       22    1    1    2    0    0 -0.10342307763E-01  0.20408377925E-01  0.25005229413E-01  0.33892871188E-01  0.00000000000E+00 0.  1.
       22    1    1    2    0    0  0.32690670274E-02  0.86450461325E-04 -0.37166806837E-03  0.32912626855E-02  0.00000000000E+00 0. -1.
       22    1    1    2    0    0  0.70732407359E-02 -0.20494828386E-01 -0.24633561345E-01  0.32815866126E-01  0.00000000000E+00 0. -1.
</event>
<event>
 5   0  0.4143600E+04  0.9118800E+02  0.7546771E-02  0.1180000E+00
      -11   -1    0    0    0    0  0.00000000000E+00  0.00000000000E+00  0.34996269501E-01  0.35000000000E-01  0.51099999109E-03 0. -1.
       11   -1    0    0    0    0 -0.00000000000E+00 -0.00000000000E+00 -0.34996269501E-01  0.35000000000E-01  0.51099999109E-03 0.  1.
       22    1    1    2    0    0 -0.12057415441E-01 -0.51454372761E-02 -0.27344112337E-01  0.30324202733E-01  0.00000000000E+00 0.  1.
       22    1    1    2    0    0 -0.96971243378E-03  0.51536256640E-03 -0.46734642384E-02  0.48007508545E-02  0.00000000000E+00 0. -1.
       22    1    1    2    0    0  0.13027127874E-01  0.46300747097E-02  0.32017576576E-01  0.34875046412E-01  0.00000000000E+00 0. -1.
</event>
<event>
 5   0  0.4143600E+04  0.9118800E+02  0.7546771E-02  0.1180000E+00
      -11   -1    0    0    0    0  0.00000000000E+00  0.00000000000E+00  0.34996269501E-01  0.35000000000E-01  0.51099999109E-03 0. -1.
       11   -1    0    0    0    0 -0.00000000000E+00 -0.00000000000E+00 -0.34996269501E-01  0.35000000000E-01  0.51099999109E-03 0.  1.
       22    1    1    2    0    0  0.13799489051E-02  0.28909520138E-02  0.40637116912E-03  0.32290865665E-02  0.00000000000E+00 0.  1.
       22    1    1    2    0    0 -0.21455607098E-02  0.18598026793E-01 -0.26822311070E-01  0.32709729478E-01  0.00000000000E+00 0.  1.
       22    1    1    2    0    0  0.76561180471E-03 -0.21488978807E-01  0.26415939901E-01  0.34061183956E-01  0.00000000000E+00 0. -1.
</event>
<event>
 5   0  0.4143600E+04  0.9118800E+02  0.7546771E-02  0.1180000E+00
      -11   -1    0    0    0    0  0.00000000000E+00  0.00000000000E+00  0.34996269501E-01  0.35000000000E-01  0.51099999109E-03 0.  1.
       11   -1    0    0    0    0 -0.00000000000E+00 -0.00000000000E+00 -0.34996269501E-01  0.35000000000E-01  0.51099999109E-03 0. -1.
       22    1    1    2    0    0 -0.27110101682E-01 -0.46468770926E-02 -0.66649209092E-02  0.28301453154E-01  0.00000000000E+00 0.  1.
       22    1    1    2    0    0  0.29302461770E-01 -0.16525681164E-02  0.13361053188E-01  0.32247216771E-01  0.00000000000E+00 0. -1.
       22    1    1    2    0    0 -0.21923600883E-02  0.62994452090E-02 -0.66961322787E-02  0.94513300753E-02  0.00000000000E+00 0. -1.
</event>
<event>
 5   0  0.4143600E+04  0.9118800E+02  0.7546771E-02  0.1180000E+00
      -11   -1    0    0    0    0  0.00000000000E+00  0.00000000000E+00  0.34996269501E-01  0.35000000000E-01  0.51099999109E-03 0.  1.
       11   -1    0    0    0    0 -0.00000000000E+00 -0.00000000000E+00 -0.34996269501E-01  0.35000000000E-01  0.51099999109E-03 0. -1.
       22    1    1    2    0    0 -0.72038898676E-03  0.21717599353E-03 -0.96443009480E-03  0.12232134369E-02  0.00000000000E+00 0. -1.
       22    1    1    2    0    0  0.13330737389E-02  0.40282993242E-03  0.34851097690E-01  0.34878910071E-01  0.00000000000E+00 0.  1.
       22    1    1    2    0    0 -0.61268475218E-03 -0.62000592596E-03 -0.33886667595E-01  0.33897876492E-01  0.00000000000E+00 0. -1.
</event>
<event>
 5   0  0.4143600E+04  0.9118800E+02  0.7546771E-02  0.1180000E+00
      -11   -1    0    0    0    0  0.00000000000E+00  0.00000000000E+00  0.34996269501E-01  0.35000000000E-01  0.51099999109E-03 0. -1.
       11   -1    0    0    0    0 -0.00000000000E+00 -0.00000000000E+00 -0.34996269501E-01  0.35000000000E-01  0.51099999109E-03 0. -1.
       22    1    1    2    0    0  0.00000000000E+00 -0.00000000000E+00  0.32400430003E-01  0.32399328029E-01  0.00000000000E+00 0. -1.
       22    1    1    2    0    0 -0.30218428205E-02 -0.90139278079E-02 -0.14644397926E-01  0.17459691268E-01  0.00000000000E+00 0. -1.
       22    1    1    2    0    0  0.30218428205E-02  0.90139278079E-02 -0.17756032077E-01  0.20140980703E-01  0.00000000000E+00 0.  1.
</event>
<event>
 5   0  0.4143600E+04  0.9118800E+02  0.7546771E-02  0.1180000E+00
      -11   -1    0    0    0    0  0.00000000000E+00  0.00000000000E+00  0.34996269501E-01  0.35000000000E-01  0.51099999109E-03 0.  1.
       11   -1    0    0    0    0 -0.00000000000E+00 -0.00000000000E+00 -0.34996269501E-01  0.35000000000E-01  0.51099999109E-03 0. -1.
       22    1    1    2    0    0  0.10422737081E-04 -0.70248614386E-05  0.67149437514E-03  0.67161199957E-03  0.00000000000E+00 0. -1.
       22    1    1    2    0    0 -0.20364067945E-01  0.66258169232E-02 -0.27597943194E-01  0.34931979356E-01  0.00000000000E+00 0. -1.
       22    1    1    2    0    0  0.20353645208E-01 -0.66187920617E-02  0.26926448819E-01  0.34396408644E-01  0.00000000000E+00 0.  1.
</event>
<event>
 5   0  0.4143600E+04  0.9118800E+02  0.7546771E-02  0.1180000E+00
      -11   -1    0    0    0    0  0.00000000000E+00  0.00000000000E+00  0.34996269501E-01  0.35000000000E-01  0.51099999109E-03 0.  1.
       11   -1    0    0    0    0 -0.00000000000E+00 -0.00000000000E+00 -0.34996269501E-01  0.35000000000E-01  0.51099999109E-03 0. -1.
       22    1    1    2    0    0 -0.10384687110E-02  0.90267478323E-02  0.33792357026E-01  0.34992627610E-01  0.00000000000E+00 0.  1.
       22    1    1    2    0    0  0.92054731146E-03 -0.88203943314E-02 -0.33299957085E-01  0.34460613828E-01  0.00000000000E+00 0. -1.
       22    1    1    2    0    0  0.11792139950E-03 -0.20635350092E-03 -0.49239994063E-03  0.54675856219E-03  0.00000000000E+00 0. -1.
</event>
<event>
 5   0  0.4143600E+04  0.9118800E+02  0.7546771E-02  0.1180000E+00
      -11   -1    0    0    0    0  0.00000000000E+00  0.00000000000E+00  0.34996269501E-01  0.35000000000E-01  0.51099999109E-03 0.  1.
       11   -1    0    0    0    0 -0.00000000000E+00 -0.00000000000E+00 -0.34996269501E-01  0.35000000000E-01  0.51099999109E-03 0. -1.
       22    1    1    2    0    0  0.11476283576E-01 -0.10224725619E-02 -0.31918453142E-01  0.33934321650E-01  0.00000000000E+00 0. -1.
       22    1    1    2    0    0 -0.10286472697E-01 -0.16884103329E-02  0.31367655824E-01  0.33054380676E-01  0.00000000000E+00 0.  1.
       22    1    1    2    0    0 -0.11898108788E-02  0.27108828947E-02  0.55079731850E-03  0.30112976741E-02  0.00000000000E+00 0.  1.
</event>
<event>
 5   0  0.4143600E+04  0.9118800E+02  0.7546771E-02  0.1180000E+00
      -11   -1    0    0    0    0  0.00000000000E+00  0.00000000000E+00  0.34996269501E-01  0.35000000000E-01  0.51099999109E-03 0. -1.
       11   -1    0    0    0    0 -0.00000000000E+00 -0.00000000000E+00 -0.34996269501E-01  0.35000000000E-01  0.51099999109E-03 0. -1.
       22    1    1    2    0    0  0.67641693277E-04 -0.23175308231E-03 -0.34640910825E-01  0.34641752088E-01  0.00000000000E+00 0. -1.
       22    1    1    2    0    0  0.00000000000E+00 -0.00000000000E+00  0.34960640593E-01  0.34957608406E-01  0.00000000000E+00 0. -1.
       22    1    1    2    0    0 -0.67641693277E-04  0.23175308231E-03 -0.31972976755E-03  0.40063950640E-03  0.00000000000E+00 0.  1.
</event>
<event>
 5   0  0.4143600E+04  0.9118800E+02  0.7546771E-02  0.1180000E+00
      -11   -1    0    0    0    0  0.00000000000E+00  0.00000000000E+00  0.34996269501E-01  0.35000000000E-01  0.51099999109E-03 0. -1.
       11   -1    0    0    0    0 -0.00000000000E+00 -0.00000000000E+00 -0.34996269501E-01  0.35000000000E-01  0.51099999109E-03 0.  1.
       22    1    1    2    0    0  0.30059011492E-02 -0.13312417484E-01  0.31189620463E-01  0.34044798805E-01  0.00000000000E+00 0. -1.
       22    1    1    2    0    0 -0.35847589715E-04 -0.30467912756E-04  0.99078524164E-03  0.99190157700E-03  0.00000000000E+00 0. -1.
       22    1    1    2    0    0 -0.29700535595E-02  0.13342885397E-01 -0.32180405705E-01  0.34963299618E-01  0.00000000000E+00 0.  1.
</event>
<event>
 5   0  0.4143600E+04  0.9118800E+02  0.7546771E-02  0.1180000E+00
      -11   -1    0    0    0    0  0.00000000000E+00  0.00000000000E+00  0.34996269501E-01  0.35000000000E-01  0.51099999109E-03 0.  1.
       11   -1    0    0    0    0 -0.00000000000E+00 -0.00000000000E+00 -0.34996269501E-01  0.35000000000E-01  0.51099999109E-03 0. -1.
       22    1    1    2    0    0  0.64755158975E-02 -0.11219059846E-02 -0.86988779312E-02  0.10902360132E-01  0.00000000000E+00 0.  1.
       22    1    1    2    0    0  0.16995131718E-01  0.21255839833E-01  0.10133935794E-02  0.27233659241E-01  0.00000000000E+00 0. -1.
       22    1    1    2    0    0 -0.23470647615E-01 -0.20133933848E-01  0.76854843518E-02  0.31863980627E-01  0.00000000000E+00 0.  1.
</event>
<event>
 5   0  0.4143600E+04  0.9118800E+02  0.7546771E-02  0.1180000E+00
      -11   -1    0    0    0    0  0.00000000000E+00  0.00000000000E+00  0.34996269501E-01  0.35000000000E-01  0.51099999109E-03 0. -1.
       11   -1    0    0    0    0 -0.00000000000E+00 -0.00000000000E+00 -0.34996269501E-01  0.35000000000E-01  0.51099999109E-03 0.  1.
       22    1    1    2    0    0  0.82195852755E-04  0.46282191983E-04  0.10004594794E-02  0.10048966959E-02  0.00000000000E+00 0.  1.
       22    1    1    2    0    0  0.18923218639E-01  0.85929951551E-02 -0.27997187113E-01  0.34867897207E-01  0.00000000000E+00 0.  1.
       22    1    1    2    0    0 -0.19005414492E-01 -0.86392773471E-02  0.26996727634E-01  0.34127206097E-01  0.00000000000E+00 0. -1.
</event>
<event>
 5   0  0.4143600E+04  0.9118800E+02  0.7546771E-02  0.1180000E+00
      -11   -1    0    0    0    0  0.00000000000E+00  0.00000000000E+00  0.34996269501E-01  0.35000000000E-01  0.51099999109E-03 0.  1.
       11   -1    0    0    0    0 -0.00000000000E+00 -0.00000000000E+00 -0.34996269501E-01  0.35000000000E-01  0.51099999109E-03 0. -1.
       22    1    1    2    0    0 -0.10933250497E-03 -0.20802823716E-03 -0.48010167787E-03  0.53453434425E-03  0.00000000000E+00 0.  1.
       22    1    1    2    0    0 -0.46274251212E-03 -0.74806071134E-02  0.34130189539E-01  0.34943432164E-01  0.00000000000E+00 0.  1.
       22    1    1    2    0    0  0.57207501709E-03  0.76886353505E-02 -0.33650087861E-01  0.34522033492E-01  0.00000000000E+00 0. -1.
</event>
<event>
 5   0  0.4143600E+04  0.9118800E+02  0.7546771E-02  0.1180000E+00
      -11   -1    0    0    0    0  0.00000000000E+00  0.00000000000E+00  0.34996269501E-01  0.35000000000E-01  0.51099999109E-03 0. -1.
       11   -1    0    0    0    0 -0.00000000000E+00 -0.00000000000E+00 -0.34996269501E-01  0.35000000000E-01  0.51099999109E-03 0.  1.
       22    1    1    2    0    0 -0.34866947642E-02 -0.63282441970E-02  0.29864428015E-01  0.30726011386E-01  0.00000000000E+00 0. -1.
       22    1    1    2    0    0 -0.40582369239E-02 -0.81879555886E-02 -0.10241792025E-01  0.13726114073E-01  0.00000000000E+00 0. -1.
       22    1    1    2    0    0  0.75449316881E-02  0.14516199786E-01 -0.19622635990E-01  0.25547874541E-01  0.00000000000E+00 0.  1.
</event>
<event>
 5   0  0.4143600E+04  0.9118800E+02  0.7546771E-02  0.1180000E+00
      -11   -1    0    0    0    0  0.00000000000E+00  0.00000000000E+00  0.34996269501E-01  0.35000000000E-01  0.51099999109E-03 0. -1.
       11   -1    0    0    0    0 -0.00000000000E+00 -0.00000000000E+00 -0.34996269501E-01  0.35000000000E-01  0.51099999109E-03 0.  1.
       22    1    1    2    0    0 -0.56139614382E-02  0.13291807652E-02 -0.33250887027E-01  0.33747663217E-01  0.00000000000E+00 0.  1.
       22    1    1    2    0    0  0.62038454242E-02 -0.13138331060E-02  0.34389824747E-01  0.34969613976E-01  0.00000000000E+00 0. -1.
       22    1    1    2    0    0 -0.58988398601E-03 -0.15347659148E-04 -0.11389377205E-02  0.12827228066E-02  0.00000000000E+00 0.  1.
</event>
<event>
 5   0  0.4143600E+04  0.9118800E+02  0.7546771E-02  0.1180000E+00
      -11   -1    0    0    0    0  0.00000000000E+00  0.00000000000E+00  0.34996269501E-01  0.35000000000E-01  0.51099999109E-03 0.  1.
       11   -1    0    0    0    0 -0.00000000000E+00 -0.00000000000E+00 -0.34996269501E-01  0.35000000000E-01  0.51099999109E-03 0. -1.
       22    1    1    2    0    0  0.57573408757E-02 -0.46884065660E-02 -0.33688595903E-01  0.34497095878E-01  0.00000000000E+00 0. -1.
       22    1    1    2    0    0  0.19367223613E-03  0.37095518619E-03 -0.43066126172E-03  0.60048797453E-03  0.00000000000E+00 0.  1.
       22    1    1    2    0    0 -0.59510131118E-02  0.43174513798E-02  0.34119257165E-01  0.34902416148E-01  0.00000000000E+00 0.  1.
</event>
<event>
 5   0  0.4143600E+04  0.9118800E+02  0.7546771E-02  0.1180000E+00
      -11   -1    0    0    0    0  0.00000000000E+00  0.00000000000E+00  0.34996269501E-01  0.35000000000E-01  0.51099999109E-03 0.  1.
       11   -1    0    0    0    0 -0.00000000000E+00 -0.00000000000E+00 -0.34996269501E-01  0.35000000000E-01  0.51099999109E-03 0. -1.
       22    1    1    2    0    0  0.15094805903E-03 -0.41012999101E-03 -0.55653605017E-03  0.70761875412E-03  0.00000000000E+00 0.  1.
       22    1    1    2    0    0  0.35416597817E-03  0.13624164115E-02  0.34901814160E-01  0.34930191006E-01  0.00000000000E+00 0.  1.
       22    1    1    2    0    0 -0.50511403720E-03 -0.95228642048E-03 -0.34345278110E-01  0.34362190240E-01  0.00000000000E+00 0. -1.
</event>
<event>
 5   0  0.4143600E+04  0.9118800E+02  0.7546771E-02  0.1180000E+00
      -11   -1    0    0    0    0  0.00000000000E+00  0.00000000000E+00  0.34996269501E-01  0.35000000000E-01  0.51099999109E-03 0. -1.
       11   -1    0    0    0    0 -0.00000000000E+00 -0.00000000000E+00 -0.34996269501E-01  0.35000000000E-01  0.51099999109E-03 0.  1.
       22    1    1    2    0    0 -0.74495091647E-02 -0.13573857371E-01  0.31003534380E-01  0.34654926559E-01  0.00000000000E+00 0. -1.
       22    1    1    2    0    0  0.65754491236E-02  0.10938449444E-01 -0.29599319371E-01  0.32233614669E-01  0.00000000000E+00 0.  1.
       22    1    1    2    0    0  0.87406004113E-03  0.26354079270E-02 -0.14042150094E-02  0.31114587720E-02  0.00000000000E+00 0. -1.
</event>
<event>
 5   0  0.4143600E+04  0.9118800E+02  0.7546771E-02  0.1180000E+00
      -11   -1    0    0    0    0  0.00000000000E+00  0.00000000000E+00  0.34996269501E-01  0.35000000000E-01  0.51099999109E-03 0.  1.
       11   -1    0    0    0    0 -0.00000000000E+00 -0.00000000000E+00 -0.34996269501E-01  0.35000000000E-01  0.51099999109E-03 0. -1.
       22    1    1    2    0    0  0.12697068022E-03  0.18553015481E-02  0.17609021495E-02  0.25610626248E-02  0.00000000000E+00 0. -1.
       22    1    1    2    0    0 -0.61375146697E-02 -0.12255231695E-01 -0.32048502398E-01  0.34856366652E-01  0.00000000000E+00 0. -1.
       22    1    1    2    0    0  0.60105439895E-02  0.10399930147E-01  0.30287600249E-01  0.32582570723E-01  0.00000000000E+00 0.  1.
</event>
<event>
 5   0  0.4143600E+04  0.9118800E+02  0.7546771E-02  0.1180000E+00
      -11   -1    0    0    0    0  0.00000000000E+00  0.00000000000E+00  0.34996269501E-01  0.35000000000E-01  0.51099999109E-03 0.  1.
       11   -1    0    0    0    0 -0.00000000000E+00 -0.00000000000E+00 -0.34996269501E-01  0.35000000000E-01  0.51099999109E-03 0. -1.
       22    1    1    2    0    0  0.46833009017E-03  0.15339912390E-03 -0.86648825127E-03  0.99682809660E-03  0.00000000000E+00 0. -1.
       22    1    1    2    0    0  0.14770614522E-01  0.28691376500E-01  0.12153557818E-01  0.34482968354E-01  0.00000000000E+00 0.  1.
       22    1    1    2    0    0 -0.15238944612E-01 -0.28844775624E-01 -0.11287069567E-01  0.34520203550E-01  0.00000000000E+00 0. -1.
</event>
<event>
 5   0  0.4143600E+04  0.9118800E+02  0.7546771E-02  0.1180000E+00
      -11   -1    0    0    0    0  0.00000000000E+00  0.00000000000E+00  0.34996269501E-01  0.35000000000E-01  0.51099999109E-03 0.  1.
       11   -1    0    0    0    0 -0.00000000000E+00 -0.00000000000E+00 -0.34996269501E-01  0.35000000000E-01  0.51099999109E-03 0. -1.
       22    1    1    2    0    0  0.68257945632E-03 -0.14359949026E-03 -0.78513907000E-03  0.10502280167E-02  0.00000000000E+00 0.  1.
       22    1    1    2    0    0  0.25099324417E-01 -0.48967208960E-02  0.23115487171E-01  0.34471433229E-01  0.00000000000E+00 0.  1.
       22    1    1    2    0    0 -0.25781903873E-01  0.50403203862E-02 -0.22330348101E-01  0.34478338754E-01  0.00000000000E+00 0. -1.
</event>
<event>
 5   0  0.4143600E+04  0.9118800E+02  0.7546771E-02  0.1180000E+00
      -11   -1    0    0    0    0  0.00000000000E+00  0.00000000000E+00  0.34996269501E-01  0.35000000000E-01  0.51099999109E-03 0. -1.
       11   -1    0    0    0    0 -0.00000000000E+00 -0.00000000000E+00 -0.34996269501E-01  0.35000000000E-01  0.51099999109E-03 0.  1.
       22    1    1    2    0    0 -0.60932090629E-03  0.55348678488E-03  0.83477375080E-02  0.83882263375E-02  0.00000000000E+00 0. -1.
       22    1    1    2    0    0 -0.39637233708E-02 -0.18123964192E-01 -0.28803275344E-01  0.34261025255E-01  0.00000000000E+00 0.  1.
       22    1    1    2    0    0  0.45730442771E-02  0.17570477407E-01  0.20455537836E-01  0.27350748407E-01  0.00000000000E+00 0. -1.
</event>
<event>
 5   0  0.4143600E+04  0.9118800E+02  0.7546771E-02  0.1180000E+00
      -11   -1    0    0    0    0  0.00000000000E+00  0.00000000000E+00  0.34996269501E-01  0.35000000000E-01  0.51099999109E-03 0. -1.
       11   -1    0    0    0    0 -0.00000000000E+00 -0.00000000000E+00 -0.34996269501E-01  0.35000000000E-01  0.51099999109E-03 0.  1.
       22    1    1    2    0    0 -0.48441955977E-04 -0.23626798792E-03  0.22990801921E-02  0.23116961121E-02  0.00000000000E+00 0. -1.
       22    1    1    2    0    0 -0.47467165367E-02 -0.20093635242E-01 -0.27861102865E-01  0.34677464555E-01  0.00000000000E+00 0.  1.
       22    1    1    2    0    0  0.47951584927E-02  0.20329903230E-01  0.25562022673E-01  0.33010839333E-01  0.00000000000E+00 0. -1.
</event>
<event>
 5   0  0.4143600E+04  0.9118800E+02  0.7546771E-02  0.1180000E+00
      -11   -1    0    0    0    0  0.00000000000E+00  0.00000000000E+00  0.34996269501E-01  0.35000000000E-01  0.51099999109E-03 0. -1.
       11   -1    0    0    0    0 -0.00000000000E+00 -0.00000000000E+00 -0.34996269501E-01  0.35000000000E-01  0.51099999109E-03 0.  1.
       22    1    1    2    0    0 -0.46283660813E-02 -0.19981551497E-02  0.30242861421E-01  0.30660154329E-01  0.00000000000E+00 0. -1.
       22    1    1    2    0    0 -0.65894093674E-02 -0.71950026170E-03  0.35426779849E-03  0.66380345066E-02  0.00000000000E+00 0. -1.
       22    1    1    2    0    0  0.11217775449E-01  0.27176554114E-02 -0.30597129219E-01  0.32701811164E-01  0.00000000000E+00 0.  1.
</event>
<event>
 5   0  0.4143600E+04  0.9118800E+02  0.7546771E-02  0.1180000E+00
      -11   -1    0    0    0    0  0.00000000000E+00  0.00000000000E+00  0.34996269501E-01  0.35000000000E-01  0.51099999109E-03 0.  1.
       11   -1    0    0    0    0 -0.00000000000E+00 -0.00000000000E+00 -0.34996269501E-01  0.35000000000E-01  0.51099999109E-03 0. -1.
       22    1    1    2    0    0  0.16668382979E-01  0.45427798105E-02  0.26936766073E-01  0.32000956329E-01  0.00000000000E+00 0.  1.
       22    1    1    2    0    0 -0.16464394564E-01 -0.51333463561E-02 -0.30145479055E-01  0.34730065371E-01  0.00000000000E+00 0. -1.
       22    1    1    2    0    0 -0.20398841503E-03  0.59056654563E-03  0.32087129829E-02  0.32689782998E-02  0.00000000000E+00 0.  1.
</event>
<event>
 5   0  0.4143600E+04  0.9118800E+02  0.7546771E-02  0.1180000E+00
      -11   -1    0    0    0    0  0.00000000000E+00  0.00000000000E+00  0.34996269501E-01  0.35000000000E-01  0.51099999109E-03 0.  1.
       11   -1    0    0    0    0 -0.00000000000E+00 -0.00000000000E+00 -0.34996269501E-01  0.35000000000E-01  0.51099999109E-03 0. -1.
       22    1    1    2    0    0  0.20023738443E-04 -0.26571322792E-04  0.32228847868E-03  0.32400130985E-03  0.00000000000E+00 0. -1.
       22    1    1    2    0    0  0.85610253425E-02  0.12095026640E-01  0.31370577277E-01  0.34694292658E-01  0.00000000000E+00 0.  1.
       22    1    1    2    0    0 -0.85810490810E-02 -0.12068455317E-01 -0.31692865756E-01  0.34981706032E-01  0.00000000000E+00 0. -1.
</event>
<event>
 5   0  0.4143600E+04  0.9118800E+02  0.7546771E-02  0.1180000E+00
      -11   -1    0    0    0    0  0.00000000000E+00  0.00000000000E+00  0.34996269501E-01  0.35000000000E-01  0.51099999109E-03 0. -1.
       11   -1    0    0    0    0 -0.00000000000E+00 -0.00000000000E+00 -0.34996269501E-01  0.35000000000E-01  0.51099999109E-03 0.  1.
       22    1    1    2    0    0  0.42400023952E-02 -0.12658913615E-01 -0.32289702405E-01  0.34940672513E-01  0.00000000000E+00 0.  1.
       22    1    1    2    0    0 -0.22458957655E-04 -0.45592835854E-04  0.13130010258E-02  0.13139843245E-02  0.00000000000E+00 0.  1.
       22    1    1    2    0    0 -0.42175434376E-02  0.12704506451E-01  0.30976701380E-01  0.33745343163E-01  0.00000000000E+00 0. -1.
</event>
<event>
 5   0  0.4143600E+04  0.9118800E+02  0.7546771E-02  0.1180000E+00
      -11   -1    0    0    0    0  0.00000000000E+00  0.00000000000E+00  0.34996269501E-01  0.35000000000E-01  0.51099999109E-03 0.  1.
       11   -1    0    0    0    0 -0.00000000000E+00 -0.00000000000E+00 -0.34996269501E-01  0.35000000000E-01  0.51099999109E-03 0. -1.
       22    1    1    2    0    0 -0.11751265512E-01 -0.14583682974E-01 -0.15109912386E-02  0.18789868140E-01  0.00000000000E+00 0. -1.
       22    1    1    2    0    0  0.10075706524E-01  0.14629889636E-01 -0.21640757294E-01  0.27997784001E-01  0.00000000000E+00 0.  1.
       22    1    1    2    0    0  0.16755589880E-02 -0.46206662091E-04  0.23151748533E-01  0.23212347859E-01  0.00000000000E+00 0.  1.
</event>
<event>
 5   0  0.4143600E+04  0.9118800E+02  0.7546771E-02  0.1180000E+00
      -11   -1    0    0    0    0  0.00000000000E+00  0.00000000000E+00  0.34996269501E-01  0.35000000000E-01  0.51099999109E-03 0.  1.
       11   -1    0    0    0    0 -0.00000000000E+00 -0.00000000000E+00 -0.34996269501E-01  0.35000000000E-01  0.51099999109E-03 0. -1.
       22    1    1    2    0    0 -0.23164584180E-01  0.13515755826E-01  0.21399262437E-01  0.34310378148E-01  0.00000000000E+00 0.  1.
       22    1    1    2    0    0 -0.59225374311E-03  0.30357883500E-03 -0.18394450637E-02  0.19561397567E-02  0.00000000000E+00 0. -1.
       22    1    1    2    0    0  0.23756837924E-01 -0.13819334661E-01 -0.19559817374E-01  0.33733482095E-01  0.00000000000E+00 0. -1.
</event>
<event>
 5   0  0.4143600E+04  0.9118800E+02  0.7546771E-02  0.1180000E+00
      -11   -1    0    0    0    0  0.00000000000E+00  0.00000000000E+00  0.34996269501E-01  0.35000000000E-01  0.51099999109E-03 0.  1.
       11   -1    0    0    0    0 -0.00000000000E+00 -0.00000000000E+00 -0.34996269501E-01  0.35000000000E-01  0.51099999109E-03 0. -1.
       22    1    1    2    0    0  0.17533531060E-01 -0.16728593591E-01 -0.25124287127E-01  0.34907024488E-01  0.00000000000E+00 0. -1.
       22    1    1    2    0    0  0.19443787202E-04 -0.38973301473E-06  0.61694112365E-03  0.61724757011E-03  0.00000000000E+00 0. -1.
       22    1    1    2    0    0 -0.17552974847E-01  0.16728983324E-01  0.24507346003E-01  0.34475727942E-01  0.00000000000E+00 0.  1.
</event>
<event>
 5   0  0.4143600E+04  0.9118800E+02  0.7546771E-02  0.1180000E+00
      -11   -1    0    0    0    0  0.00000000000E+00  0.00000000000E+00  0.34996269501E-01  0.35000000000E-01  0.51099999109E-03 0.  1.
       11   -1    0    0    0    0 -0.00000000000E+00 -0.00000000000E+00 -0.34996269501E-01  0.35000000000E-01  0.51099999109E-03 0. -1.
       22    1    1    2    0    0 -0.35913228162E-03  0.10603236951E-03 -0.99264181984E-03  0.10609225427E-02  0.00000000000E+00 0.  1.
       22    1    1    2    0    0 -0.63884637680E-02  0.57199995967E-02 -0.32845465148E-01  0.33946361300E-01  0.00000000000E+00 0. -1.
       22    1    1    2    0    0  0.67475960496E-02 -0.58260319662E-02  0.33838106968E-01  0.34992716158E-01  0.00000000000E+00 0.  1.
</event>
<event>
 5   0  0.4143600E+04  0.9118800E+02  0.7546771E-02  0.1180000E+00
      -11   -1    0    0    0    0  0.00000000000E+00  0.00000000000E+00  0.34996269501E-01  0.35000000000E-01  0.51099999109E-03 0.  1.
       11   -1    0    0    0    0 -0.00000000000E+00 -0.00000000000E+00 -0.34996269501E-01  0.35000000000E-01  0.51099999109E-03 0. -1.
       22    1    1    2    0    0  0.37358769524E-02  0.17748980668E-01  0.29526832515E-01  0.34652805510E-01  0.00000000000E+00 0.  1.
       22    1    1    2    0    0 -0.34650628064E-02 -0.17674765024E-01 -0.29884475133E-01  0.34892489634E-01  0.00000000000E+00 0. -1.
       22    1    1    2    0    0 -0.27081414602E-03 -0.74215644438E-04  0.35764261812E-03  0.45470485577E-03  0.00000000000E+00 0. -1.
</event>
<event>
 5   0  0.4143600E+04  0.9118800E+02  0.7546771E-02  0.1180000E+00
      -11   -1    0    0    0    0  0.00000000000E+00  0.00000000000E+00  0.34996269501E-01  0.35000000000E-01  0.51099999109E-03 0. -1.
       11   -1    0    0    0    0 -0.00000000000E+00 -0.00000000000E+00 -0.34996269501E-01  0.35000000000E-01  0.51099999109E-03 0. -1.
       22    1    1    2    0    0 -0.12399832006E-01  0.37934667433E-02 -0.22959947830E-01  0.26368644790E-01  0.00000000000E+00 0. -1.
       22    1    1    2    0    0  0.12706022796E-01 -0.38703049471E-02 -0.60671890290E-02  0.14602501785E-01  0.00000000000E+00 0.  1.
       22    1    1    2    0    0 -0.30619078975E-03  0.76838203780E-04  0.29027136859E-01  0.29028853425E-01  0.00000000000E+00 0. -1.
</event>
<event>
 5   0  0.4143600E+04  0.9118800E+02  0.7546771E-02  0.1180000E+00
      -11   -1    0    0    0    0  0.00000000000E+00  0.00000000000E+00  0.34996269501E-01  0.35000000000E-01  0.51099999109E-03 0. -1.
       11   -1    0    0    0    0 -0.00000000000E+00 -0.00000000000E+00 -0.34996269501E-01  0.35000000000E-01  0.51099999109E-03 0.  1.
       22    1    1    2    0    0  0.37805394837E-02 -0.51015303604E-04  0.34777130077E-01  0.34982050508E-01  0.00000000000E+00 0. -1.
       22    1    1    2    0    0 -0.35975228588E-02 -0.75055404632E-04 -0.34335711140E-01  0.34523743475E-01  0.00000000000E+00 0.  1.
       22    1    1    2    0    0 -0.18301662491E-03  0.12607070824E-03 -0.44141893707E-03  0.49420601623E-03  0.00000000000E+00 0.  1.
</event>
<event>
 5   0  0.4143600E+04  0.9118800E+02  0.7546771E-02  0.1180000E+00
      -11   -1    0    0    0    0  0.00000000000E+00  0.00000000000E+00  0.34996269501E-01  0.35000000000E-01  0.51099999109E-03 0. -1.
       11   -1    0    0    0    0 -0.00000000000E+00 -0.00000000000E+00 -0.34996269501E-01  0.35000000000E-01  0.51099999109E-03 0.  1.
       22    1    1    2    0    0 -0.64690265192E-02 -0.34359874013E-02 -0.32326053969E-01  0.33145558959E-01  0.00000000000E+00 0.  1.
       22    1    1    2    0    0  0.52565633109E-02  0.29654458076E-02  0.34113857429E-01  0.34643622723E-01  0.00000000000E+00 0. -1.
       22    1    1    2    0    0  0.12124632083E-02  0.47054159375E-03 -0.17878034604E-02  0.22108183182E-02  0.00000000000E+00 0. -1.
</event>
<event>
 5   0  0.4143600E+04  0.9118800E+02  0.7546771E-02  0.1180000E+00
      -11   -1    0    0    0    0  0.00000000000E+00  0.00000000000E+00  0.34996269501E-01  0.35000000000E-01  0.51099999109E-03 0.  1.
       11   -1    0    0    0    0 -0.00000000000E+00 -0.00000000000E+00 -0.34996269501E-01  0.35000000000E-01  0.51099999109E-03 0. -1.
       22    1    1    2    0    0 -0.15381943069E-01  0.19747126332E-01  0.24178902143E-01  0.34801903393E-01  0.00000000000E+00 0.  1.
       22    1    1    2    0    0  0.15439310972E-01 -0.18121152171E-01 -0.21578579775E-01  0.32130726484E-01  0.00000000000E+00 0. -1.
       22    1    1    2    0    0 -0.57367903072E-04 -0.16259741612E-02 -0.26003223687E-02  0.30673701228E-02  0.00000000000E+00 0.  1.
</event>
<event>
 5   0  0.4143600E+04  0.9118800E+02  0.7546771E-02  0.1180000E+00
      -11   -1    0    0    0    0  0.00000000000E+00  0.00000000000E+00  0.34996269501E-01  0.35000000000E-01  0.51099999109E-03 0.  1.
       11   -1    0    0    0    0 -0.00000000000E+00 -0.00000000000E+00 -0.34996269501E-01  0.35000000000E-01  0.51099999109E-03 0. -1.
       22    1    1    2    0    0  0.37359652676E-02 -0.32547276412E-01  0.42330465133E-02  0.33033336512E-01  0.00000000000E+00 0.  1.
       22    1    1    2    0    0 -0.15947684754E-02 -0.10472398559E-02 -0.26518699329E-02  0.32668657682E-02  0.00000000000E+00 0.  1.
       22    1    1    2    0    0 -0.21411967922E-02  0.33594516268E-01 -0.15811765803E-02  0.33699797720E-01  0.00000000000E+00 0. -1.
</event>
<event>
 5   0  0.4143600E+04  0.9118800E+02  0.7546771E-02  0.1180000E+00
      -11   -1    0    0    0    0  0.00000000000E+00  0.00000000000E+00  0.34996269501E-01  0.35000000000E-01  0.51099999109E-03 0. -1.
       11   -1    0    0    0    0 -0.00000000000E+00 -0.00000000000E+00 -0.34996269501E-01  0.35000000000E-01  0.51099999109E-03 0.  1.
       22    1    1    2    0    0 -0.25236783496E-01  0.15635307368E-01 -0.17605684761E-01  0.34515477885E-01  0.00000000000E+00 0.  1.
       22    1    1    2    0    0  0.42544950484E-04 -0.26642600435E-03 -0.70417120349E-03  0.75408883590E-03  0.00000000000E+00 0. -1.
       22    1    1    2    0    0  0.25194238546E-01 -0.15368881364E-01  0.18309855965E-01  0.34730433279E-01  0.00000000000E+00 0. -1.
</event>
<event>
 5   0  0.4143600E+04  0.9118800E+02  0.7546771E-02  0.1180000E+00
      -11   -1    0    0    0    0  0.00000000000E+00  0.00000000000E+00  0.34996269501E-01  0.35000000000E-01  0.51099999109E-03 0. -1.
       11   -1    0    0    0    0 -0.00000000000E+00 -0.00000000000E+00 -0.34996269501E-01  0.35000000000E-01  0.51099999109E-03 0.  1.
       22    1    1    2    0    0  0.18339227163E-02  0.12411929388E-01  0.29563371315E-01  0.32115606598E-01  0.00000000000E+00 0. -1.
       22    1    1    2    0    0 -0.11954757412E-03 -0.10902140220E-02  0.30913758208E-02  0.32801619932E-02  0.00000000000E+00 0. -1.
       22    1    1    2    0    0 -0.17143751422E-02 -0.11321715366E-01 -0.32654747135E-01  0.34604231409E-01  0.00000000000E+00 0.  1.
</event>
<event>
 5   0  0.4143600E+04  0.9118800E+02  0.7546771E-02  0.1180000E+00
      -11   -1    0    0    0    0  0.00000000000E+00  0.00000000000E+00  0.34996269501E-01  0.35000000000E-01  0.51099999109E-03 0.  1.
       11   -1    0    0    0    0 -0.00000000000E+00 -0.00000000000E+00 -0.34996269501E-01  0.35000000000E-01  0.51099999109E-03 0. -1.
       22    1    1    2    0    0 -0.27376871225E-03 -0.59586611910E-03 -0.12666874779E-02  0.14263600199E-02  0.00000000000E+00 0.  1.
       22    1    1    2    0    0 -0.18375139222E-01 -0.27268896572E-01  0.91466674932E-02  0.34130631226E-01  0.00000000000E+00 0.  1.
       22    1    1    2    0    0  0.18648907934E-01  0.27864762691E-01 -0.78799800153E-02  0.34443008754E-01  0.00000000000E+00 0. -1.
</event>
<event>
 5   0  0.4143600E+04  0.9118800E+02  0.7546771E-02  0.1180000E+00
      -11   -1    0    0    0    0  0.00000000000E+00  0.00000000000E+00  0.34996269501E-01  0.35000000000E-01  0.51099999109E-03 0. -1.
       11   -1    0    0    0    0 -0.00000000000E+00 -0.00000000000E+00 -0.34996269501E-01  0.35000000000E-01  0.51099999109E-03 0.  1.
       22    1    1    2    0    0  0.36596006042E-03 -0.80826536371E-03  0.16402059433E-02  0.18648043330E-02  0.00000000000E+00 0. -1.
       22    1    1    2    0    0 -0.12177718948E-01 -0.48664416939E-02 -0.32262986758E-01  0.34826418250E-01  0.00000000000E+00 0.  1.
       22    1    1    2    0    0  0.11811758888E-01  0.56747070576E-02  0.30622780815E-01  0.33308777417E-01  0.00000000000E+00 0. -1.
</event>
<event>
 5   0  0.4143600E+04  0.9118800E+02  0.7546771E-02  0.1180000E+00
      -11   -1    0    0    0    0  0.00000000000E+00  0.00000000000E+00  0.34996269501E-01  0.35000000000E-01  0.51099999109E-03 0.  1.
       11   -1    0    0    0    0 -0.00000000000E+00 -0.00000000000E+00 -0.34996269501E-01  0.35000000000E-01  0.51099999109E-03 0. -1.
       22    1    1    2    0    0 -0.18018865836E-01  0.67501184894E-03 -0.26853825129E-01  0.32345990339E-01  0.00000000000E+00 0. -1.
       22    1    1    2    0    0 -0.71905910995E-03  0.87102257741E-03 -0.25294935669E-02  0.27702101073E-02  0.00000000000E+00 0. -1.
       22    1    1    2    0    0  0.18737924946E-01 -0.15460344264E-02  0.29383318695E-01  0.34883799553E-01  0.00000000000E+00 0.  1.
</event>
<event>
 5   0  0.4143600E+04  0.9118800E+02  0.7546771E-02  0.1180000E+00
      -11   -1    0    0    0    0  0.00000000000E+00  0.00000000000E+00  0.34996269501E-01  0.35000000000E-01  0.51099999109E-03 0.  1.
       11   -1    0    0    0    0 -0.00000000000E+00 -0.00000000000E+00 -0.34996269501E-01  0.35000000000E-01  0.51099999109E-03 0. -1.
       22    1    1    2    0    0 -0.12269777347E-01 -0.67808965299E-02  0.26528897866E-01  0.30005173152E-01  0.00000000000E+00 0.  1.
       22    1    1    2    0    0 -0.73106699971E-02  0.12302878073E-02 -0.12121772979E-02  0.75119157142E-02  0.00000000000E+00 0. -1.
       22    1    1    2    0    0  0.19580447344E-01  0.55506087225E-02 -0.25316720568E-01  0.32482911134E-01  0.00000000000E+00 0. -1.
</event>
<event>
 5   0  0.4143600E+04  0.9118800E+02  0.7546771E-02  0.1180000E+00
      -11   -1    0    0    0    0  0.00000000000E+00  0.00000000000E+00  0.34996269501E-01  0.35000000000E-01  0.51099999109E-03 0.  1.
       11   -1    0    0    0    0 -0.00000000000E+00 -0.00000000000E+00 -0.34996269501E-01  0.35000000000E-01  0.51099999109E-03 0. -1.
       22    1    1    2    0    0  0.10963237093E-02 -0.46211586113E-02 -0.34060343552E-01  0.34389882748E-01  0.00000000000E+00 0. -1.
       22    1    1    2    0    0  0.23823388093E-03  0.21024031312E-03 -0.58173913212E-03  0.66285502874E-03  0.00000000000E+00 0. -1.
       22    1    1    2    0    0 -0.13345575903E-02  0.44109182982E-02  0.34642082684E-01  0.34947262223E-01  0.00000000000E+00 0.  1.
</event>
<event>
 5   0  0.4143600E+04  0.9118800E+02  0.7546771E-02  0.1180000E+00
      -11   -1    0    0    0    0  0.00000000000E+00  0.00000000000E+00  0.34996269501E-01  0.35000000000E-01  0.51099999109E-03 0.  1.
       11   -1    0    0    0    0 -0.00000000000E+00 -0.00000000000E+00 -0.34996269501E-01  0.35000000000E-01  0.51099999109E-03 0. -1.
       22    1    1    2    0    0  0.15174607487E-01 -0.11989718113E-01 -0.27326707950E-01  0.33477918397E-01  0.00000000000E+00 0. -1.
       22    1    1    2    0    0 -0.14350013986E-01  0.12812891841E-01  0.15683340481E-01  0.24820561383E-01  0.00000000000E+00 0.  1.
       22    1    1    2    0    0 -0.82459350084E-03 -0.82317372760E-03  0.11643367469E-01  0.11701520219E-01  0.00000000000E+00 0.  1.
</event>
<event>
 5   0  0.4143600E+04  0.9118800E+02  0.7546771E-02  0.1180000E+00
      -11   -1    0    0    0    0  0.00000000000E+00  0.00000000000E+00  0.34996269501E-01  0.35000000000E-01  0.51099999109E-03 0.  1.
       11   -1    0    0    0    0 -0.00000000000E+00 -0.00000000000E+00 -0.34996269501E-01  0.35000000000E-01  0.51099999109E-03 0. -1.
       22    1    1    2    0    0 -0.18350335947E-01  0.32040104008E-02 -0.29529998462E-01  0.34914485836E-01  0.00000000000E+00 0. -1.
       22    1    1    2    0    0  0.18089909790E-01 -0.32476838597E-02  0.27739825001E-01  0.33275969975E-01  0.00000000000E+00 0.  1.
       22    1    1    2    0    0  0.26042615751E-03  0.43673458915E-04  0.17901734608E-02  0.18095441896E-02  0.00000000000E+00 0.  1.
</event>
<event>
 5   0  0.4143600E+04  0.9118800E+02  0.7546771E-02  0.1180000E+00
      -11   -1    0    0    0    0  0.00000000000E+00  0.00000000000E+00  0.34996269501E-01  0.35000000000E-01  0.51099999109E-03 0. -1.
       11   -1    0    0    0    0 -0.00000000000E+00 -0.00000000000E+00 -0.34996269501E-01  0.35000000000E-01  0.51099999109E-03 0.  1.
       22    1    1    2    0    0  0.69210530420E-02  0.10214441928E-01 -0.32578968104E-01  0.34837120458E-01  0.00000000000E+00 0.  1.
       22    1    1    2    0    0 -0.68655499162E-02 -0.10627131574E-01  0.32212993008E-01  0.34608505020E-01  0.00000000000E+00 0. -1.
       22    1    1    2    0    0 -0.55503125844E-04  0.41268964569E-03  0.36597509530E-03  0.55437452234E-03  0.00000000000E+00 0.  1.
</event>
<event>
 5   0  0.4143600E+04  0.9118800E+02  0.7546771E-02  0.1180000E+00
      -11   -1    0    0    0    0  0.00000000000E+00  0.00000000000E+00  0.34996269501E-01  0.35000000000E-01  0.51099999109E-03 0. -1.
       11   -1    0    0    0    0 -0.00000000000E+00 -0.00000000000E+00 -0.34996269501E-01  0.35000000000E-01  0.51099999109E-03 0.  1.
       22    1    1    2    0    0  0.57684750503E-03 -0.17216620112E-02 -0.48903633103E-02  0.52165627027E-02  0.00000000000E+00 0. -1.
       22    1    1    2    0    0 -0.77149738060E-02 -0.66346581918E-02  0.33036358766E-01  0.34567911576E-01  0.00000000000E+00 0. -1.
       22    1    1    2    0    0  0.71381263010E-02  0.83563202030E-02 -0.28145995456E-01  0.30215525722E-01  0.00000000000E+00 0.  1.
</event>
<event>
 5   0  0.4143600E+04  0.9118800E+02  0.7546771E-02  0.1180000E+00
      -11   -1    0    0    0    0  0.00000000000E+00  0.00000000000E+00  0.34996269501E-01  0.35000000000E-01  0.51099999109E-03 0.  1.
       11   -1    0    0    0    0 -0.00000000000E+00 -0.00000000000E+00 -0.34996269501E-01  0.35000000000E-01  0.51099999109E-03 0. -1.
       22    1    1    2    0    0  0.13063519409E-01  0.83293299302E-02 -0.27174002024E-01  0.31280339870E-01  0.00000000000E+00 0. -1.
       22    1    1    2    0    0  0.20538278231E-02 -0.36424216076E-03  0.20129342118E-01  0.20237126654E-01  0.00000000000E+00 0.  1.
       22    1    1    2    0    0 -0.15117347232E-01 -0.79650877694E-02  0.70446599052E-02  0.18482533476E-01  0.00000000000E+00 0.  1.
</event>
<event>
 5   0  0.4143600E+04  0.9118800E+02  0.7546771E-02  0.1180000E+00
      -11   -1    0    0    0    0  0.00000000000E+00  0.00000000000E+00  0.34996269501E-01  0.35000000000E-01  0.51099999109E-03 0.  1.
       11   -1    0    0    0    0 -0.00000000000E+00 -0.00000000000E+00 -0.34996269501E-01  0.35000000000E-01  0.51099999109E-03 0. -1.
       22    1    1    2    0    0  0.66769807960E-02 -0.85140357940E-02  0.33132419533E-01  0.34854384260E-01  0.00000000000E+00 0.  1.
       22    1    1    2    0    0 -0.49204344598E-02  0.85531699185E-02 -0.29580456709E-01  0.31182860838E-01  0.00000000000E+00 0. -1.
       22    1    1    2    0    0 -0.17565463362E-02 -0.39134124533E-04 -0.35519628237E-02  0.39627549018E-02  0.00000000000E+00 0. -1.
</event>
<event>
 5   0  0.4143600E+04  0.9118800E+02  0.7546771E-02  0.1180000E+00
      -11   -1    0    0    0    0  0.00000000000E+00  0.00000000000E+00  0.34996269501E-01  0.35000000000E-01  0.51099999109E-03 0. -1.
       11   -1    0    0    0    0 -0.00000000000E+00 -0.00000000000E+00 -0.34996269501E-01  0.35000000000E-01  0.51099999109E-03 0.  1.
       22    1    1    2    0    0 -0.25894301149E-02 -0.31114943409E-02 -0.23499935314E-01  0.23846037513E-01  0.00000000000E+00 0.  1.
       22    1    1    2    0    0  0.61721870889E-02 -0.13219851389E-02  0.33798640881E-01  0.34383014173E-01  0.00000000000E+00 0. -1.
       22    1    1    2    0    0 -0.35827569741E-02  0.44334794798E-02 -0.10298705568E-01  0.11770948314E-01  0.00000000000E+00 0.  1.
</event>
<event>
 5   0  0.4143600E+04  0.9118800E+02  0.7546771E-02  0.1180000E+00
      -11   -1    0    0    0    0  0.00000000000E+00  0.00000000000E+00  0.34996269501E-01  0.35000000000E-01  0.51099999109E-03 0.  1.
       11   -1    0    0    0    0 -0.00000000000E+00 -0.00000000000E+00 -0.34996269501E-01  0.35000000000E-01  0.51099999109E-03 0. -1.
       22    1    1    2    0    0  0.12035032073E-01  0.35540300343E-02  0.32654781241E-01  0.34982965346E-01  0.00000000000E+00 0.  1.
       22    1    1    2    0    0 -0.46887756500E-03 -0.35302479206E-03 -0.23583925059E-02  0.24303267037E-02  0.00000000000E+00 0.  1.
       22    1    1    2    0    0 -0.11566154508E-01 -0.32010052422E-02 -0.30296388735E-01  0.32586707951E-01  0.00000000000E+00 0. -1.
</event>
<event>
 5   0  0.4143600E+04  0.9118800E+02  0.7546771E-02  0.1180000E+00
      -11   -1    0    0    0    0  0.00000000000E+00  0.00000000000E+00  0.34996269501E-01  0.35000000000E-01  0.51099999109E-03 0.  1.
       11   -1    0    0    0    0 -0.00000000000E+00 -0.00000000000E+00 -0.34996269501E-01  0.35000000000E-01  0.51099999109E-03 0. -1.
       22    1    1    2    0    0 -0.11436391387E-01  0.76437143902E-02  0.10529778670E-01  0.17323211495E-01  0.00000000000E+00 0.  1.
       22    1    1    2    0    0  0.10001762770E-01 -0.80129878821E-02 -0.30275137931E-01  0.32875936642E-01  0.00000000000E+00 0. -1.
       22    1    1    2    0    0  0.14346286176E-02  0.36927349193E-03  0.19745359261E-01  0.19800851864E-01  0.00000000000E+00 0.  1.
</event>
<event>
 5   0  0.4143600E+04  0.9118800E+02  0.7546771E-02  0.1180000E+00
      -11   -1    0    0    0    0  0.00000000000E+00  0.00000000000E+00  0.34996269501E-01  0.35000000000E-01  0.51099999109E-03 0. -1.
       11   -1    0    0    0    0 -0.00000000000E+00 -0.00000000000E+00 -0.34996269501E-01  0.35000000000E-01  0.51099999109E-03 0.  1.
       22    1    1    2    0    0 -0.38166846311E-04 -0.95359027779E-05  0.79538569247E-03  0.79635798570E-03  0.00000000000E+00 0. -1.
       22    1    1    2    0    0 -0.11462746780E-01 -0.80881565439E-03 -0.33028491019E-01  0.34970415575E-01  0.00000000000E+00 0.  1.
       22    1    1    2    0    0  0.11500913626E-01  0.81835155716E-03  0.32233105326E-01  0.34233226440E-01  0.00000000000E+00 0. -1.
</event>
<event>
 5   0  0.4143600E+04  0.9118800E+02  0.7546771E-02  0.1180000E+00
      -11   -1    0    0    0    0  0.00000000000E+00  0.00000000000E+00  0.34996269501E-01  0.35000000000E-01  0.51099999109E-03 0.  1.
       11   -1    0    0    0    0 -0.00000000000E+00 -0.00000000000E+00 -0.34996269501E-01  0.35000000000E-01  0.51099999109E-03 0. -1.
       22    1    1    2    0    0 -0.16097498932E-03  0.10497249618E-02  0.49282613392E-02  0.50413882285E-02  0.00000000000E+00 0.  1.
       22    1    1    2    0    0 -0.38617512584E-02 -0.12058606590E-01  0.27609344340E-01  0.30374314981E-01  0.00000000000E+00 0.  1.
       22    1    1    2    0    0  0.40227262477E-02  0.11008881628E-01 -0.32537605679E-01  0.34584296791E-01  0.00000000000E+00 0. -1.
</event>
<event>
 5   0  0.4143600E+04  0.9118800E+02  0.7546771E-02  0.1180000E+00
      -11   -1    0    0    0    0  0.00000000000E+00  0.00000000000E+00  0.34996269501E-01  0.35000000000E-01  0.51099999109E-03 0. -1.
       11   -1    0    0    0    0 -0.00000000000E+00 -0.00000000000E+00 -0.34996269501E-01  0.35000000000E-01  0.51099999109E-03 0.  1.
       22    1    1    2    0    0 -0.64336588185E-02 -0.12411945714E-01  0.31143946758E-01  0.34137864343E-01  0.00000000000E+00 0. -1.
       22    1    1    2    0    0 -0.43060122767E-04  0.83188870273E-04  0.90935675658E-03  0.91416862396E-03  0.00000000000E+00 0.  1.
       22    1    1    2    0    0  0.64767189413E-02  0.12328756844E-01 -0.32053303515E-01  0.34947967033E-01  0.00000000000E+00 0.  1.
</event>
<event>
 5   0  0.4143600E+04  0.9118800E+02  0.7546771E-02  0.1180000E+00
      -11   -1    0    0    0    0  0.00000000000E+00  0.00000000000E+00  0.34996269501E-01  0.35000000000E-01  0.51099999109E-03 0.  1.
       11   -1    0    0    0    0 -0.00000000000E+00 -0.00000000000E+00 -0.34996269501E-01  0.35000000000E-01  0.51099999109E-03 0. -1.
       22    1    1    2    0    0  0.13370191436E-01 -0.14048693170E-01  0.27487155342E-01  0.33640325617E-01  0.00000000000E+00 0.  1.
       22    1    1    2    0    0 -0.12644175518E-02 -0.22084272401E-02 -0.47556787941E-03  0.25888351489E-02  0.00000000000E+00 0.  1.
       22    1    1    2    0    0 -0.12105773884E-01  0.16257120410E-01 -0.27011587462E-01  0.33770839234E-01  0.00000000000E+00 0. -1.
</event>
<event>
 5   0  0.4143600E+04  0.9118800E+02  0.7546771E-02  0.1180000E+00
      -11   -1    0    0    0    0  0.00000000000E+00  0.00000000000E+00  0.34996269501E-01  0.35000000000E-01  0.51099999109E-03 0. -1.
       11   -1    0    0    0    0 -0.00000000000E+00 -0.00000000000E+00 -0.34996269501E-01  0.35000000000E-01  0.51099999109E-03 0.  1.
       22    1    1    2    0    0  0.38333438355E-02 -0.69042755716E-02  0.52921251588E-02  0.95063207829E-02  0.00000000000E+00 0. -1.
       22    1    1    2    0    0 -0.37019223895E-02  0.12141258196E-01 -0.31398390486E-01  0.33866994332E-01  0.00000000000E+00 0.  1.
       22    1    1    2    0    0 -0.13142144600E-03 -0.52369826243E-02  0.26106265328E-01  0.26626684885E-01  0.00000000000E+00 0. -1.
</event>
<event>
 5   0  0.4143600E+04  0.9118800E+02  0.7546771E-02  0.1180000E+00
      -11   -1    0    0    0    0  0.00000000000E+00  0.00000000000E+00  0.34996269501E-01  0.35000000000E-01  0.51099999109E-03 0.  1.
       11   -1    0    0    0    0 -0.00000000000E+00 -0.00000000000E+00 -0.34996269501E-01  0.35000000000E-01  0.51099999109E-03 0. -1.
       22    1    1    2    0    0 -0.11251630856E-02 -0.28189288891E-02 -0.31976615498E-02  0.44087857101E-02  0.00000000000E+00 0. -1.
       22    1    1    2    0    0 -0.24792999927E-02  0.69859659343E-02 -0.30529711940E-01  0.31416778313E-01  0.00000000000E+00 0. -1.
       22    1    1    2    0    0  0.36044630783E-02 -0.41670370452E-02  0.33727373489E-01  0.34174435976E-01  0.00000000000E+00 0.  1.
</event>
<event>
 5   0  0.4143600E+04  0.9118800E+02  0.7546771E-02  0.1180000E+00
      -11   -1    0    0    0    0  0.00000000000E+00  0.00000000000E+00  0.34996269501E-01  0.35000000000E-01  0.51099999109E-03 0.  1.
       11   -1    0    0    0    0 -0.00000000000E+00 -0.00000000000E+00 -0.34996269501E-01  0.35000000000E-01  0.51099999109E-03 0. -1.
       22    1    1    2    0    0 -0.72787433642E-04 -0.59976219082E-03 -0.37581160281E-02  0.38063695008E-02  0.00000000000E+00 0. -1.
       22    1    1    2    0    0 -0.88467693841E-02 -0.14380769605E-01  0.30154205291E-01  0.34559339689E-01  0.00000000000E+00 0.  1.
       22    1    1    2    0    0  0.89195568177E-02  0.14980531796E-01 -0.26396089263E-01  0.31634290811E-01  0.00000000000E+00 0. -1.
</event>
<event>
 5   0  0.4143600E+04  0.9118800E+02  0.7546771E-02  0.1180000E+00
      -11   -1    0    0    0    0  0.00000000000E+00  0.00000000000E+00  0.34996269501E-01  0.35000000000E-01  0.51099999109E-03 0.  1.
       11   -1    0    0    0    0 -0.00000000000E+00 -0.00000000000E+00 -0.34996269501E-01  0.35000000000E-01  0.51099999109E-03 0. -1.
       22    1    1    2    0    0 -0.15238475275E-02 -0.75780065041E-04  0.34944721349E-01  0.34978013152E-01  0.00000000000E+00 0.  1.
       22    1    1    2    0    0  0.30961927590E-03 -0.21063162639E-04 -0.83956218044E-03  0.89508234685E-03  0.00000000000E+00 0.  1.
       22    1    1    2    0    0  0.12142282516E-02  0.96843227680E-04 -0.34105159169E-01  0.34126904501E-01  0.00000000000E+00 0. -1.
</event>
<event>
 5   0  0.4143600E+04  0.9118800E+02  0.7546771E-02  0.1180000E+00
      -11   -1    0    0    0    0  0.00000000000E+00  0.00000000000E+00  0.34996269501E-01  0.35000000000E-01  0.51099999109E-03 0.  1.
       11   -1    0    0    0    0 -0.00000000000E+00 -0.00000000000E+00 -0.34996269501E-01  0.35000000000E-01  0.51099999109E-03 0.  1.
       22    1    1    2    0    0  0.21848607617E-02  0.46828974791E-02 -0.11680702201E-01  0.12772703287E-01  0.00000000000E+00 0. -1.
       22    1    1    2    0    0  0.23655036475E-03 -0.56179271736E-03 -0.22603391492E-01  0.22611609277E-01  0.00000000000E+00 0.  1.
       22    1    1    2    0    0 -0.24214111264E-02 -0.41211047617E-02  0.34284093693E-01  0.34615687436E-01  0.00000000000E+00 0.  1.
</event>
<event>
 5   0  0.4143600E+04  0.9118800E+02  0.7546771E-02  0.1180000E+00
      -11   -1    0    0    0    0  0.00000000000E+00  0.00000000000E+00  0.34996269501E-01  0.35000000000E-01  0.51099999109E-03 0. -1.
       11   -1    0    0    0    0 -0.00000000000E+00 -0.00000000000E+00 -0.34996269501E-01  0.35000000000E-01  0.51099999109E-03 0.  1.
       22    1    1    2    0    0  0.33119575775E-02  0.68599036749E-03  0.34805850248E-01  0.34969799217E-01  0.00000000000E+00 0. -1.
       22    1    1    2    0    0 -0.31489562957E-02 -0.79488362754E-03 -0.34575640527E-01  0.34727837300E-01  0.00000000000E+00 0.  1.
       22    1    1    2    0    0 -0.16300128179E-03  0.10889326005E-03 -0.23020972121E-03  0.30236348273E-03  0.00000000000E+00 0.  1.
</event>
<event>
 5   0  0.4143600E+04  0.9118800E+02  0.7546771E-02  0.1180000E+00
      -11   -1    0    0    0    0  0.00000000000E+00  0.00000000000E+00  0.34996269501E-01  0.35000000000E-01  0.51099999109E-03 0. -1.
       11   -1    0    0    0    0 -0.00000000000E+00 -0.00000000000E+00 -0.34996269501E-01  0.35000000000E-01  0.51099999109E-03 0.  1.
       22    1    1    2    0    0 -0.23322448726E-02 -0.57436125119E-03 -0.34152697088E-02  0.41753232421E-02  0.00000000000E+00 0. -1.
       22    1    1    2    0    0  0.16617735305E-01  0.69160277003E-02  0.30000179732E-01  0.34985587744E-01  0.00000000000E+00 0. -1.
       22    1    1    2    0    0 -0.14285490433E-01 -0.63416664491E-02 -0.26584910023E-01  0.30839089014E-01  0.00000000000E+00 0.  1.
</event>
<event>
 5   0  0.4143600E+04  0.9118800E+02  0.7546771E-02  0.1180000E+00
      -11   -1    0    0    0    0  0.00000000000E+00  0.00000000000E+00  0.34996269501E-01  0.35000000000E-01  0.51099999109E-03 0. -1.
       11   -1    0    0    0    0 -0.00000000000E+00 -0.00000000000E+00 -0.34996269501E-01  0.35000000000E-01  0.51099999109E-03 0.  1.
       22    1    1    2    0    0  0.68022491714E-03  0.88977799140E-03  0.31517745612E-01  0.31537639406E-01  0.00000000000E+00 0. -1.
       22    1    1    2    0    0 -0.35993098893E-02 -0.10927719630E-01 -0.18203394378E-01  0.21534475960E-01  0.00000000000E+00 0.  1.
       22    1    1    2    0    0  0.29190849721E-02  0.10037941638E-01 -0.13314351234E-01  0.16927884634E-01  0.00000000000E+00 0. -1.
</event>
<event>
 5   0  0.4143600E+04  0.9118800E+02  0.7546771E-02  0.1180000E+00
      -11   -1    0    0    0    0  0.00000000000E+00  0.00000000000E+00  0.34996269501E-01  0.35000000000E-01  0.51099999109E-03 0.  1.
       11   -1    0    0    0    0 -0.00000000000E+00 -0.00000000000E+00 -0.34996269501E-01  0.35000000000E-01  0.51099999109E-03 0. -1.
       22    1    1    2    0    0 -0.70087290904E-02  0.19258997526E-01 -0.28324846900E-01  0.34961810895E-01  0.00000000000E+00 0. -1.
       22    1    1    2    0    0  0.69474814363E-02 -0.19049339916E-01  0.27393075265E-01  0.34081159341E-01  0.00000000000E+00 0.  1.
       22    1    1    2    0    0  0.61247654114E-04 -0.20965761023E-03  0.93177163541E-03  0.95702976401E-03  0.00000000000E+00 0. -1.
</event>
<event>
 5   0  0.4143600E+04  0.9118800E+02  0.7546771E-02  0.1180000E+00
      -11   -1    0    0    0    0  0.00000000000E+00  0.00000000000E+00  0.34996269501E-01  0.35000000000E-01  0.51099999109E-03 0. -1.
       11   -1    0    0    0    0 -0.00000000000E+00 -0.00000000000E+00 -0.34996269501E-01  0.35000000000E-01  0.51099999109E-03 0.  1.
       22    1    1    2    0    0 -0.32771758610E-02  0.16259716051E-02 -0.14566590133E-02  0.39377050125E-02  0.00000000000E+00 0.  1.
       22    1    1    2    0    0  0.94031167649E-02 -0.10157403894E-01  0.31408007224E-01  0.34322796748E-01  0.00000000000E+00 0. -1.
       22    1    1    2    0    0 -0.61259409038E-02  0.85314322891E-02 -0.29951348211E-01  0.31739498240E-01  0.00000000000E+00 0.  1.
</event>
<event>
 5   0  0.4143600E+04  0.9118800E+02  0.7546771E-02  0.1180000E+00
      -11   -1    0    0    0    0  0.00000000000E+00  0.00000000000E+00  0.34996269501E-01  0.35000000000E-01  0.51099999109E-03 0.  1.
       11   -1    0    0    0    0 -0.00000000000E+00 -0.00000000000E+00 -0.34996269501E-01  0.35000000000E-01  0.51099999109E-03 0.  1.
       22    1    1    2    0    0 -0.78205126058E-04 -0.34501788445E-03 -0.84111750067E-03  0.91248672991E-03  0.00000000000E+00 0. -1.
       22    1    1    2    0    0  0.70907711362E-05  0.15201700024E-03  0.34963839834E-01  0.34964171024E-01  0.00000000000E+00 0.  1.
       22    1    1    2    0    0  0.71114354922E-04  0.19300088421E-03 -0.34122722334E-01  0.34123342246E-01  0.00000000000E+00 0.  1.
</event>
<event>
 5   0  0.4143600E+04  0.9118800E+02  0.7546771E-02  0.1180000E+00
      -11   -1    0    0    0    0  0.00000000000E+00  0.00000000000E+00  0.34996269501E-01  0.35000000000E-01  0.51099999109E-03 0.  1.
       11   -1    0    0    0    0 -0.00000000000E+00 -0.00000000000E+00 -0.34996269501E-01  0.35000000000E-01  0.51099999109E-03 0. -1.
       22    1    1    2    0    0  0.12939702851E-01  0.55878727864E-02  0.31746589053E-01  0.34734797375E-01  0.00000000000E+00 0.  1.
       22    1    1    2    0    0  0.69514286066E-04  0.38335286346E-03 -0.42322033485E-02  0.42500984502E-02  0.00000000000E+00 0.  1.
       22    1    1    2    0    0 -0.13009217137E-01 -0.59712256499E-02 -0.27514385705E-01  0.31015104175E-01  0.00000000000E+00 0. -1.
</event>
<event>
 5   0  0.4143600E+04  0.9118800E+02  0.7546771E-02  0.1180000E+00
      -11   -1    0    0    0    0  0.00000000000E+00  0.00000000000E+00  0.34996269501E-01  0.35000000000E-01  0.51099999109E-03 0.  1.
       11   -1    0    0    0    0 -0.00000000000E+00 -0.00000000000E+00 -0.34996269501E-01  0.35000000000E-01  0.51099999109E-03 0. -1.
       22    1    1    2    0    0  0.93212382867E-02 -0.23339409803E-01 -0.19052553775E-01  0.31537490999E-01  0.00000000000E+00 0. -1.
       22    1    1    2    0    0 -0.10607522231E-01  0.23576458157E-01  0.22814299108E-01  0.34479865877E-01  0.00000000000E+00 0.  1.
       22    1    1    2    0    0  0.12862839445E-02 -0.23704835436E-03 -0.37617453327E-02  0.39826431244E-02  0.00000000000E+00 0.  1.
</event>
<event>
 5   0  0.4143600E+04  0.9118800E+02  0.7546771E-02  0.1180000E+00
      -11   -1    0    0    0    0  0.00000000000E+00  0.00000000000E+00  0.34996269501E-01  0.35000000000E-01  0.51099999109E-03 0. -1.
       11   -1    0    0    0    0 -0.00000000000E+00 -0.00000000000E+00 -0.34996269501E-01  0.35000000000E-01  0.51099999109E-03 0.  1.
       22    1    1    2    0    0  0.14584827763E-02  0.20159934378E-03 -0.28032759748E-01  0.28071398850E-01  0.00000000000E+00 0.  1.
       22    1    1    2    0    0 -0.11684314086E-02 -0.35860610351E-02  0.34456349618E-01  0.34662156521E-01  0.00000000000E+00 0. -1.
       22    1    1    2    0    0 -0.29005136764E-03  0.33844616913E-02 -0.64235898696E-02  0.72664446292E-02  0.00000000000E+00 0.  1.
</event>
<event>
 5   0  0.4143600E+04  0.9118800E+02  0.7546771E-02  0.1180000E+00
      -11   -1    0    0    0    0  0.00000000000E+00  0.00000000000E+00  0.34996269501E-01  0.35000000000E-01  0.51099999109E-03 0. -1.
       11   -1    0    0    0    0 -0.00000000000E+00 -0.00000000000E+00 -0.34996269501E-01  0.35000000000E-01  0.51099999109E-03 0.  1.
       22    1    1    2    0    0  0.42012042205E-04 -0.22817491392E-04 -0.46092398872E-03  0.46339677705E-03  0.00000000000E+00 0. -1.
       22    1    1    2    0    0  0.18651990676E-01 -0.48976698433E-02  0.29144700904E-01  0.34947067357E-01  0.00000000000E+00 0. -1.
       22    1    1    2    0    0 -0.18694002719E-01  0.49204873347E-02 -0.28683776916E-01  0.34589535866E-01  0.00000000000E+00 0.  1.
</event>
<event>
 5   0  0.4143600E+04  0.9118800E+02  0.7546771E-02  0.1180000E+00
      -11   -1    0    0    0    0  0.00000000000E+00  0.00000000000E+00  0.34996269501E-01  0.35000000000E-01  0.51099999109E-03 0. -1.
       11   -1    0    0    0    0 -0.00000000000E+00 -0.00000000000E+00 -0.34996269501E-01  0.35000000000E-01  0.51099999109E-03 0. -1.
       22    1    1    2    0    0  0.14602279551E-03  0.15514205489E-04  0.24792484578E-01  0.24792919451E-01  0.00000000000E+00 0. -1.
       22    1    1    2    0    0 -0.12763208589E-02  0.14459220381E-01 -0.26870335672E-01  0.30540350163E-01  0.00000000000E+00 0. -1.
       22    1    1    2    0    0  0.11302980634E-02 -0.14474734586E-01  0.20778510942E-02  0.14666730386E-01  0.00000000000E+00 0.  1.
</event>
<event>
 5   0  0.4143600E+04  0.9118800E+02  0.7546771E-02  0.1180000E+00
      -11   -1    0    0    0    0  0.00000000000E+00  0.00000000000E+00  0.34996269501E-01  0.35000000000E-01  0.51099999109E-03 0.  1.
       11   -1    0    0    0    0 -0.00000000000E+00 -0.00000000000E+00 -0.34996269501E-01  0.35000000000E-01  0.51099999109E-03 0. -1.
       22    1    1    2    0    0  0.82425031761E-03  0.99669870570E-03 -0.34195064543E-01  0.34219515426E-01  0.00000000000E+00 0. -1.
       22    1    1    2    0    0 -0.12202508103E-02 -0.14543692439E-02  0.34842525800E-01  0.34894208775E-01  0.00000000000E+00 0.  1.
       22    1    1    2    0    0  0.39600049269E-03  0.45767053816E-03 -0.64746125756E-03  0.88627579893E-03  0.00000000000E+00 0. -1.
</event>
<event>
 5   0  0.4143600E+04  0.9118800E+02  0.7546771E-02  0.1180000E+00
      -11   -1    0    0    0    0  0.00000000000E+00  0.00000000000E+00  0.34996269501E-01  0.35000000000E-01  0.51099999109E-03 0. -1.
       11   -1    0    0    0    0 -0.00000000000E+00 -0.00000000000E+00 -0.34996269501E-01  0.35000000000E-01  0.51099999109E-03 0.  1.
       22    1    1    2    0    0 -0.18391543082E-01 -0.78758019655E-02  0.28590939843E-01  0.34895830046E-01  0.00000000000E+00 0. -1.
       22    1    1    2    0    0 -0.18047403980E-03  0.11900658546E-03 -0.52221395327E-03  0.56519099375E-03  0.00000000000E+00 0. -1.
       22    1    1    2    0    0  0.18572017122E-01  0.77567953800E-02 -0.28068725889E-01  0.34538978960E-01  0.00000000000E+00 0.  1.
</event>
<event>
 5   0  0.4143600E+04  0.9118800E+02  0.7546771E-02  0.1180000E+00
      -11   -1    0    0    0    0  0.00000000000E+00  0.00000000000E+00  0.34996269501E-01  0.35000000000E-01  0.51099999109E-03 0.  1.
       11   -1    0    0    0    0 -0.00000000000E+00 -0.00000000000E+00 -0.34996269501E-01  0.35000000000E-01  0.51099999109E-03 0.  1.
       22    1    1    2    0    0  0.79859982713E-02 -0.82478557849E-02 -0.21498838255E-02  0.11680123882E-01  0.00000000000E+00 0. -1.
       22    1    1    2    0    0 -0.75485917569E-02  0.84898546023E-02 -0.26933936459E-01  0.29231760156E-01  0.00000000000E+00 0.  1.
       22    1    1    2    0    0 -0.43740651437E-03 -0.24199881741E-03  0.29083820284E-01  0.29088115962E-01  0.00000000000E+00 0.  1.
</event>
<event>
 5   0  0.4143600E+04  0.9118800E+02  0.7546771E-02  0.1180000E+00
      -11   -1    0    0    0    0  0.00000000000E+00  0.00000000000E+00  0.34996269501E-01  0.35000000000E-01  0.51099999109E-03 0.  1.
       11   -1    0    0    0    0 -0.00000000000E+00 -0.00000000000E+00 -0.34996269501E-01  0.35000000000E-01  0.51099999109E-03 0. -1.
       22    1    1    2    0    0  0.17941601106E-01  0.47370859006E-03  0.17506445454E-01  0.25071918205E-01  0.00000000000E+00 0.  1.
       22    1    1    2    0    0 -0.14910720531E-02 -0.62168118211E-02  0.10294482382E-01  0.12118102682E-01  0.00000000000E+00 0.  1.
       22    1    1    2    0    0 -0.16450529053E-01  0.57431032310E-02 -0.27800927836E-01  0.32809979113E-01  0.00000000000E+00 0. -1.
</event>
<event>
 5   0  0.4143600E+04  0.9118800E+02  0.7546771E-02  0.1180000E+00
      -11   -1    0    0    0    0  0.00000000000E+00  0.00000000000E+00  0.34996269501E-01  0.35000000000E-01  0.51099999109E-03 0. -1.
       11   -1    0    0    0    0 -0.00000000000E+00 -0.00000000000E+00 -0.34996269501E-01  0.35000000000E-01  0.51099999109E-03 0. -1.
       22    1    1    2    0    0 -0.13071730926E-01 -0.13288922502E-01 -0.25434811412E-01  0.31534033079E-01  0.00000000000E+00 0. -1.
       22    1    1    2    0    0  0.13071730926E-01  0.13288922502E-01  0.68137478124E-02  0.19846731971E-01  0.00000000000E+00 0.  1.
       22    1    1    2    0    0 -0.00000000000E+00  0.00000000000E+00  0.18621063600E-01  0.18619234950E-01  0.00000000000E+00 0. -1.
</event>
<event>
 5   0  0.4143600E+04  0.9118800E+02  0.7546771E-02  0.1180000E+00
      -11   -1    0    0    0    0  0.00000000000E+00  0.00000000000E+00  0.34996269501E-01  0.35000000000E-01  0.51099999109E-03 0.  1.
       11   -1    0    0    0    0 -0.00000000000E+00 -0.00000000000E+00 -0.34996269501E-01  0.35000000000E-01  0.51099999109E-03 0. -1.
       22    1    1    2    0    0  0.65020662192E-02 -0.15597755139E-01  0.20548060325E-02  0.17023191778E-01  0.00000000000E+00 0.  1.
       22    1    1    2    0    0 -0.61705546261E-02  0.16779948554E-01 -0.24593162776E-01  0.30405033682E-01  0.00000000000E+00 0. -1.
       22    1    1    2    0    0 -0.33151159312E-03 -0.11821934149E-02  0.22538356743E-01  0.22571774540E-01  0.00000000000E+00 0.  1.
</event>
<event>
 5   0  0.4143600E+04  0.9118800E+02  0.7546771E-02  0.1180000E+00
      -11   -1    0    0    0    0  0.00000000000E+00  0.00000000000E+00  0.34996269501E-01  0.35000000000E-01  0.51099999109E-03 0.  1.
       11   -1    0    0    0    0 -0.00000000000E+00 -0.00000000000E+00 -0.34996269501E-01  0.35000000000E-01  0.51099999109E-03 0. -1.
       22    1    1    2    0    0 -0.14685941703E-01  0.12386337210E-01  0.28861498578E-01  0.34671087860E-01  0.00000000000E+00 0.  1.
       22    1    1    2    0    0  0.28693748540E-02 -0.19428241782E-02 -0.10846122445E-01  0.11386230717E-01  0.00000000000E+00 0. -1.
       22    1    1    2    0    0  0.11816566849E-01 -0.10443513032E-01 -0.18015376133E-01  0.23942681424E-01  0.00000000000E+00 0. -1.
</event>
<event>
 5   0  0.4143600E+04  0.9118800E+02  0.7546771E-02  0.1180000E+00
      -11   -1    0    0    0    0  0.00000000000E+00  0.00000000000E+00  0.34996269501E-01  0.35000000000E-01  0.51099999109E-03 0.  1.
       11   -1    0    0    0    0 -0.00000000000E+00 -0.00000000000E+00 -0.34996269501E-01  0.35000000000E-01  0.51099999109E-03 0. -1.
       22    1    1    2    0    0  0.13093664151E-01  0.15825067988E-01  0.27838236479E-01  0.34595436520E-01  0.00000000000E+00 0.  1.
       22    1    1    2    0    0 -0.13590321149E-01 -0.16273657881E-01 -0.26870442641E-01  0.34227904661E-01  0.00000000000E+00 0. -1.
       22    1    1    2    0    0  0.49665699834E-03  0.44858989219E-03 -0.96779383775E-03  0.11766588196E-02  0.00000000000E+00 0. -1.
</event>
<event>
 5   0  0.4143600E+04  0.9118800E+02  0.7546771E-02  0.1180000E+00
      -11   -1    0    0    0    0  0.00000000000E+00  0.00000000000E+00  0.34996269501E-01  0.35000000000E-01  0.51099999109E-03 0.  1.
       11   -1    0    0    0    0 -0.00000000000E+00 -0.00000000000E+00 -0.34996269501E-01  0.35000000000E-01  0.51099999109E-03 0. -1.
       22    1    1    2    0    0 -0.11632306247E-01  0.66509302843E-02 -0.31260050174E-01  0.34010824147E-01  0.00000000000E+00 0. -1.
       22    1    1    2    0    0  0.26555992286E-03 -0.12027547841E-02 -0.84807349826E-03  0.14954496989E-02  0.00000000000E+00 0.  1.
       22    1    1    2    0    0  0.11366746324E-01 -0.54481755001E-02  0.32108123672E-01  0.34493726154E-01  0.00000000000E+00 0.  1.
</event>
<event>
 5   0  0.4143600E+04  0.9118800E+02  0.7546771E-02  0.1180000E+00
      -11   -1    0    0    0    0  0.00000000000E+00  0.00000000000E+00  0.34996269501E-01  0.35000000000E-01  0.51099999109E-03 0.  1.
       11   -1    0    0    0    0 -0.00000000000E+00 -0.00000000000E+00 -0.34996269501E-01  0.35000000000E-01  0.51099999109E-03 0. -1.
       22    1    1    2    0    0 -0.11959277526E-01 -0.28926894103E-02 -0.32752715953E-01  0.34987603137E-01  0.00000000000E+00 0. -1.
       22    1    1    2    0    0  0.11948127932E-01  0.29394464115E-02  0.32423642960E-01  0.34679831734E-01  0.00000000000E+00 0.  1.
       22    1    1    2    0    0  0.11149593894E-04 -0.46757001123E-04  0.32907299261E-03  0.33256512906E-03  0.00000000000E+00 0. -1.
</event>
<event>
 5   0  0.4143600E+04  0.9118800E+02  0.7546771E-02  0.1180000E+00
      -11   -1    0    0    0    0  0.00000000000E+00  0.00000000000E+00  0.34996269501E-01  0.35000000000E-01  0.51099999109E-03 0. -1.
       11   -1    0    0    0    0 -0.00000000000E+00 -0.00000000000E+00 -0.34996269501E-01  0.35000000000E-01  0.51099999109E-03 0.  1.
       22    1    1    2    0    0 -0.94640190459E-03 -0.12660756031E-03  0.19104807675E-01  0.19128653438E-01  0.00000000000E+00 0. -1.
       22    1    1    2    0    0  0.11650491364E-01  0.24373089468E-02  0.12597379057E-01  0.17331139115E-01  0.00000000000E+00 0. -1.
       22    1    1    2    0    0 -0.10704089459E-01 -0.23107013865E-02 -0.31702186732E-01  0.33540207448E-01  0.00000000000E+00 0.  1.
</event>
<event>
 5   0  0.4143600E+04  0.9118800E+02  0.7546771E-02  0.1180000E+00
      -11   -1    0    0    0    0  0.00000000000E+00  0.00000000000E+00  0.34996269501E-01  0.35000000000E-01  0.51099999109E-03 0. -1.
       11   -1    0    0    0    0 -0.00000000000E+00 -0.00000000000E+00 -0.34996269501E-01  0.35000000000E-01  0.51099999109E-03 0. -1.
       22    1    1    2    0    0 -0.34122718321E-03 -0.33394606507E-02 -0.30434498369E-01  0.30619064721E-01  0.00000000000E+00 0. -1.
       22    1    1    2    0    0  0.00000000000E+00 -0.00000000000E+00  0.34279130550E-01  0.34277051460E-01  0.00000000000E+00 0. -1.
       22    1    1    2    0    0  0.34122718321E-03  0.33394606507E-02 -0.38446321812E-02  0.51038838189E-02  0.00000000000E+00 0.  1.
</event>
<event>
 5   0  0.4143600E+04  0.9118800E+02  0.7546771E-02  0.1180000E+00
      -11   -1    0    0    0    0  0.00000000000E+00  0.00000000000E+00  0.34996269501E-01  0.35000000000E-01  0.51099999109E-03 0.  1.
       11   -1    0    0    0    0 -0.00000000000E+00 -0.00000000000E+00 -0.34996269501E-01  0.35000000000E-01  0.51099999109E-03 0. -1.
       22    1    1    2    0    0  0.13346275579E-01 -0.21672284735E-01  0.23658616418E-01  0.34749692492E-01  0.00000000000E+00 0.  1.
       22    1    1    2    0    0 -0.12461217436E-01  0.20504926814E-01 -0.19753608292E-01  0.31079559266E-01  0.00000000000E+00 0. -1.
       22    1    1    2    0    0 -0.88505814295E-03  0.11673579214E-02 -0.39050081256E-02  0.41707482415E-02  0.00000000000E+00 0.  1.
</event>
<event>
 5   0  0.4143600E+04  0.9118800E+02  0.7546771E-02  0.1180000E+00
      -11   -1    0    0    0    0  0.00000000000E+00  0.00000000000E+00  0.34996269501E-01  0.35000000000E-01  0.51099999109E-03 0.  1.
       11   -1    0    0    0    0 -0.00000000000E+00 -0.00000000000E+00 -0.34996269501E-01  0.35000000000E-01  0.51099999109E-03 0. -1.
       22    1    1    2    0    0  0.74567924854E-02  0.38180728735E-02 -0.33430271669E-01  0.34463959414E-01  0.00000000000E+00 0. -1.
       22    1    1    2    0    0 -0.10380108005E-03 -0.34670449851E-03 -0.51557524660E-03  0.62991785847E-03  0.00000000000E+00 0.  1.
       22    1    1    2    0    0 -0.73529914053E-02 -0.34713683750E-02  0.33945846916E-01  0.34906122727E-01  0.00000000000E+00 0.  1.
</event>
<event>
 5   0  0.4143600E+04  0.9118800E+02  0.7546771E-02  0.1180000E+00
      -11   -1    0    0    0    0  0.00000000000E+00  0.00000000000E+00  0.34996269501E-01  0.35000000000E-01  0.51099999109E-03 0. -1.
       11   -1    0    0    0    0 -0.00000000000E+00 -0.00000000000E+00 -0.34996269501E-01  0.35000000000E-01  0.51099999109E-03 0.  1.
       22    1    1    2    0    0 -0.16734102573E-01 -0.55728776981E-02  0.27500760384E-01  0.32670766389E-01  0.00000000000E+00 0. -1.
       22    1    1    2    0    0 -0.22013963120E-02 -0.29763250409E-02 -0.80888061065E-02  0.88956978760E-02  0.00000000000E+00 0. -1.
       22    1    1    2    0    0  0.18935498885E-01  0.85492027390E-02 -0.19411954278E-01  0.28433535735E-01  0.00000000000E+00 0.  1.
</event>
<event>
 5   0  0.4143600E+04  0.9118800E+02  0.7546771E-02  0.1180000E+00
      -11   -1    0    0    0    0  0.00000000000E+00  0.00000000000E+00  0.34996269501E-01  0.35000000000E-01  0.51099999109E-03 0.  1.
       11   -1    0    0    0    0 -0.00000000000E+00 -0.00000000000E+00 -0.34996269501E-01  0.35000000000E-01  0.51099999109E-03 0. -1.
       22    1    1    2    0    0 -0.11131899405E-02 -0.23872372426E-03 -0.34651823359E-01  0.34670521239E-01  0.00000000000E+00 0. -1.
       22    1    1    2    0    0  0.10748568137E-02  0.12694310022E-03  0.34971714469E-01  0.34988458734E-01  0.00000000000E+00 0.  1.
       22    1    1    2    0    0  0.38333126804E-04  0.11178062404E-03 -0.31989110966E-03  0.34102002663E-03  0.00000000000E+00 0.  1.
</event>
<event>
 5   0  0.4143600E+04  0.9118800E+02  0.7546771E-02  0.1180000E+00
      -11   -1    0    0    0    0  0.00000000000E+00  0.00000000000E+00  0.34996269501E-01  0.35000000000E-01  0.51099999109E-03 0.  1.
       11   -1    0    0    0    0 -0.00000000000E+00 -0.00000000000E+00 -0.34996269501E-01  0.35000000000E-01  0.51099999109E-03 0.  1.
       22    1    1    2    0    0 -0.98243852469E-03  0.42943072906E-02  0.34443993395E-01  0.34724558191E-01  0.00000000000E+00 0.  1.
       22    1    1    2    0    0  0.82959247727E-03 -0.31650090901E-02 -0.62167487262E-02  0.70252025553E-02  0.00000000000E+00 0. -1.
       22    1    1    2    0    0  0.15284604742E-03 -0.11292982005E-02 -0.28227244668E-01  0.28250239254E-01  0.00000000000E+00 0.  1.
</event>
<event>
 5   0  0.4143600E+04  0.9118800E+02  0.7546771E-02  0.1180000E+00
      -11   -1    0    0    0    0  0.00000000000E+00  0.00000000000E+00  0.34996269501E-01  0.35000000000E-01  0.51099999109E-03 0.  1.
       11   -1    0    0    0    0 -0.00000000000E+00 -0.00000000000E+00 -0.34996269501E-01  0.35000000000E-01  0.51099999109E-03 0. -1.
       22    1    1    2    0    0 -0.20760750960E-02 -0.37856145717E-02  0.34592609999E-01  0.34861004461E-01  0.00000000000E+00 0.  1.
       22    1    1    2    0    0  0.30623120645E-02  0.36421220618E-02 -0.32160300184E-01  0.32510424732E-01  0.00000000000E+00 0. -1.
       22    1    1    2    0    0 -0.98623696855E-03  0.14349250985E-03 -0.24323098143E-02  0.26285708078E-02  0.00000000000E+00 0.  1.
</event>
<event>
 5   0  0.4143600E+04  0.9118800E+02  0.7546771E-02  0.1180000E+00
      -11   -1    0    0    0    0  0.00000000000E+00  0.00000000000E+00  0.34996269501E-01  0.35000000000E-01  0.51099999109E-03 0.  1.
       11   -1    0    0    0    0 -0.00000000000E+00 -0.00000000000E+00 -0.34996269501E-01  0.35000000000E-01  0.51099999109E-03 0. -1.
       22    1    1    2    0    0  0.20564363923E-01  0.22746208970E-03 -0.28305941196E-01  0.34988156704E-01  0.00000000000E+00 0. -1.
       22    1    1    2    0    0 -0.28157398186E-03  0.14952104028E-03  0.47687210268E-03  0.57362657806E-03  0.00000000000E+00 0.  1.
       22    1    1    2    0    0 -0.20282789942E-01 -0.37698312998E-03  0.27829069093E-01  0.34438216718E-01  0.00000000000E+00 0.  1.
</event>
<event>
 5   0  0.4143600E+04  0.9118800E+02  0.7546771E-02  0.1180000E+00
      -11   -1    0    0    0    0  0.00000000000E+00  0.00000000000E+00  0.34996269501E-01  0.35000000000E-01  0.51099999109E-03 0. -1.
       11   -1    0    0    0    0 -0.00000000000E+00 -0.00000000000E+00 -0.34996269501E-01  0.35000000000E-01  0.51099999109E-03 0.  1.
       22    1    1    2    0    0 -0.54621944009E-03  0.19339488856E-03 -0.11849246883E-03  0.59143699988E-03  0.00000000000E+00 0. -1.
       22    1    1    2    0    0 -0.17337682294E-01  0.12450300088E-03 -0.29843044263E-01  0.34514026413E-01  0.00000000000E+00 0.  1.
       22    1    1    2    0    0  0.17883901734E-01 -0.31789788944E-03  0.29961536732E-01  0.34894536587E-01  0.00000000000E+00 0. -1.
</event>
<event>
 5   0  0.4143600E+04  0.9118800E+02  0.7546771E-02  0.1180000E+00
      -11   -1    0    0    0    0  0.00000000000E+00  0.00000000000E+00  0.34996269501E-01  0.35000000000E-01  0.51099999109E-03 0. -1.
       11   -1    0    0    0    0 -0.00000000000E+00 -0.00000000000E+00 -0.34996269501E-01  0.35000000000E-01  0.51099999109E-03 0.  1.
       22    1    1    2    0    0  0.33178399107E-02  0.38759604287E-03 -0.34306763634E-01  0.34469005257E-01  0.00000000000E+00 0.  1.
       22    1    1    2    0    0 -0.11077516100E-03 -0.30446355286E-03 -0.48957827217E-03  0.58707416559E-03  0.00000000000E+00 0. -1.
       22    1    1    2    0    0 -0.32070647497E-02 -0.83132490004E-04  0.34796341906E-01  0.34943920578E-01  0.00000000000E+00 0. -1.
</event>
<event>
 5   0  0.4143600E+04  0.9118800E+02  0.7546771E-02  0.1180000E+00
      -11   -1    0    0    0    0  0.00000000000E+00  0.00000000000E+00  0.34996269501E-01  0.35000000000E-01  0.51099999109E-03 0. -1.
       11   -1    0    0    0    0 -0.00000000000E+00 -0.00000000000E+00 -0.34996269501E-01  0.35000000000E-01  0.51099999109E-03 0.  1.
       22    1    1    2    0    0  0.15628186661E-01  0.18681881572E-02  0.30354133347E-01  0.34192159285E-01  0.00000000000E+00 0. -1.
       22    1    1    2    0    0 -0.40843996860E-03  0.10177046932E-02  0.55874700704E-03  0.12307494743E-02  0.00000000000E+00 0. -1.
       22    1    1    2    0    0 -0.15219746692E-01 -0.28858928505E-02 -0.30912880354E-01  0.34577091241E-01  0.00000000000E+00 0.  1.
</event>
<event>
 5   0  0.4143600E+04  0.9118800E+02  0.7546771E-02  0.1180000E+00
      -11   -1    0    0    0    0  0.00000000000E+00  0.00000000000E+00  0.34996269501E-01  0.35000000000E-01  0.51099999109E-03 0.  1.
       11   -1    0    0    0    0 -0.00000000000E+00 -0.00000000000E+00 -0.34996269501E-01  0.35000000000E-01  0.51099999109E-03 0. -1.
       22    1    1    2    0    0  0.22114526800E-01 -0.60030152018E-03 -0.27046408758E-01  0.34941678325E-01  0.00000000000E+00 0. -1.
       22    1    1    2    0    0 -0.45554808290E-04 -0.65748244512E-04  0.60742400646E-03  0.61266793277E-03  0.00000000000E+00 0.  1.
       22    1    1    2    0    0 -0.22068971991E-01  0.66604976470E-03  0.26438984751E-01  0.34445653742E-01  0.00000000000E+00 0.  1.
</event>
<event>
 5   0  0.4143600E+04  0.9118800E+02  0.7546771E-02  0.1180000E+00
      -11   -1    0    0    0    0  0.00000000000E+00  0.00000000000E+00  0.34996269501E-01  0.35000000000E-01  0.51099999109E-03 0. -1.
       11   -1    0    0    0    0 -0.00000000000E+00 -0.00000000000E+00 -0.34996269501E-01  0.35000000000E-01  0.51099999109E-03 0.  1.
       22    1    1    2    0    0 -0.55392301355E-04  0.49379211582E-03  0.14034157655E-01  0.14042951259E-01  0.00000000000E+00 0. -1.
       22    1    1    2    0    0  0.16859082047E-01  0.17760443309E-02  0.14801889723E-01  0.22505086543E-01  0.00000000000E+00 0. -1.
       22    1    1    2    0    0 -0.16803689746E-01 -0.22698364467E-02 -0.28836047378E-01  0.33451962199E-01  0.00000000000E+00 0.  1.
</event>
<event>
 5   0  0.4143600E+04  0.9118800E+02  0.7546771E-02  0.1180000E+00
      -11   -1    0    0    0    0  0.00000000000E+00  0.00000000000E+00  0.34996269501E-01  0.35000000000E-01  0.51099999109E-03 0. -1.
       11   -1    0    0    0    0 -0.00000000000E+00 -0.00000000000E+00 -0.34996269501E-01  0.35000000000E-01  0.51099999109E-03 0.  1.
       22    1    1    2    0    0  0.61917708450E-03 -0.61411691781E-02  0.29249070603E-01  0.29893234524E-01  0.00000000000E+00 0. -1.
       22    1    1    2    0    0 -0.11436897717E-01  0.35891907216E-02 -0.25833685323E-01  0.28479189188E-01  0.00000000000E+00 0.  1.
       22    1    1    2    0    0  0.10817720633E-01  0.25519784565E-02 -0.34153852798E-02  0.11627576288E-01  0.00000000000E+00 0. -1.
</event>
<event>
 5   0  0.4143600E+04  0.9118800E+02  0.7546771E-02  0.1180000E+00
      -11   -1    0    0    0    0  0.00000000000E+00  0.00000000000E+00  0.34996269501E-01  0.35000000000E-01  0.51099999109E-03 0.  1.
       11   -1    0    0    0    0 -0.00000000000E+00 -0.00000000000E+00 -0.34996269501E-01  0.35000000000E-01  0.51099999109E-03 0. -1.
       22    1    1    2    0    0  0.54862250631E-02  0.12391295778E-01  0.32237752428E-01  0.34970209581E-01  0.00000000000E+00 0.  1.
       22    1    1    2    0    0 -0.55109490971E-02 -0.12318119598E-01 -0.31252620247E-01  0.34041634842E-01  0.00000000000E+00 0. -1.
       22    1    1    2    0    0  0.24724033971E-04 -0.73176179851E-04 -0.98513218099E-03  0.98815557742E-03  0.00000000000E+00 0.  1.
</event>
<event>
 5   0  0.4143600E+04  0.9118800E+02  0.7546771E-02  0.1180000E+00
      -11   -1    0    0    0    0  0.00000000000E+00  0.00000000000E+00  0.34996269501E-01  0.35000000000E-01  0.51099999109E-03 0. -1.
       11   -1    0    0    0    0 -0.00000000000E+00 -0.00000000000E+00 -0.34996269501E-01  0.35000000000E-01  0.51099999109E-03 0.  1.
       22    1    1    2    0    0 -0.14631894711E-01 -0.33391924671E-04  0.30485718318E-01  0.33815269912E-01  0.00000000000E+00 0. -1.
       22    1    1    2    0    0  0.60933652576E-04 -0.26540235185E-04  0.12563021014E-02  0.12580589271E-02  0.00000000000E+00 0. -1.
       22    1    1    2    0    0  0.14570961059E-01  0.59932159856E-04 -0.31742020420E-01  0.34926671161E-01  0.00000000000E+00 0.  1.
</event>
<event>
 5   0  0.4143600E+04  0.9118800E+02  0.7546771E-02  0.1180000E+00
      -11   -1    0    0    0    0  0.00000000000E+00  0.00000000000E+00  0.34996269501E-01  0.35000000000E-01  0.51099999109E-03 0.  1.
       11   -1    0    0    0    0 -0.00000000000E+00 -0.00000000000E+00 -0.34996269501E-01  0.35000000000E-01  0.51099999109E-03 0. -1.
       22    1    1    2    0    0  0.13973161784E-02  0.51234441165E-03 -0.30321736687E-01  0.30358239492E-01  0.00000000000E+00 0. -1.
       22    1    1    2    0    0  0.10944593042E-02 -0.11400572492E-03  0.34630758346E-01  0.34648236060E-01  0.00000000000E+00 0.  1.
       22    1    1    2    0    0 -0.24917754826E-02 -0.39833868672E-03 -0.43090216583E-02  0.49935244484E-02  0.00000000000E+00 0. -1.
</event>
<event>
 5   0  0.4143600E+04  0.9118800E+02  0.7546771E-02  0.1180000E+00
      -11   -1    0    0    0    0  0.00000000000E+00  0.00000000000E+00  0.34996269501E-01  0.35000000000E-01  0.51099999109E-03 0. -1.
       11   -1    0    0    0    0 -0.00000000000E+00 -0.00000000000E+00 -0.34996269501E-01  0.35000000000E-01  0.51099999109E-03 0.  1.
       22    1    1    2    0    0  0.20231163757E-03 -0.19830930487E-04 -0.33135919923E-03  0.38874436770E-03  0.00000000000E+00 0. -1.
       22    1    1    2    0    0 -0.21073315648E-01 -0.20155325252E-01 -0.18937377811E-01  0.34769901449E-01  0.00000000000E+00 0. -1.
       22    1    1    2    0    0  0.20871004010E-01  0.20175156182E-01  0.19268737011E-01  0.34841354184E-01  0.00000000000E+00 0.  1.
</event>
<event>
 5   0  0.4143600E+04  0.9118800E+02  0.7546771E-02  0.1180000E+00
      -11   -1    0    0    0    0  0.00000000000E+00  0.00000000000E+00  0.34996269501E-01  0.35000000000E-01  0.51099999109E-03 0.  1.
       11   -1    0    0    0    0 -0.00000000000E+00 -0.00000000000E+00 -0.34996269501E-01  0.35000000000E-01  0.51099999109E-03 0. -1.
       22    1    1    2    0    0 -0.11825228843E-01 -0.13604199049E-01 -0.29832239319E-01  0.34855025057E-01  0.00000000000E+00 0. -1.
       22    1    1    2    0    0  0.11765151170E-01  0.13380611815E-01  0.27285274008E-01  0.32587508838E-01  0.00000000000E+00 0.  1.
       22    1    1    2    0    0  0.60077673026E-04  0.22358723436E-03  0.25469653114E-02  0.25574661045E-02  0.00000000000E+00 0.  1.
</event>
<event>
 5   0  0.4143600E+04  0.9118800E+02  0.7546771E-02  0.1180000E+00
      -11   -1    0    0    0    0  0.00000000000E+00  0.00000000000E+00  0.34996269501E-01  0.35000000000E-01  0.51099999109E-03 0. -1.
       11   -1    0    0    0    0 -0.00000000000E+00 -0.00000000000E+00 -0.34996269501E-01  0.35000000000E-01  0.51099999109E-03 0.  1.
       22    1    1    2    0    0  0.26443632185E-03  0.22168281181E-03 -0.52185600802E-03  0.62562251436E-03  0.00000000000E+00 0.  1.
       22    1    1    2    0    0 -0.32698252847E-01 -0.11555950196E-01 -0.31426486819E-02  0.34822291208E-01  0.00000000000E+00 0.  1.
       22    1    1    2    0    0  0.32433816525E-01  0.11334267385E-01  0.36645046899E-02  0.34552086278E-01  0.00000000000E+00 0. -1.
</event>
<event>
 5   0  0.4143600E+04  0.9118800E+02  0.7546771E-02  0.1180000E+00
      -11   -1    0    0    0    0  0.00000000000E+00  0.00000000000E+00  0.34996269501E-01  0.35000000000E-01  0.51099999109E-03 0.  1.
       11   -1    0    0    0    0 -0.00000000000E+00 -0.00000000000E+00 -0.34996269501E-01  0.35000000000E-01  0.51099999109E-03 0. -1.
       22    1    1    2    0    0  0.50268889056E-02 -0.17483833590E-01  0.18626467763E-01  0.26036500348E-01  0.00000000000E+00 0.  1.
       22    1    1    2    0    0 -0.44431567407E-02  0.20250121427E-01 -0.27620541812E-01  0.34535538067E-01  0.00000000000E+00 0. -1.
       22    1    1    2    0    0 -0.58373216484E-03 -0.27662878366E-02  0.89940740491E-02  0.94279615843E-02  0.00000000000E+00 0. -1.
</event>
<event>
 5   0  0.4143600E+04  0.9118800E+02  0.7546771E-02  0.1180000E+00
      -11   -1    0    0    0    0  0.00000000000E+00  0.00000000000E+00  0.34996269501E-01  0.35000000000E-01  0.51099999109E-03 0. -1.
       11   -1    0    0    0    0 -0.00000000000E+00 -0.00000000000E+00 -0.34996269501E-01  0.35000000000E-01  0.51099999109E-03 0.  1.
       22    1    1    2    0    0  0.49114903148E-04  0.10040161597E-03 -0.10710428306E-02  0.10768590916E-02  0.00000000000E+00 0. -1.
       22    1    1    2    0    0  0.65727628842E-02  0.19369912304E-01 -0.27156700729E-01  0.33998251559E-01  0.00000000000E+00 0.  1.
       22    1    1    2    0    0 -0.66218777873E-02 -0.19470313920E-01  0.28227743560E-01  0.34924889349E-01  0.00000000000E+00 0. -1.
</event>
<event>
 5   0  0.4143600E+04  0.9118800E+02  0.7546771E-02  0.1180000E+00
      -11   -1    0    0    0    0  0.00000000000E+00  0.00000000000E+00  0.34996269501E-01  0.35000000000E-01  0.51099999109E-03 0.  1.
       11   -1    0    0    0    0 -0.00000000000E+00 -0.00000000000E+00 -0.34996269501E-01  0.35000000000E-01  0.51099999109E-03 0. -1.
       22    1    1    2    0    0 -0.15962752241E-01  0.11496385928E-01  0.28190048896E-01  0.34375212076E-01  0.00000000000E+00 0.  1.
       22    1    1    2    0    0 -0.65115781918E-03  0.26425078307E-04 -0.42029523690E-02  0.42531768605E-02  0.00000000000E+00 0.  1.
       22    1    1    2    0    0  0.16613910060E-01 -0.11522811006E-01 -0.23987096527E-01  0.31371611064E-01  0.00000000000E+00 0. -1.
</event>
<event>
 5   0  0.4143600E+04  0.9118800E+02  0.7546771E-02  0.1180000E+00
      -11   -1    0    0    0    0  0.00000000000E+00  0.00000000000E+00  0.34996269501E-01  0.35000000000E-01  0.51099999109E-03 0.  1.
       11   -1    0    0    0    0 -0.00000000000E+00 -0.00000000000E+00 -0.34996269501E-01  0.35000000000E-01  0.51099999109E-03 0. -1.
       22    1    1    2    0    0  0.19210428312E-02 -0.39337518124E-02 -0.24722809838E-01  0.25107411957E-01  0.00000000000E+00 0.  1.
       22    1    1    2    0    0  0.23367790358E-02  0.42499722362E-03  0.34008564433E-01  0.34091400876E-01  0.00000000000E+00 0.  1.
       22    1    1    2    0    0 -0.42578218670E-02  0.35087545888E-02 -0.92857545950E-02  0.10801187167E-01  0.00000000000E+00 0. -1.
</event>
<event>
 5   0  0.4143600E+04  0.9118800E+02  0.7546771E-02  0.1180000E+00
      -11   -1    0    0    0    0  0.00000000000E+00  0.00000000000E+00  0.34996269501E-01  0.35000000000E-01  0.51099999109E-03 0. -1.
       11   -1    0    0    0    0 -0.00000000000E+00 -0.00000000000E+00 -0.34996269501E-01  0.35000000000E-01  0.51099999109E-03 0. -1.
       22    1    1    2    0    0  0.66335602665E-03 -0.10559473804E-03 -0.34175969089E-01  0.34182569456E-01  0.00000000000E+00 0. -1.
       22    1    1    2    0    0 -0.47740486653E-03  0.32049141060E-03  0.34969665691E-01  0.34974392757E-01  0.00000000000E+00 0. -1.
       22    1    1    2    0    0 -0.18595116012E-03 -0.21489667256E-03 -0.79369660266E-03  0.84303778735E-03  0.00000000000E+00 0. -1.
</event>
<event>
 5   0  0.4143600E+04  0.9118800E+02  0.7546771E-02  0.1180000E+00
      -11   -1    0    0    0    0  0.00000000000E+00  0.00000000000E+00  0.34996269501E-01  0.35000000000E-01  0.51099999109E-03 0.  1.
       11   -1    0    0    0    0 -0.00000000000E+00 -0.00000000000E+00 -0.34996269501E-01  0.35000000000E-01  0.51099999109E-03 0. -1.
       22    1    1    2    0    0  0.22860866597E-02 -0.12460789161E-02 -0.31918307730E-01  0.32024323150E-01  0.00000000000E+00 0. -1.
       22    1    1    2    0    0  0.79193225681E-03 -0.15909007927E-02 -0.26303179825E-02  0.31743809980E-02  0.00000000000E+00 0.  1.
       22    1    1    2    0    0 -0.30780189165E-02  0.28369797088E-02  0.34548625713E-01  0.34801295852E-01  0.00000000000E+00 0.  1.
</event>
<event>
 5   0  0.4143600E+04  0.9118800E+02  0.7546771E-02  0.1180000E+00
      -11   -1    0    0    0    0  0.00000000000E+00  0.00000000000E+00  0.34996269501E-01  0.35000000000E-01  0.51099999109E-03 0.  1.
       11   -1    0    0    0    0 -0.00000000000E+00 -0.00000000000E+00 -0.34996269501E-01  0.35000000000E-01  0.51099999109E-03 0. -1.
       22    1    1    2    0    0  0.78023232473E-04 -0.61498432806E-04 -0.36911273928E-03  0.38224847461E-03  0.00000000000E+00 0. -1.
       22    1    1    2    0    0  0.12235776961E-01 -0.17148718935E-01 -0.27489395267E-01  0.34633216008E-01  0.00000000000E+00 0. -1.
       22    1    1    2    0    0 -0.12313800194E-01  0.17210217367E-01  0.27858508006E-01  0.34984535517E-01  0.00000000000E+00 0.  1.
</event>
<event>
 5   0  0.4143600E+04  0.9118800E+02  0.7546771E-02  0.1180000E+00
      -11   -1    0    0    0    0  0.00000000000E+00  0.00000000000E+00  0.34996269501E-01  0.35000000000E-01  0.51099999109E-03 0.  1.
       11   -1    0    0    0    0 -0.00000000000E+00 -0.00000000000E+00 -0.34996269501E-01  0.35000000000E-01  0.51099999109E-03 0. -1.
       22    1    1    2    0    0  0.38048425691E-03  0.15925634561E-03  0.22104804494E-03  0.46796697698E-03  0.00000000000E+00 0.  1.
       22    1    1    2    0    0  0.74173563089E-02  0.96374759227E-02  0.32391036697E-01  0.34598805977E-01  0.00000000000E+00 0.  1.
       22    1    1    2    0    0 -0.77978405658E-02 -0.97967322683E-02 -0.32612084742E-01  0.34933227046E-01  0.00000000000E+00 0. -1.
</event>
<event>
 5   0  0.4143600E+04  0.9118800E+02  0.7546771E-02  0.1180000E+00
      -11   -1    0    0    0    0  0.00000000000E+00  0.00000000000E+00  0.34996269501E-01  0.35000000000E-01  0.51099999109E-03 0. -1.
       11   -1    0    0    0    0 -0.00000000000E+00 -0.00000000000E+00 -0.34996269501E-01  0.35000000000E-01  0.51099999109E-03 0.  1.
       22    1    1    2    0    0 -0.11993773628E-01  0.10068042787E-02 -0.32692089045E-01  0.34837292473E-01  0.00000000000E+00 0.  1.
       22    1    1    2    0    0  0.12296906211E-01 -0.12926467063E-02  0.32318718851E-01  0.34603242999E-01  0.00000000000E+00 0. -1.
       22    1    1    2    0    0 -0.30313258363E-03  0.28584242762E-03  0.37337019445E-03  0.55946452863E-03  0.00000000000E+00 0. -1.
</event>
<event>
 5   0  0.4143600E+04  0.9118800E+02  0.7546771E-02  0.1180000E+00
      -11   -1    0    0    0    0  0.00000000000E+00  0.00000000000E+00  0.34996269501E-01  0.35000000000E-01  0.51099999109E-03 0.  1.
       11   -1    0    0    0    0 -0.00000000000E+00 -0.00000000000E+00 -0.34996269501E-01  0.35000000000E-01  0.51099999109E-03 0. -1.
       22    1    1    2    0    0 -0.13257094523E-01 -0.51267427314E-02 -0.31766649752E-01  0.34801639080E-01  0.00000000000E+00 0. -1.
       22    1    1    2    0    0 -0.13774744576E-03  0.54267121988E-03  0.39163388094E-02  0.39561567311E-02  0.00000000000E+00 0.  1.
       22    1    1    2    0    0  0.13394841968E-01  0.45840715115E-02  0.27850310942E-01  0.31242204189E-01  0.00000000000E+00 0.  1.
</event>
<event>
 5   0  0.4143600E+04  0.9118800E+02  0.7546771E-02  0.1180000E+00
      -11   -1    0    0    0    0  0.00000000000E+00  0.00000000000E+00  0.34996269501E-01  0.35000000000E-01  0.51099999109E-03 0. -1.
       11   -1    0    0    0    0 -0.00000000000E+00 -0.00000000000E+00 -0.34996269501E-01  0.35000000000E-01  0.51099999109E-03 0.  1.
       22    1    1    2    0    0  0.60716022064E-02  0.20308913641E-02  0.21789719497E-01  0.22710806874E-01  0.00000000000E+00 0. -1.
       22    1    1    2    0    0 -0.12774320238E-01  0.33449165107E-02 -0.31600068828E-01  0.34248154314E-01  0.00000000000E+00 0.  1.
       22    1    1    2    0    0  0.67027180313E-02 -0.53758078748E-02  0.98103493305E-02  0.13041038812E-01  0.00000000000E+00 0. -1.
</event>
<event>
 5   0  0.4143600E+04  0.9118800E+02  0.7546771E-02  0.1180000E+00
      -11   -1    0    0    0    0  0.00000000000E+00  0.00000000000E+00  0.34996269501E-01  0.35000000000E-01  0.51099999109E-03 0. -1.
       11   -1    0    0    0    0 -0.00000000000E+00 -0.00000000000E+00 -0.34996269501E-01  0.35000000000E-01  0.51099999109E-03 0.  1.
       22    1    1    2    0    0 -0.11869842605E-01 -0.79514420630E-02 -0.27194882946E-01  0.30719379108E-01  0.00000000000E+00 0.  1.
       22    1    1    2    0    0 -0.28709280177E-03  0.14019796683E-02 -0.44925812527E-02  0.47150032427E-02  0.00000000000E+00 0.  1.
       22    1    1    2    0    0  0.12156935406E-01  0.65494623948E-02  0.31687464199E-01  0.34565617649E-01  0.00000000000E+00 0. -1.
</event>
<event>
 5   0  0.4143600E+04  0.9118800E+02  0.7546771E-02  0.1180000E+00
      -11   -1    0    0    0    0  0.00000000000E+00  0.00000000000E+00  0.34996269501E-01  0.35000000000E-01  0.51099999109E-03 0. -1.
       11   -1    0    0    0    0 -0.00000000000E+00 -0.00000000000E+00 -0.34996269501E-01  0.35000000000E-01  0.51099999109E-03 0.  1.
       22    1    1    2    0    0  0.57910439838E-03  0.24568232398E-03  0.75202865915E-02  0.75465510087E-02  0.00000000000E+00 0. -1.
       22    1    1    2    0    0 -0.19108935652E-01  0.13177879712E-01  0.17108682819E-01  0.28836001166E-01  0.00000000000E+00 0. -1.
       22    1    1    2    0    0  0.18529831253E-01 -0.13423562036E-01 -0.24628969411E-01  0.33617447825E-01  0.00000000000E+00 0.  1.
</event>
<event>
 5   0  0.4143600E+04  0.9118800E+02  0.7546771E-02  0.1180000E+00
      -11   -1    0    0    0    0  0.00000000000E+00  0.00000000000E+00  0.34996269501E-01  0.35000000000E-01  0.51099999109E-03 0.  1.
       11   -1    0    0    0    0 -0.00000000000E+00 -0.00000000000E+00 -0.34996269501E-01  0.35000000000E-01  0.51099999109E-03 0. -1.
       22    1    1    2    0    0 -0.23086743669E-01 -0.10665064522E-02  0.25818685399E-01  0.34651690940E-01  0.00000000000E+00 0.  1.
       22    1    1    2    0    0  0.22535872625E-01  0.22926466743E-03 -0.25912114131E-01  0.34341749752E-01  0.00000000000E+00 0. -1.
       22    1    1    2    0    0  0.55087104430E-03  0.83724178474E-03  0.93428732019E-04  0.10065593085E-02  0.00000000000E+00 0.  1.
</event>
<event>
 5   0  0.4143600E+04  0.9118800E+02  0.7546771E-02  0.1180000E+00
      -11   -1    0    0    0    0  0.00000000000E+00  0.00000000000E+00  0.34996269501E-01  0.35000000000E-01  0.51099999109E-03 0. -1.
       11   -1    0    0    0    0 -0.00000000000E+00 -0.00000000000E+00 -0.34996269501E-01  0.35000000000E-01  0.51099999109E-03 0.  1.
       22    1    1    2    0    0 -0.54497914707E-03 -0.11742271843E-02 -0.26625798782E-02  0.29605984798E-02  0.00000000000E+00 0. -1.
       22    1    1    2    0    0 -0.25012806298E-01  0.23682997187E-02 -0.20576497016E-01  0.32475245217E-01  0.00000000000E+00 0.  1.
       22    1    1    2    0    0  0.25557785445E-01 -0.11940725343E-02  0.23239076894E-01  0.34564156303E-01  0.00000000000E+00 0. -1.
</event>
<event>
 5   0  0.4143600E+04  0.9118800E+02  0.7546771E-02  0.1180000E+00
      -11   -1    0    0    0    0  0.00000000000E+00  0.00000000000E+00  0.34996269501E-01  0.35000000000E-01  0.51099999109E-03 0. -1.
       11   -1    0    0    0    0 -0.00000000000E+00 -0.00000000000E+00 -0.34996269501E-01  0.35000000000E-01  0.51099999109E-03 0.  1.
       22    1    1    2    0    0  0.93114632098E-04  0.50260445878E-03 -0.50035608373E-02  0.50296026314E-02  0.00000000000E+00 0. -1.
       22    1    1    2    0    0  0.98933536491E-02 -0.47830103861E-02 -0.28077199768E-01  0.30151032845E-01  0.00000000000E+00 0.  1.
       22    1    1    2    0    0 -0.99864682812E-02  0.42804059273E-02  0.33080760605E-01  0.34819364524E-01  0.00000000000E+00 0. -1.
</event>
<event>
 5   0  0.4143600E+04  0.9118800E+02  0.7546771E-02  0.1180000E+00
      -11   -1    0    0    0    0  0.00000000000E+00  0.00000000000E+00  0.34996269501E-01  0.35000000000E-01  0.51099999109E-03 0.  1.
       11   -1    0    0    0    0 -0.00000000000E+00 -0.00000000000E+00 -0.34996269501E-01  0.35000000000E-01  0.51099999109E-03 0. -1.
       22    1    1    2    0    0 -0.93019092515E-02  0.15719866571E-01 -0.26900938559E-01  0.32516153157E-01  0.00000000000E+00 0. -1.
       22    1    1    2    0    0 -0.45536213889E-02 -0.65743444588E-02  0.33524987341E-02  0.86716042679E-02  0.00000000000E+00 0.  1.
       22    1    1    2    0    0  0.13855530640E-01 -0.91455221120E-02  0.23548439825E-01  0.28812242576E-01  0.00000000000E+00 0.  1.
</event>
<event>
 5   0  0.4143600E+04  0.9118800E+02  0.7546771E-02  0.1180000E+00
      -11   -1    0    0    0    0  0.00000000000E+00  0.00000000000E+00  0.34996269501E-01  0.35000000000E-01  0.51099999109E-03 0.  1.
       11   -1    0    0    0    0 -0.00000000000E+00 -0.00000000000E+00 -0.34996269501E-01  0.35000000000E-01  0.51099999109E-03 0. -1.
       22    1    1    2    0    0 -0.31764901442E-03 -0.17097129864E-02 -0.48179044219E-02  0.51221306515E-02  0.00000000000E+00 0.  1.
       22    1    1    2    0    0 -0.41209893970E-02 -0.11125115752E-02  0.34484963378E-01  0.34748135703E-01  0.00000000000E+00 0.  1.
       22    1    1    2    0    0  0.44386384114E-02  0.28222245616E-02 -0.29667058957E-01  0.30129733646E-01  0.00000000000E+00 0. -1.
</event>
<event>
 5   0  0.4143600E+04  0.9118800E+02  0.7546771E-02  0.1180000E+00
      -11   -1    0    0    0    0  0.00000000000E+00  0.00000000000E+00  0.34996269501E-01  0.35000000000E-01  0.51099999109E-03 0.  1.
       11   -1    0    0    0    0 -0.00000000000E+00 -0.00000000000E+00 -0.34996269501E-01  0.35000000000E-01  0.51099999109E-03 0. -1.
       22    1    1    2    0    0  0.12489313248E-01 -0.23127940234E-02  0.29030244836E-01  0.31687333066E-01  0.00000000000E+00 0.  1.
       22    1    1    2    0    0 -0.18084192867E-01  0.29438327034E-03 -0.16675461707E-01  0.24600725930E-01  0.00000000000E+00 0. -1.
       22    1    1    2    0    0  0.55948796190E-02  0.20184107531E-02 -0.12354783129E-01  0.13711941004E-01  0.00000000000E+00 0. -1.
</event>
<event>
 5   0  0.4143600E+04  0.9118800E+02  0.7546771E-02  0.1180000E+00
      -11   -1    0    0    0    0  0.00000000000E+00  0.00000000000E+00  0.34996269501E-01  0.35000000000E-01  0.51099999109E-03 0. -1.
       11   -1    0    0    0    0 -0.00000000000E+00 -0.00000000000E+00 -0.34996269501E-01  0.35000000000E-01  0.51099999109E-03 0.  1.
       22    1    1    2    0    0 -0.11507243310E-01 -0.43762777943E-02 -0.29937817648E-01  0.32370378148E-01  0.00000000000E+00 0.  1.
       22    1    1    2    0    0  0.41452382629E-02  0.62424467998E-03 -0.19968345916E-02  0.46432779437E-02  0.00000000000E+00 0. -1.
       22    1    1    2    0    0  0.73620050471E-02  0.37520331143E-02  0.31934652239E-01  0.32986343908E-01  0.00000000000E+00 0. -1.
</event>
<event>
 5   0  0.4143600E+04  0.9118800E+02  0.7546771E-02  0.1180000E+00
      -11   -1    0    0    0    0  0.00000000000E+00  0.00000000000E+00  0.34996269501E-01  0.35000000000E-01  0.51099999109E-03 0. -1.
       11   -1    0    0    0    0 -0.00000000000E+00 -0.00000000000E+00 -0.34996269501E-01  0.35000000000E-01  0.51099999109E-03 0.  1.
       22    1    1    2    0    0 -0.35013778088E-03 -0.85593976790E-04  0.26295172747E-03  0.44616858410E-03  0.00000000000E+00 0.  1.
       22    1    1    2    0    0 -0.26681265954E-02 -0.19707261566E-01  0.28351096510E-01  0.34630618407E-01  0.00000000000E+00 0. -1.
       22    1    1    2    0    0  0.30182643763E-02  0.19792855542E-01 -0.28614048237E-01  0.34923213009E-01  0.00000000000E+00 0.  1.
</event>
<event>
 5   0  0.4143600E+04  0.9118800E+02  0.7546771E-02  0.1180000E+00
      -11   -1    0    0    0    0  0.00000000000E+00  0.00000000000E+00  0.34996269501E-01  0.35000000000E-01  0.51099999109E-03 0. -1.
       11   -1    0    0    0    0 -0.00000000000E+00 -0.00000000000E+00 -0.34996269501E-01  0.35000000000E-01  0.51099999109E-03 0.  1.
       22    1    1    2    0    0  0.14755268692E-01 -0.61499088013E-02 -0.15164857349E-01  0.22034342079E-01  0.00000000000E+00 0.  1.
       22    1    1    2    0    0 -0.86798537900E-02 -0.59074231515E-02 -0.13012783639E-01  0.16720348326E-01  0.00000000000E+00 0.  1.
       22    1    1    2    0    0 -0.60754149022E-02  0.12057331953E-01  0.28177640988E-01  0.31245309595E-01  0.00000000000E+00 0. -1.
</event>
<event>
 5   0  0.4143600E+04  0.9118800E+02  0.7546771E-02  0.1180000E+00
      -11   -1    0    0    0    0  0.00000000000E+00  0.00000000000E+00  0.34996269501E-01  0.35000000000E-01  0.51099999109E-03 0.  1.
       11   -1    0    0    0    0 -0.00000000000E+00 -0.00000000000E+00 -0.34996269501E-01  0.35000000000E-01  0.51099999109E-03 0. -1.
       22    1    1    2    0    0  0.17587864191E-02 -0.33185258223E-02 -0.27254676078E-01  0.27512239302E-01  0.00000000000E+00 0. -1.
       22    1    1    2    0    0  0.84019356988E-03 -0.32365962111E-02 -0.68708290788E-02  0.76413200756E-02  0.00000000000E+00 0. -1.
       22    1    1    2    0    0 -0.25989799890E-02  0.65551220333E-02  0.34125505157E-01  0.34846440622E-01  0.00000000000E+00 0.  1.
</event>
<event>
 5   0  0.4143600E+04  0.9118800E+02  0.7546771E-02  0.1180000E+00
      -11   -1    0    0    0    0  0.00000000000E+00  0.00000000000E+00  0.34996269501E-01  0.35000000000E-01  0.51099999109E-03 0.  1.
       11   -1    0    0    0    0 -0.00000000000E+00 -0.00000000000E+00 -0.34996269501E-01  0.35000000000E-01  0.51099999109E-03 0. -1.
       22    1    1    2    0    0 -0.13788001102E-01 -0.21247024367E-03  0.32051488411E-01  0.34892005207E-01  0.00000000000E+00 0.  1.
       22    1    1    2    0    0  0.10350732921E-01  0.15081615526E-02 -0.20978870311E-01  0.23441954329E-01  0.00000000000E+00 0. -1.
       22    1    1    2    0    0  0.34372681813E-02 -0.12956913089E-02 -0.11072618100E-01  0.11666040464E-01  0.00000000000E+00 0. -1.
</event>
<event>
 5   0  0.4143600E+04  0.9118800E+02  0.7546771E-02  0.1180000E+00
      -11   -1    0    0    0    0  0.00000000000E+00  0.00000000000E+00  0.34996269501E-01  0.35000000000E-01  0.51099999109E-03 0.  1.
       11   -1    0    0    0    0 -0.00000000000E+00 -0.00000000000E+00 -0.34996269501E-01  0.35000000000E-01  0.51099999109E-03 0. -1.
       22    1    1    2    0    0 -0.37506347499E-04 -0.40548954659E-04 -0.40115935905E-03  0.40494416304E-03  0.00000000000E+00 0. -1.
       22    1    1    2    0    0 -0.11051054504E-01  0.89402037848E-02 -0.31560323523E-01  0.34613683281E-01  0.00000000000E+00 0. -1.
       22    1    1    2    0    0  0.11088560852E-01 -0.88996548302E-02  0.31961482882E-01  0.34981372556E-01  0.00000000000E+00 0.  1.
</event>
<event>
 5   0  0.4143600E+04  0.9118800E+02  0.7546771E-02  0.1180000E+00
      -11   -1    0    0    0    0  0.00000000000E+00  0.00000000000E+00  0.34996269501E-01  0.35000000000E-01  0.51099999109E-03 0.  1.
       11   -1    0    0    0    0 -0.00000000000E+00 -0.00000000000E+00 -0.34996269501E-01  0.35000000000E-01  0.51099999109E-03 0. -1.
       22    1    1    2    0    0  0.10864784044E-03 -0.17229674540E-03 -0.62672208231E-02  0.62705300707E-02  0.00000000000E+00 0. -1.
       22    1    1    2    0    0  0.20758325149E-02  0.14516116855E-01  0.31430460075E-01  0.34682856712E-01  0.00000000000E+00 0.  1.
       22    1    1    2    0    0 -0.21844803554E-02 -0.14343820109E-01 -0.25163239252E-01  0.29046613217E-01  0.00000000000E+00 0. -1.
</event>
<event>
 5   0  0.4143600E+04  0.9118800E+02  0.7546771E-02  0.1180000E+00
      -11   -1    0    0    0    0  0.00000000000E+00  0.00000000000E+00  0.34996269501E-01  0.35000000000E-01  0.51099999109E-03 0. -1.
       11   -1    0    0    0    0 -0.00000000000E+00 -0.00000000000E+00 -0.34996269501E-01  0.35000000000E-01  0.51099999109E-03 0.  1.
       22    1    1    2    0    0 -0.21265217031E-01 -0.27603411111E-01 -0.50258309105E-03  0.34848390925E-01  0.00000000000E+00 0.  1.
       22    1    1    2    0    0  0.31554294645E-03  0.63994541169E-04 -0.42966232708E-03  0.53691001822E-03  0.00000000000E+00 0.  1.
       22    1    1    2    0    0  0.20949674084E-01  0.27539416570E-01  0.93224541813E-03  0.34614699056E-01  0.00000000000E+00 0. -1.
</event>
<event>
 5   0  0.4143600E+04  0.9118800E+02  0.7546771E-02  0.1180000E+00
      -11   -1    0    0    0    0  0.00000000000E+00  0.00000000000E+00  0.34996269501E-01  0.35000000000E-01  0.51099999109E-03 0. -1.
       11   -1    0    0    0    0 -0.00000000000E+00 -0.00000000000E+00 -0.34996269501E-01  0.35000000000E-01  0.51099999109E-03 0.  1.
       22    1    1    2    0    0 -0.11657649099E-01  0.50333979135E-02  0.26341241000E-01  0.29242039165E-01  0.00000000000E+00 0. -1.
       22    1    1    2    0    0 -0.50786871446E-03  0.27695375987E-02  0.52836036108E-02  0.59870473739E-02  0.00000000000E+00 0. -1.
       22    1    1    2    0    0  0.12165517813E-01 -0.78029355123E-02 -0.31624844611E-01  0.34770913461E-01  0.00000000000E+00 0.  1.
</event>
<event>
 5   0  0.4143600E+04  0.9118800E+02  0.7546771E-02  0.1180000E+00
      -11   -1    0    0    0    0  0.00000000000E+00  0.00000000000E+00  0.34996269501E-01  0.35000000000E-01  0.51099999109E-03 0.  1.
       11   -1    0    0    0    0 -0.00000000000E+00 -0.00000000000E+00 -0.34996269501E-01  0.35000000000E-01  0.51099999109E-03 0. -1.
       22    1    1    2    0    0 -0.17656552105E-02 -0.21534993835E-01 -0.25809043956E-01  0.33659771950E-01  0.00000000000E+00 0. -1.
       22    1    1    2    0    0 -0.14654167315E-02 -0.13635565246E-02  0.43666902900E-02  0.48036149597E-02  0.00000000000E+00 0. -1.
       22    1    1    2    0    0  0.32310719420E-02  0.22898550359E-01  0.21442353666E-01  0.31536613090E-01  0.00000000000E+00 0.  1.
</event>
<event>
 5   0  0.4143600E+04  0.9118800E+02  0.7546771E-02  0.1180000E+00
      -11   -1    0    0    0    0  0.00000000000E+00  0.00000000000E+00  0.34996269501E-01  0.35000000000E-01  0.51099999109E-03 0.  1.
       11   -1    0    0    0    0 -0.00000000000E+00 -0.00000000000E+00 -0.34996269501E-01  0.35000000000E-01  0.51099999109E-03 0. -1.
       22    1    1    2    0    0  0.49501045739E-02  0.12551416415E-01 -0.32155510723E-01  0.34871456224E-01  0.00000000000E+00 0. -1.
       22    1    1    2    0    0 -0.45656788919E-02 -0.12375146079E-01  0.27998224019E-01  0.30949801493E-01  0.00000000000E+00 0.  1.
       22    1    1    2    0    0 -0.38442568194E-03 -0.17627033630E-03  0.41572867035E-02  0.41787422834E-02  0.00000000000E+00 0.  1.
</event>
<event>
 5   0  0.4143600E+04  0.9118800E+02  0.7546771E-02  0.1180000E+00
      -11   -1    0    0    0    0  0.00000000000E+00  0.00000000000E+00  0.34996269501E-01  0.35000000000E-01  0.51099999109E-03 0. -1.
       11   -1    0    0    0    0 -0.00000000000E+00 -0.00000000000E+00 -0.34996269501E-01  0.35000000000E-01  0.51099999109E-03 0.  1.
       22    1    1    2    0    0  0.11752052876E-01  0.14477557498E-01 -0.29440295776E-01  0.34848836900E-01  0.00000000000E+00 0.  1.
       22    1    1    2    0    0 -0.12132043641E-01 -0.14139543616E-01  0.29045637294E-01  0.34507422715E-01  0.00000000000E+00 0. -1.
       22    1    1    2    0    0  0.37999076516E-03 -0.33801388198E-03  0.39465848209E-03  0.64374038518E-03  0.00000000000E+00 0.  1.
</event>
<event>
 5   0  0.4143600E+04  0.9118800E+02  0.7546771E-02  0.1180000E+00
      -11   -1    0    0    0    0  0.00000000000E+00  0.00000000000E+00  0.34996269501E-01  0.35000000000E-01  0.51099999109E-03 0. -1.
       11   -1    0    0    0    0 -0.00000000000E+00 -0.00000000000E+00 -0.34996269501E-01  0.35000000000E-01  0.51099999109E-03 0.  1.
       22    1    1    2    0    0 -0.12678783680E-01 -0.32266930376E-02 -0.32425988010E-01  0.34965809043E-01  0.00000000000E+00 0.  1.
       22    1    1    2    0    0 -0.43861093780E-04  0.15463924819E-04  0.70290367752E-03  0.70444056413E-03  0.00000000000E+00 0. -1.
       22    1    1    2    0    0  0.12722644774E-01  0.32112291128E-02  0.31723084333E-01  0.34329750393E-01  0.00000000000E+00 0. -1.
</event>
<event>
 5   0  0.4143600E+04  0.9118800E+02  0.7546771E-02  0.1180000E+00
      -11   -1    0    0    0    0  0.00000000000E+00  0.00000000000E+00  0.34996269501E-01  0.35000000000E-01  0.51099999109E-03 0.  1.
       11   -1    0    0    0    0 -0.00000000000E+00 -0.00000000000E+00 -0.34996269501E-01  0.35000000000E-01  0.51099999109E-03 0. -1.
       22    1    1    2    0    0  0.94177067850E-03  0.28197579518E-02  0.34002882737E-01  0.34132594413E-01  0.00000000000E+00 0.  1.
       22    1    1    2    0    0  0.16917089322E-03 -0.67004309215E-02 -0.14831518918E-01  0.16275698042E-01  0.00000000000E+00 0. -1.
       22    1    1    2    0    0 -0.11109415717E-02  0.38806729698E-02 -0.19171363819E-01  0.19591707545E-01  0.00000000000E+00 0.  1.
</event>
<event>
 5   0  0.4143600E+04  0.9118800E+02  0.7546771E-02  0.1180000E+00
      -11   -1    0    0    0    0  0.00000000000E+00  0.00000000000E+00  0.34996269501E-01  0.35000000000E-01  0.51099999109E-03 0.  1.
       11   -1    0    0    0    0 -0.00000000000E+00 -0.00000000000E+00 -0.34996269501E-01  0.35000000000E-01  0.51099999109E-03 0. -1.
       22    1    1    2    0    0 -0.14183399980E-02 -0.28639157889E-03  0.12715287435E-01  0.12797352970E-01  0.00000000000E+00 0. -1.
       22    1    1    2    0    0  0.15138140260E-01 -0.43980734429E-02  0.17582698709E-01  0.23614775765E-01  0.00000000000E+00 0.  1.
       22    1    1    2    0    0 -0.13719800262E-01  0.46844650218E-02 -0.30297986144E-01  0.33587871265E-01  0.00000000000E+00 0. -1.
</event>
<event>
 5   0  0.4143600E+04  0.9118800E+02  0.7546771E-02  0.1180000E+00
      -11   -1    0    0    0    0  0.00000000000E+00  0.00000000000E+00  0.34996269501E-01  0.35000000000E-01  0.51099999109E-03 0.  1.
       11   -1    0    0    0    0 -0.00000000000E+00 -0.00000000000E+00 -0.34996269501E-01  0.35000000000E-01  0.51099999109E-03 0. -1.
       22    1    1    2    0    0  0.24926504042E-02 -0.30446723603E-02  0.34037715859E-01  0.34264404806E-01  0.00000000000E+00 0.  1.
       22    1    1    2    0    0 -0.45229892379E-02  0.32201137364E-02 -0.87301770441E-02  0.10346137218E-01  0.00000000000E+00 0. -1.
       22    1    1    2    0    0  0.20303388338E-02 -0.17544137609E-03 -0.25307538815E-01  0.25389457976E-01  0.00000000000E+00 0. -1.
</event>
<event>
 5   0  0.4143600E+04  0.9118800E+02  0.7546771E-02  0.1180000E+00
      -11   -1    0    0    0    0  0.00000000000E+00  0.00000000000E+00  0.34996269501E-01  0.35000000000E-01  0.51099999109E-03 0.  1.
       11   -1    0    0    0    0 -0.00000000000E+00 -0.00000000000E+00 -0.34996269501E-01  0.35000000000E-01  0.51099999109E-03 0. -1.
       22    1    1    2    0    0  0.33296762886E-02  0.94586325501E-04 -0.33790958587E-02  0.47448898388E-02  0.00000000000E+00 0. -1.
       22    1    1    2    0    0  0.20678051113E-02  0.17118460853E-02  0.34001971378E-01  0.34107774664E-01  0.00000000000E+00 0.  1.
       22    1    1    2    0    0 -0.53974813998E-02 -0.18064324108E-02 -0.30622875519E-01  0.31147335497E-01  0.00000000000E+00 0. -1.
</event>
<event>
 5   0  0.4143600E+04  0.9118800E+02  0.7546771E-02  0.1180000E+00
      -11   -1    0    0    0    0  0.00000000000E+00  0.00000000000E+00  0.34996269501E-01  0.35000000000E-01  0.51099999109E-03 0.  1.
       11   -1    0    0    0    0 -0.00000000000E+00 -0.00000000000E+00 -0.34996269501E-01  0.35000000000E-01  0.51099999109E-03 0. -1.
       22    1    1    2    0    0 -0.82977169532E-03  0.48538337774E-02  0.44443450674E-02  0.66332817280E-02  0.00000000000E+00 0.  1.
       22    1    1    2    0    0  0.40528148636E-02  0.64312467759E-02  0.27921967124E-01  0.28938253083E-01  0.00000000000E+00 0.  1.
       22    1    1    2    0    0 -0.32230431683E-02 -0.11285080553E-01 -0.32366312192E-01  0.34428465189E-01  0.00000000000E+00 0. -1.
</event>
<event>
 5   0  0.4143600E+04  0.9118800E+02  0.7546771E-02  0.1180000E+00
      -11   -1    0    0    0    0  0.00000000000E+00  0.00000000000E+00  0.34996269501E-01  0.35000000000E-01  0.51099999109E-03 0.  1.
       11   -1    0    0    0    0 -0.00000000000E+00 -0.00000000000E+00 -0.34996269501E-01  0.35000000000E-01  0.51099999109E-03 0. -1.
       22    1    1    2    0    0  0.84930574097E-04 -0.36413280633E-03  0.11523227587E-02  0.12114675576E-02  0.00000000000E+00 0. -1.
       22    1    1    2    0    0 -0.45405401713E-02 -0.22975183145E-01  0.24451730193E-01  0.33857977716E-01  0.00000000000E+00 0.  1.
       22    1    1    2    0    0  0.44556095972E-02  0.23339315951E-01 -0.25604052952E-01  0.34930554726E-01  0.00000000000E+00 0. -1.
</event>
<event>
 5   0  0.4143600E+04  0.9118800E+02  0.7546771E-02  0.1180000E+00
      -11   -1    0    0    0    0  0.00000000000E+00  0.00000000000E+00  0.34996269501E-01  0.35000000000E-01  0.51099999109E-03 0.  1.
       11   -1    0    0    0    0 -0.00000000000E+00 -0.00000000000E+00 -0.34996269501E-01  0.35000000000E-01  0.51099999109E-03 0. -1.
       22    1    1    2    0    0 -0.33782420218E-03  0.13626167104E-02  0.34902798065E-01  0.34931020057E-01  0.00000000000E+00 0.  1.
       22    1    1    2    0    0 -0.13479182335E-04 -0.73160313462E-03 -0.33332845191E-01  0.33340875714E-01  0.00000000000E+00 0. -1.
       22    1    1    2    0    0  0.35130338451E-03 -0.63101357580E-03 -0.15699528734E-02  0.17281042288E-02  0.00000000000E+00 0. -1.
</event>
<event>
 5   0  0.4143600E+04  0.9118800E+02  0.7546771E-02  0.1180000E+00
      -11   -1    0    0    0    0  0.00000000000E+00  0.00000000000E+00  0.34996269501E-01  0.35000000000E-01  0.51099999109E-03 0.  1.
       11   -1    0    0    0    0 -0.00000000000E+00 -0.00000000000E+00 -0.34996269501E-01  0.35000000000E-01  0.51099999109E-03 0. -1.
       22    1    1    2    0    0 -0.12081284918E-03  0.48067589940E-04  0.13374045062E-02  0.13437101812E-02  0.00000000000E+00 0.  1.
       22    1    1    2    0    0  0.73107842410E-02  0.12720293494E-01  0.30369100724E-01  0.33727373327E-01  0.00000000000E+00 0.  1.
       22    1    1    2    0    0 -0.71899713918E-02 -0.12768361084E-01 -0.31706505230E-01  0.34928916492E-01  0.00000000000E+00 0. -1.
</event>
<event>
 5   0  0.4143600E+04  0.9118800E+02  0.7546771E-02  0.1180000E+00
      -11   -1    0    0    0    0  0.00000000000E+00  0.00000000000E+00  0.34996269501E-01  0.35000000000E-01  0.51099999109E-03 0. -1.
       11   -1    0    0    0    0 -0.00000000000E+00 -0.00000000000E+00 -0.34996269501E-01  0.35000000000E-01  0.51099999109E-03 0.  1.
       22    1    1    2    0    0  0.14174854427E-02 -0.22903123869E-03 -0.14571105764E-02  0.20457007407E-02  0.00000000000E+00 0. -1.
       22    1    1    2    0    0 -0.17865540822E-02  0.33662495180E-03 -0.33222676837E-01  0.33272381160E-01  0.00000000000E+00 0.  1.
       22    1    1    2    0    0  0.36906863951E-03 -0.10759371311E-03  0.34679787413E-01  0.34681918100E-01  0.00000000000E+00 0. -1.
</event>
<event>
 5   0  0.4143600E+04  0.9118800E+02  0.7546771E-02  0.1180000E+00
      -11   -1    0    0    0    0  0.00000000000E+00  0.00000000000E+00  0.34996269501E-01  0.35000000000E-01  0.51099999109E-03 0. -1.
       11   -1    0    0    0    0 -0.00000000000E+00 -0.00000000000E+00 -0.34996269501E-01  0.35000000000E-01  0.51099999109E-03 0.  1.
       22    1    1    2    0    0 -0.27106682251E-03 -0.21948195875E-03  0.61529117191E-02  0.61627893178E-02  0.00000000000E+00 0. -1.
       22    1    1    2    0    0 -0.16548391919E-01  0.95114781142E-02 -0.28540004178E-01  0.34334375333E-01  0.00000000000E+00 0.  1.
       22    1    1    2    0    0  0.16819458742E-01 -0.92919961554E-02  0.22387092459E-01  0.29502835350E-01  0.00000000000E+00 0. -1.
</event>
<event>
 5   0  0.4143600E+04  0.9118800E+02  0.7546771E-02  0.1180000E+00
      -11   -1    0    0    0    0  0.00000000000E+00  0.00000000000E+00  0.34996269501E-01  0.35000000000E-01  0.51099999109E-03 0.  1.
       11   -1    0    0    0    0 -0.00000000000E+00 -0.00000000000E+00 -0.34996269501E-01  0.35000000000E-01  0.51099999109E-03 0. -1.
       22    1    1    2    0    0 -0.25775305543E-01  0.17583065015E-02 -0.20218408884E-01  0.32806128625E-01  0.00000000000E+00 0. -1.
       22    1    1    2    0    0  0.23540836519E-01 -0.21041444538E-02  0.23420865741E-01  0.33273643623E-01  0.00000000000E+00 0.  1.
       22    1    1    2    0    0  0.22344690235E-02  0.34583795232E-03 -0.32024568568E-02  0.39202277518E-02  0.00000000000E+00 0.  1.
</event>
<event>
 5   0  0.4143600E+04  0.9118800E+02  0.7546771E-02  0.1180000E+00
      -11   -1    0    0    0    0  0.00000000000E+00  0.00000000000E+00  0.34996269501E-01  0.35000000000E-01  0.51099999109E-03 0.  1.
       11   -1    0    0    0    0 -0.00000000000E+00 -0.00000000000E+00 -0.34996269501E-01  0.35000000000E-01  0.51099999109E-03 0. -1.
       22    1    1    2    0    0 -0.16824258214E-01  0.12959071786E-01 -0.25614879012E-01  0.33273341173E-01  0.00000000000E+00 0. -1.
       22    1    1    2    0    0  0.25496098963E-03  0.30171599421E-03 -0.19211856370E-02  0.19613750022E-02  0.00000000000E+00 0. -1.
       22    1    1    2    0    0  0.16569297225E-01 -0.13260787780E-01  0.27536064649E-01  0.34765283825E-01  0.00000000000E+00 0.  1.
</event>
<event>
 5   0  0.4143600E+04  0.9118800E+02  0.7546771E-02  0.1180000E+00
      -11   -1    0    0    0    0  0.00000000000E+00  0.00000000000E+00  0.34996269501E-01  0.35000000000E-01  0.51099999109E-03 0.  1.
       11   -1    0    0    0    0 -0.00000000000E+00 -0.00000000000E+00 -0.34996269501E-01  0.35000000000E-01  0.51099999109E-03 0. -1.
       22    1    1    2    0    0  0.17494692464E-01 -0.11325653110E-01 -0.27072841399E-01  0.34165383420E-01  0.00000000000E+00 0. -1.
       22    1    1    2    0    0  0.57396254419E-03 -0.96916073205E-03  0.35572505379E-02  0.37313183885E-02  0.00000000000E+00 0.  1.
       22    1    1    2    0    0 -0.18068655008E-01  0.12294813842E-01  0.23515590862E-01  0.32103298192E-01  0.00000000000E+00 0.  1.
</event>
<event>
 5   0  0.4143600E+04  0.9118800E+02  0.7546771E-02  0.1180000E+00
      -11   -1    0    0    0    0  0.00000000000E+00  0.00000000000E+00  0.34996269501E-01  0.35000000000E-01  0.51099999109E-03 0. -1.
       11   -1    0    0    0    0 -0.00000000000E+00 -0.00000000000E+00 -0.34996269501E-01  0.35000000000E-01  0.51099999109E-03 0.  1.
       22    1    1    2    0    0 -0.10275252295E-02  0.21793578930E-01  0.27353934005E-01  0.34989335464E-01  0.00000000000E+00 0. -1.
       22    1    1    2    0    0  0.93658693526E-04 -0.12914650739E-03 -0.29059200793E-03  0.33150337301E-03  0.00000000000E+00 0.  1.
       22    1    1    2    0    0  0.93386653597E-03 -0.21664432422E-01 -0.27063341997E-01  0.34679161163E-01  0.00000000000E+00 0.  1.
</event>
<event>
 5   0  0.4143600E+04  0.9118800E+02  0.7546771E-02  0.1180000E+00
      -11   -1    0    0    0    0  0.00000000000E+00  0.00000000000E+00  0.34996269501E-01  0.35000000000E-01  0.51099999109E-03 0. -1.
       11   -1    0    0    0    0 -0.00000000000E+00 -0.00000000000E+00 -0.34996269501E-01  0.35000000000E-01  0.51099999109E-03 0. -1.
       22    1    1    2    0    0 -0.39111992480E-02 -0.69599813226E-03 -0.29393994093E-01  0.29661233651E-01  0.00000000000E+00 0. -1.
       22    1    1    2    0    0 -0.20163821508E-03  0.88076357493E-03  0.34085222613E-01  0.34097196410E-01  0.00000000000E+00 0. -1.
       22    1    1    2    0    0  0.41128374631E-02 -0.18476544267E-03 -0.46912285200E-02  0.62415699382E-02  0.00000000000E+00 0.  1.
</event>
<event>
 5   0  0.4143600E+04  0.9118800E+02  0.7546771E-02  0.1180000E+00
      -11   -1    0    0    0    0  0.00000000000E+00  0.00000000000E+00  0.34996269501E-01  0.35000000000E-01  0.51099999109E-03 0.  1.
       11   -1    0    0    0    0 -0.00000000000E+00 -0.00000000000E+00 -0.34996269501E-01  0.35000000000E-01  0.51099999109E-03 0. -1.
       22    1    1    2    0    0 -0.42204947054E-02  0.22242701950E-02  0.34046800161E-01  0.34379420510E-01  0.00000000000E+00 0.  1.
       22    1    1    2    0    0  0.40356927846E-02 -0.18300856268E-02 -0.54664342256E-02  0.70368979526E-02  0.00000000000E+00 0. -1.
       22    1    1    2    0    0  0.18480192089E-03 -0.39418456820E-03 -0.28580365935E-01  0.28583681537E-01  0.00000000000E+00 0. -1.
</event>
<event>
 5   0  0.4143600E+04  0.9118800E+02  0.7546771E-02  0.1180000E+00
      -11   -1    0    0    0    0  0.00000000000E+00  0.00000000000E+00  0.34996269501E-01  0.35000000000E-01  0.51099999109E-03 0. -1.
       11   -1    0    0    0    0 -0.00000000000E+00 -0.00000000000E+00 -0.34996269501E-01  0.35000000000E-01  0.51099999109E-03 0.  1.
       22    1    1    2    0    0  0.26185692590E-03 -0.15012116647E-03  0.14500198171E-02  0.14811019156E-02  0.00000000000E+00 0. -1.
       22    1    1    2    0    0  0.83912655299E-02  0.12408480791E-01 -0.31528225958E-01  0.34905769792E-01  0.00000000000E+00 0.  1.
       22    1    1    2    0    0 -0.86531224558E-02 -0.12258359624E-01  0.30078206141E-01  0.33613128292E-01  0.00000000000E+00 0. -1.
</event>
<event>
 5   0  0.4143600E+04  0.9118800E+02  0.7546771E-02  0.1180000E+00
      -11   -1    0    0    0    0  0.00000000000E+00  0.00000000000E+00  0.34996269501E-01  0.35000000000E-01  0.51099999109E-03 0. -1.
       11   -1    0    0    0    0 -0.00000000000E+00 -0.00000000000E+00 -0.34996269501E-01  0.35000000000E-01  0.51099999109E-03 0.  1.
       22    1    1    2    0    0  0.17226091051E-03 -0.28013892181E-03  0.34169832373E-03  0.47424611885E-03  0.00000000000E+00 0.  1.
       22    1    1    2    0    0  0.16089336340E-01 -0.12370421971E-02  0.30568342665E-01  0.34566176973E-01  0.00000000000E+00 0. -1.
       22    1    1    2    0    0 -0.16261597250E-01  0.15171811189E-02 -0.30910040989E-01  0.34959576908E-01  0.00000000000E+00 0.  1.
</event>
<event>
 5   0  0.4143600E+04  0.9118800E+02  0.7546771E-02  0.1180000E+00
      -11   -1    0    0    0    0  0.00000000000E+00  0.00000000000E+00  0.34996269501E-01  0.35000000000E-01  0.51099999109E-03 0. -1.
       11   -1    0    0    0    0 -0.00000000000E+00 -0.00000000000E+00 -0.34996269501E-01  0.35000000000E-01  0.51099999109E-03 0.  1.
       22    1    1    2    0    0  0.27668122885E-02  0.95185568496E-02 -0.17638310390E-01  0.20232848740E-01  0.00000000000E+00 0.  1.
       22    1    1    2    0    0 -0.36359430237E-02 -0.24675146555E-02 -0.15378848442E-01  0.15994301787E-01  0.00000000000E+00 0. -1.
       22    1    1    2    0    0  0.86913073522E-03 -0.70510421941E-02  0.33017158831E-01  0.33772849473E-01  0.00000000000E+00 0. -1.
</event>
<event>
 5   0  0.4143600E+04  0.9118800E+02  0.7546771E-02  0.1180000E+00
      -11   -1    0    0    0    0  0.00000000000E+00  0.00000000000E+00  0.34996269501E-01  0.35000000000E-01  0.51099999109E-03 0. -1.
       11   -1    0    0    0    0 -0.00000000000E+00 -0.00000000000E+00 -0.34996269501E-01  0.35000000000E-01  0.51099999109E-03 0.  1.
       22    1    1    2    0    0  0.10268702737E-01  0.17979335791E-01  0.27747469206E-01  0.34621161429E-01  0.00000000000E+00 0. -1.
       22    1    1    2    0    0 -0.96285372980E-02 -0.18225898439E-01 -0.24305880497E-01  0.31869545512E-01  0.00000000000E+00 0.  1.
       22    1    1    2    0    0 -0.64016543870E-03  0.24656264823E-03 -0.34415887089E-02  0.35092930584E-02  0.00000000000E+00 0. -1.
</event>
<event>
 5   0  0.4143600E+04  0.9118800E+02  0.7546771E-02  0.1180000E+00
      -11   -1    0    0    0    0  0.00000000000E+00  0.00000000000E+00  0.34996269501E-01  0.35000000000E-01  0.51099999109E-03 0.  1.
       11   -1    0    0    0    0 -0.00000000000E+00 -0.00000000000E+00 -0.34996269501E-01  0.35000000000E-01  0.51099999109E-03 0. -1.
       22    1    1    2    0    0  0.69833252894E-04  0.60523571668E-04 -0.11998340813E-02  0.12033875554E-02  0.00000000000E+00 0.  1.
       22    1    1    2    0    0  0.20582847957E-01  0.91079866340E-02  0.26570311346E-01  0.34822270109E-01  0.00000000000E+00 0. -1.
       22    1    1    2    0    0 -0.20652681209E-01 -0.91685102056E-02 -0.25370477264E-01  0.33974342336E-01  0.00000000000E+00 0.  1.
</event>
<event>
 5   0  0.4143600E+04  0.9118800E+02  0.7546771E-02  0.1180000E+00
      -11   -1    0    0    0    0  0.00000000000E+00  0.00000000000E+00  0.34996269501E-01  0.35000000000E-01  0.51099999109E-03 0.  1.
       11   -1    0    0    0    0 -0.00000000000E+00 -0.00000000000E+00 -0.34996269501E-01  0.35000000000E-01  0.51099999109E-03 0.  1.
       22    1    1    2    0    0  0.68563053825E-03 -0.13582407446E-03 -0.31159752427E-01  0.31167590679E-01  0.00000000000E+00 0.  1.
       22    1    1    2    0    0  0.43975131393E-03 -0.54672432947E-03  0.34879557248E-01  0.34886613515E-01  0.00000000000E+00 0.  1.
       22    1    1    2    0    0 -0.11253818522E-02  0.68254840392E-03 -0.37198048208E-02  0.39457958059E-02  0.00000000000E+00 0. -1.
</event>
<event>
 5   0  0.4143600E+04  0.9118800E+02  0.7546771E-02  0.1180000E+00
      -11   -1    0    0    0    0  0.00000000000E+00  0.00000000000E+00  0.34996269501E-01  0.35000000000E-01  0.51099999109E-03 0. -1.
       11   -1    0    0    0    0 -0.00000000000E+00 -0.00000000000E+00 -0.34996269501E-01  0.35000000000E-01  0.51099999109E-03 0.  1.
       22    1    1    2    0    0 -0.72794902440E-03  0.45340843147E-03  0.40156079372E-03  0.94696359957E-03  0.00000000000E+00 0. -1.
       22    1    1    2    0    0  0.49917324707E-02 -0.22436364991E-01 -0.26225591340E-01  0.34872474936E-01  0.00000000000E+00 0.  1.
       22    1    1    2    0    0 -0.42637834463E-02  0.21982956560E-01  0.25824030546E-01  0.34180561464E-01  0.00000000000E+00 0. -1.
</event>
<event>
 5   0  0.4143600E+04  0.9118800E+02  0.7546771E-02  0.1180000E+00
      -11   -1    0    0    0    0  0.00000000000E+00  0.00000000000E+00  0.34996269501E-01  0.35000000000E-01  0.51099999109E-03 0.  1.
       11   -1    0    0    0    0 -0.00000000000E+00 -0.00000000000E+00 -0.34996269501E-01  0.35000000000E-01  0.51099999109E-03 0. -1.
       22    1    1    2    0    0  0.48686169658E-02  0.53778496742E-03  0.34590673906E-01  0.34935760548E-01  0.00000000000E+00 0.  1.
       22    1    1    2    0    0 -0.16721017912E-03 -0.38050383350E-03 -0.49836250874E-03  0.64892804025E-03  0.00000000000E+00 0.  1.
       22    1    1    2    0    0 -0.47014067867E-02 -0.15728113392E-03 -0.34092311397E-01  0.34415311411E-01  0.00000000000E+00 0. -1.
</event>
<event>
 5   0  0.4143600E+04  0.9118800E+02  0.7546771E-02  0.1180000E+00
      -11   -1    0    0    0    0  0.00000000000E+00  0.00000000000E+00  0.34996269501E-01  0.35000000000E-01  0.51099999109E-03 0. -1.
       11   -1    0    0    0    0 -0.00000000000E+00 -0.00000000000E+00 -0.34996269501E-01  0.35000000000E-01  0.51099999109E-03 0.  1.
       22    1    1    2    0    0  0.45976493589E-04 -0.20478765425E-02  0.34766642416E-01  0.34826934075E-01  0.00000000000E+00 0. -1.
       22    1    1    2    0    0 -0.99970328454E-04  0.92267660300E-03 -0.91701856237E-03  0.13047027340E-02  0.00000000000E+00 0.  1.
       22    1    1    2    0    0  0.53993834865E-04  0.11251999395E-02 -0.33849623853E-01  0.33868363191E-01  0.00000000000E+00 0.  1.
</event>
<event>
 5   0  0.4143600E+04  0.9118800E+02  0.7546771E-02  0.1180000E+00
      -11   -1    0    0    0    0  0.00000000000E+00  0.00000000000E+00  0.34996269501E-01  0.35000000000E-01  0.51099999109E-03 0.  1.
       11   -1    0    0    0    0 -0.00000000000E+00 -0.00000000000E+00 -0.34996269501E-01  0.35000000000E-01  0.51099999109E-03 0. -1.
       22    1    1    2    0    0 -0.31103776810E-02  0.14710315492E-01  0.31584090058E-01  0.34980316979E-01  0.00000000000E+00 0.  1.
       22    1    1    2    0    0  0.10124288747E-03 -0.42087966521E-04 -0.56557888706E-03  0.57610849384E-03  0.00000000000E+00 0.  1.
       22    1    1    2    0    0  0.30091347935E-02 -0.14668227526E-01 -0.31018511170E-01  0.34443574527E-01  0.00000000000E+00 0. -1.
</event>
<event>
 5   0  0.4143600E+04  0.9118800E+02  0.7546771E-02  0.1180000E+00
      -11   -1    0    0    0    0  0.00000000000E+00  0.00000000000E+00  0.34996269501E-01  0.35000000000E-01  0.51099999109E-03 0.  1.
       11   -1    0    0    0    0 -0.00000000000E+00 -0.00000000000E+00 -0.34996269501E-01  0.35000000000E-01  0.51099999109E-03 0. -1.
       22    1    1    2    0    0  0.12834496823E-01  0.54799898693E-02  0.17439598336E-01  0.22335939376E-01  0.00000000000E+00 0.  1.
       22    1    1    2    0    0 -0.30870945263E-02  0.30155189681E-02  0.13477782739E-01  0.14151824434E-01  0.00000000000E+00 0.  1.
       22    1    1    2    0    0 -0.97474022968E-02 -0.84955088375E-02 -0.30917381075E-01  0.33512236190E-01  0.00000000000E+00 0. -1.
</event>
<event>
 5   0  0.4143600E+04  0.9118800E+02  0.7546771E-02  0.1180000E+00
      -11   -1    0    0    0    0  0.00000000000E+00  0.00000000000E+00  0.34996269501E-01  0.35000000000E-01  0.51099999109E-03 0. -1.
       11   -1    0    0    0    0 -0.00000000000E+00 -0.00000000000E+00 -0.34996269501E-01  0.35000000000E-01  0.51099999109E-03 0.  1.
       22    1    1    2    0    0 -0.14028717502E-01  0.15234502594E-02  0.30875404622E-01  0.33947259477E-01  0.00000000000E+00 0. -1.
       22    1    1    2    0    0  0.10230296340E-01  0.18934173944E-02 -0.28648908510E-01  0.30479566129E-01  0.00000000000E+00 0.  1.
       22    1    1    2    0    0  0.37984211619E-02 -0.34168676538E-02 -0.22264961123E-02  0.55731743939E-02  0.00000000000E+00 0.  1.
</event>
<event>
 5   0  0.4143600E+04  0.9118800E+02  0.7546771E-02  0.1180000E+00
      -11   -1    0    0    0    0  0.00000000000E+00  0.00000000000E+00  0.34996269501E-01  0.35000000000E-01  0.51099999109E-03 0.  1.
       11   -1    0    0    0    0 -0.00000000000E+00 -0.00000000000E+00 -0.34996269501E-01  0.35000000000E-01  0.51099999109E-03 0.  1.
       22    1    1    2    0    0 -0.78333811052E-03  0.41406792874E-03 -0.10623046537E-02  0.13833155903E-02  0.00000000000E+00 0. -1.
       22    1    1    2    0    0  0.31549925030E-03 -0.78724378196E-03 -0.33769295395E-01  0.33779943813E-01  0.00000000000E+00 0.  1.
       22    1    1    2    0    0  0.46783886022E-03  0.37317585323E-03  0.34831600049E-01  0.34836740596E-01  0.00000000000E+00 0.  1.
</event>
<event>
 5   0  0.4143600E+04  0.9118800E+02  0.7546771E-02  0.1180000E+00
      -11   -1    0    0    0    0  0.00000000000E+00  0.00000000000E+00  0.34996269501E-01  0.35000000000E-01  0.51099999109E-03 0. -1.
       11   -1    0    0    0    0 -0.00000000000E+00 -0.00000000000E+00 -0.34996269501E-01  0.35000000000E-01  0.51099999109E-03 0.  1.
       22    1    1    2    0    0 -0.14981395622E-02  0.11203891917E-01 -0.32775663079E-01  0.34670098161E-01  0.00000000000E+00 0.  1.
       22    1    1    2    0    0 -0.17666294234E-02 -0.28355986315E-03  0.46697548254E-02  0.50007995206E-02  0.00000000000E+00 0. -1.
       22    1    1    2    0    0  0.32647689856E-02 -0.10920332054E-01  0.28105908253E-01  0.30329102318E-01  0.00000000000E+00 0. -1.
</event>
<event>
 5   0  0.4143600E+04  0.9118800E+02  0.7546771E-02  0.1180000E+00
      -11   -1    0    0    0    0  0.00000000000E+00  0.00000000000E+00  0.34996269501E-01  0.35000000000E-01  0.51099999109E-03 0.  1.
       11   -1    0    0    0    0 -0.00000000000E+00 -0.00000000000E+00 -0.34996269501E-01  0.35000000000E-01  0.51099999109E-03 0.  1.
       22    1    1    2    0    0 -0.10394791818E-03 -0.20781495062E-03 -0.34643855234E-01  0.34644634472E-01  0.00000000000E+00 0.  1.
       22    1    1    2    0    0  0.00000000000E+00 -0.00000000000E+00  0.34962977791E-01  0.34960610629E-01  0.00000000000E+00 0.  1.
       22    1    1    2    0    0  0.10394791818E-03  0.20781495062E-03 -0.31912255704E-03  0.39475489839E-03  0.00000000000E+00 0. -1.
</event>
<event>
 5   0  0.4143600E+04  0.9118800E+02  0.7546771E-02  0.1180000E+00
      -11   -1    0    0    0    0  0.00000000000E+00  0.00000000000E+00  0.34996269501E-01  0.35000000000E-01  0.51099999109E-03 0. -1.
       11   -1    0    0    0    0 -0.00000000000E+00 -0.00000000000E+00 -0.34996269501E-01  0.35000000000E-01  0.51099999109E-03 0.  1.
       22    1    1    2    0    0  0.10634536272E-01 -0.25846949807E-02 -0.31205784870E-01  0.33069245822E-01  0.00000000000E+00 0.  1.
       22    1    1    2    0    0 -0.33541558249E-02  0.32315304702E-02 -0.22333174051E-03  0.46629419409E-02  0.00000000000E+00 0.  1.
       22    1    1    2    0    0 -0.72803804474E-02 -0.64683548956E-03  0.31429116611E-01  0.32267812237E-01  0.00000000000E+00 0. -1.
</event>
<event>
 5   0  0.4143600E+04  0.9118800E+02  0.7546771E-02  0.1180000E+00
      -11   -1    0    0    0    0  0.00000000000E+00  0.00000000000E+00  0.34996269501E-01  0.35000000000E-01  0.51099999109E-03 0.  1.
       11   -1    0    0    0    0 -0.00000000000E+00 -0.00000000000E+00 -0.34996269501E-01  0.35000000000E-01  0.51099999109E-03 0. -1.
       22    1    1    2    0    0 -0.12444111256E-01 -0.79816635327E-02  0.31657188144E-01  0.34939095851E-01  0.00000000000E+00 0.  1.
       22    1    1    2    0    0  0.79039652995E-04 -0.18353648112E-03 -0.88046139493E-03  0.90285390546E-03  0.00000000000E+00 0.  1.
       22    1    1    2    0    0  0.12365071603E-01  0.81652000138E-02 -0.30776726749E-01  0.34158050243E-01  0.00000000000E+00 0. -1.
</event>
<event>
 5   0  0.4143600E+04  0.9118800E+02  0.7546771E-02  0.1180000E+00
      -11   -1    0    0    0    0  0.00000000000E+00  0.00000000000E+00  0.34996269501E-01  0.35000000000E-01  0.51099999109E-03 0.  1.
       11   -1    0    0    0    0 -0.00000000000E+00 -0.00000000000E+00 -0.34996269501E-01  0.35000000000E-01  0.51099999109E-03 0. -1.
       22    1    1    2    0    0  0.50087005432E-03  0.71779511458E-02  0.15710151275E-01  0.17279545901E-01  0.00000000000E+00 0.  1.
       22    1    1    2    0    0 -0.72362036906E-02 -0.10996855352E-01 -0.32044976733E-01  0.34643527611E-01  0.00000000000E+00 0. -1.
       22    1    1    2    0    0  0.67353336363E-02  0.38189042065E-02  0.16334825458E-01  0.18076926489E-01  0.00000000000E+00 0.  1.
</event>
<event>
 5   0  0.4143600E+04  0.9118800E+02  0.7546771E-02  0.1180000E+00
      -11   -1    0    0    0    0  0.00000000000E+00  0.00000000000E+00  0.34996269501E-01  0.35000000000E-01  0.51099999109E-03 0. -1.
       11   -1    0    0    0    0 -0.00000000000E+00 -0.00000000000E+00 -0.34996269501E-01  0.35000000000E-01  0.51099999109E-03 0.  1.
       22    1    1    2    0    0  0.46417274786E-03 -0.78087803648E-03 -0.34130276385E-01  0.34142363611E-01  0.00000000000E+00 0.  1.
       22    1    1    2    0    0 -0.15722282338E-03  0.85213717729E-03  0.34959665821E-01  0.34970403073E-01  0.00000000000E+00 0. -1.
       22    1    1    2    0    0 -0.30694992448E-03 -0.71259140811E-04 -0.82938943574E-03  0.88723331622E-03  0.00000000000E+00 0.  1.
</event>
<event>
 5   0  0.4143600E+04  0.9118800E+02  0.7546771E-02  0.1180000E+00
      -11   -1    0    0    0    0  0.00000000000E+00  0.00000000000E+00  0.34996269501E-01  0.35000000000E-01  0.51099999109E-03 0. -1.
       11   -1    0    0    0    0 -0.00000000000E+00 -0.00000000000E+00 -0.34996269501E-01  0.35000000000E-01  0.51099999109E-03 0.  1.
       22    1    1    2    0    0 -0.87362790117E-02 -0.96019677848E-02  0.32264890093E-01  0.34778491759E-01  0.00000000000E+00 0. -1.
       22    1    1    2    0    0  0.23769379276E-03 -0.82953287093E-04  0.18146748482E-03  0.31033858124E-03  0.00000000000E+00 0. -1.
       22    1    1    2    0    0  0.84985852189E-02  0.96849210719E-02 -0.32446357578E-01  0.34911169659E-01  0.00000000000E+00 0.  1.
</event>
<event>
 5   0  0.4143600E+04  0.9118800E+02  0.7546771E-02  0.1180000E+00
      -11   -1    0    0    0    0  0.00000000000E+00  0.00000000000E+00  0.34996269501E-01  0.35000000000E-01  0.51099999109E-03 0. -1.
       11   -1    0    0    0    0 -0.00000000000E+00 -0.00000000000E+00 -0.34996269501E-01  0.35000000000E-01  0.51099999109E-03 0.  1.
       22    1    1    2    0    0 -0.17444775028E-03  0.44770724271E-02  0.34665302330E-01  0.34953652101E-01  0.00000000000E+00 0. -1.
       22    1    1    2    0    0 -0.24818190131E-03 -0.42384055441E-03 -0.81451432736E-03  0.95114071576E-03  0.00000000000E+00 0.  1.
       22    1    1    2    0    0  0.42262965159E-03 -0.40532318727E-02 -0.33850788003E-01  0.34095207183E-01  0.00000000000E+00 0.  1.
</event>
<event>
 5   0  0.4143600E+04  0.9118800E+02  0.7546771E-02  0.1180000E+00
      -11   -1    0    0    0    0  0.00000000000E+00  0.00000000000E+00  0.34996269501E-01  0.35000000000E-01  0.51099999109E-03 0. -1.
       11   -1    0    0    0    0 -0.00000000000E+00 -0.00000000000E+00 -0.34996269501E-01  0.35000000000E-01  0.51099999109E-03 0.  1.
       22    1    1    2    0    0  0.71625611247E-03  0.42735291991E-02 -0.76903923176E-02  0.88271291275E-02  0.00000000000E+00 0.  1.
       22    1    1    2    0    0  0.19172361511E-02 -0.96606999233E-03  0.34230685512E-01  0.34297943324E-01  0.00000000000E+00 0. -1.
       22    1    1    2    0    0 -0.26334922635E-02 -0.33074592067E-02 -0.26540293194E-01  0.26874927548E-01  0.00000000000E+00 0. -1.
</event>
<event>
 5   0  0.4143600E+04  0.9118800E+02  0.7546771E-02  0.1180000E+00
      -11   -1    0    0    0    0  0.00000000000E+00  0.00000000000E+00  0.34996269501E-01  0.35000000000E-01  0.51099999109E-03 0.  1.
       11   -1    0    0    0    0 -0.00000000000E+00 -0.00000000000E+00 -0.34996269501E-01  0.35000000000E-01  0.51099999109E-03 0. -1.
       22    1    1    2    0    0  0.14039103564E-02  0.15336126166E-01  0.30389171660E-01  0.34068599681E-01  0.00000000000E+00 0.  1.
       22    1    1    2    0    0  0.12832200721E-04 -0.44402251604E-05  0.98377824535E-03  0.98387195152E-03  0.00000000000E+00 0. -1.
       22    1    1    2    0    0 -0.14167425571E-02 -0.15331685941E-01 -0.31372949905E-01  0.34947528368E-01  0.00000000000E+00 0. -1.
</event>
<event>
 5   0  0.4143600E+04  0.9118800E+02  0.7546771E-02  0.1180000E+00
      -11   -1    0    0    0    0  0.00000000000E+00  0.00000000000E+00  0.34996269501E-01  0.35000000000E-01  0.51099999109E-03 0.  1.
       11   -1    0    0    0    0 -0.00000000000E+00 -0.00000000000E+00 -0.34996269501E-01  0.35000000000E-01  0.51099999109E-03 0. -1.
       22    1    1    2    0    0 -0.89698471277E-02 -0.14579661502E-01 -0.23183458917E-01  0.28818352735E-01  0.00000000000E+00 0. -1.
       22    1    1    2    0    0  0.12870668078E-01  0.13248949238E-01  0.28800395053E-01  0.34214784931E-01  0.00000000000E+00 0.  1.
       22    1    1    2    0    0 -0.39008209505E-02  0.13307122641E-02 -0.56169361356E-02  0.69668623332E-02  0.00000000000E+00 0.  1.
</event>
<event>
 5   0  0.4143600E+04  0.9118800E+02  0.7546771E-02  0.1180000E+00
      -11   -1    0    0    0    0  0.00000000000E+00  0.00000000000E+00  0.34996269501E-01  0.35000000000E-01  0.51099999109E-03 0. -1.
       11   -1    0    0    0    0 -0.00000000000E+00 -0.00000000000E+00 -0.34996269501E-01  0.35000000000E-01  0.51099999109E-03 0.  1.
       22    1    1    2    0    0 -0.26311877478E-02 -0.36777094632E-02 -0.23932715247E-01  0.24356181043E-01  0.00000000000E+00 0.  1.
       22    1    1    2    0    0  0.25324989092E-02  0.27927687930E-02 -0.10522302944E-01  0.11177296968E-01  0.00000000000E+00 0. -1.
       22    1    1    2    0    0  0.98688838530E-04  0.88494067019E-03  0.34455018192E-01  0.34466521990E-01  0.00000000000E+00 0. -1.
</event>
<event>
 5   0  0.4143600E+04  0.9118800E+02  0.7546771E-02  0.1180000E+00
      -11   -1    0    0    0    0  0.00000000000E+00  0.00000000000E+00  0.34996269501E-01  0.35000000000E-01  0.51099999109E-03 0.  1.
       11   -1    0    0    0    0 -0.00000000000E+00 -0.00000000000E+00 -0.34996269501E-01  0.35000000000E-01  0.51099999109E-03 0. -1.
       22    1    1    2    0    0 -0.13107924066E-01  0.50462361917E-02  0.30825036025E-01  0.33874253039E-01  0.00000000000E+00 0.  1.
       22    1    1    2    0    0  0.80997444534E-02  0.32334455086E-02 -0.10770472706E-01  0.13858719724E-01  0.00000000000E+00 0.  1.
       22    1    1    2    0    0  0.50081796124E-02 -0.82796817003E-02 -0.20054563319E-01  0.22267027237E-01  0.00000000000E+00 0. -1.
</event>
<event>
 5   0  0.4143600E+04  0.9118800E+02  0.7546771E-02  0.1180000E+00
      -11   -1    0    0    0    0  0.00000000000E+00  0.00000000000E+00  0.34996269501E-01  0.35000000000E-01  0.51099999109E-03 0.  1.
       11   -1    0    0    0    0 -0.00000000000E+00 -0.00000000000E+00 -0.34996269501E-01  0.35000000000E-01  0.51099999109E-03 0. -1.
       22    1    1    2    0    0 -0.95463473808E-02 -0.15294189312E-01  0.29192358810E-01  0.34310913539E-01  0.00000000000E+00 0.  1.
       22    1    1    2    0    0  0.95099332093E-02  0.14826727418E-01 -0.20684636143E-01  0.27168453175E-01  0.00000000000E+00 0. -1.
       22    1    1    2    0    0  0.36414171476E-04  0.46746189448E-03 -0.85077226666E-02  0.85206332856E-02  0.00000000000E+00 0.  1.
</event>
<event>
 5   0  0.4143600E+04  0.9118800E+02  0.7546771E-02  0.1180000E+00
      -11   -1    0    0    0    0  0.00000000000E+00  0.00000000000E+00  0.34996269501E-01  0.35000000000E-01  0.51099999109E-03 0.  1.
       11   -1    0    0    0    0 -0.00000000000E+00 -0.00000000000E+00 -0.34996269501E-01  0.35000000000E-01  0.51099999109E-03 0. -1.
       22    1    1    2    0    0  0.81671480081E-02  0.36297720044E-02  0.33610349070E-01  0.34778342629E-01  0.00000000000E+00 0.  1.
       22    1    1    2    0    0 -0.80243407320E-02 -0.34994772879E-02 -0.23002043713E-01  0.24611590774E-01  0.00000000000E+00 0. -1.
       22    1    1    2    0    0 -0.14280727617E-03 -0.13029471653E-03 -0.10608305357E-01  0.10610066597E-01  0.00000000000E+00 0. -1.
</event>
<event>
 5   0  0.4143600E+04  0.9118800E+02  0.7546771E-02  0.1180000E+00
      -11   -1    0    0    0    0  0.00000000000E+00  0.00000000000E+00  0.34996269501E-01  0.35000000000E-01  0.51099999109E-03 0.  1.
       11   -1    0    0    0    0 -0.00000000000E+00 -0.00000000000E+00 -0.34996269501E-01  0.35000000000E-01  0.51099999109E-03 0. -1.
       22    1    1    2    0    0  0.54220722430E-02  0.99545829540E-02  0.21536338877E-01  0.24337347460E-01  0.00000000000E+00 0.  1.
       22    1    1    2    0    0 -0.53172543863E-02 -0.11236619163E-01 -0.32410459393E-01  0.34712716438E-01  0.00000000000E+00 0. -1.
       22    1    1    2    0    0 -0.10481785671E-03  0.12820362086E-02  0.10874120517E-01  0.10949936102E-01  0.00000000000E+00 0.  1.
</event>
<event>
 5   0  0.4143600E+04  0.9118800E+02  0.7546771E-02  0.1180000E+00
      -11   -1    0    0    0    0  0.00000000000E+00  0.00000000000E+00  0.34996269501E-01  0.35000000000E-01  0.51099999109E-03 0. -1.
       11   -1    0    0    0    0 -0.00000000000E+00 -0.00000000000E+00 -0.34996269501E-01  0.35000000000E-01  0.51099999109E-03 0.  1.
       22    1    1    2    0    0  0.26282694339E-02  0.17923694133E-02 -0.65355639684E-02  0.72686989700E-02  0.00000000000E+00 0.  1.
       22    1    1    2    0    0 -0.18503609803E-02  0.24387970327E-02 -0.27880163380E-01  0.28047728550E-01  0.00000000000E+00 0.  1.
       22    1    1    2    0    0 -0.77790845357E-03 -0.42311664460E-02  0.34415727348E-01  0.34683572480E-01  0.00000000000E+00 0. -1.
</event>
<event>
 5   0  0.4143600E+04  0.9118800E+02  0.7546771E-02  0.1180000E+00
      -11   -1    0    0    0    0  0.00000000000E+00  0.00000000000E+00  0.34996269501E-01  0.35000000000E-01  0.51099999109E-03 0. -1.
       11   -1    0    0    0    0 -0.00000000000E+00 -0.00000000000E+00 -0.34996269501E-01  0.35000000000E-01  0.51099999109E-03 0. -1.
       22    1    1    2    0    0  0.57915146431E-03 -0.71731169439E-03 -0.18139188359E-02  0.20347614181E-02  0.00000000000E+00 0.  1.
       22    1    1    2    0    0 -0.11866245756E-02  0.14228808349E-02 -0.33043493408E-01  0.33095394307E-01  0.00000000000E+00 0. -1.
       22    1    1    2    0    0  0.60747311129E-03 -0.70556914051E-03  0.34857412244E-01  0.34869844275E-01  0.00000000000E+00 0. -1.
</event>
<event>
 5   0  0.4143600E+04  0.9118800E+02  0.7546771E-02  0.1180000E+00
      -11   -1    0    0    0    0  0.00000000000E+00  0.00000000000E+00  0.34996269501E-01  0.35000000000E-01  0.51099999109E-03 0.  1.
       11   -1    0    0    0    0 -0.00000000000E+00 -0.00000000000E+00 -0.34996269501E-01  0.35000000000E-01  0.51099999109E-03 0. -1.
       22    1    1    2    0    0 -0.79835486129E-03  0.11157161074E-02 -0.15974383603E-02  0.21057070622E-02  0.00000000000E+00 0.  1.
       22    1    1    2    0    0 -0.40405498062E-02  0.40458685889E-02  0.34127768488E-01  0.34603463372E-01  0.00000000000E+00 0.  1.
       22    1    1    2    0    0  0.48389046675E-02 -0.51615846963E-02 -0.32530330128E-01  0.33290829566E-01  0.00000000000E+00 0. -1.
</event>
<event>
 5   0  0.4143600E+04  0.9118800E+02  0.7546771E-02  0.1180000E+00
      -11   -1    0    0    0    0  0.00000000000E+00  0.00000000000E+00  0.34996269501E-01  0.35000000000E-01  0.51099999109E-03 0. -1.
       11   -1    0    0    0    0 -0.00000000000E+00 -0.00000000000E+00 -0.34996269501E-01  0.35000000000E-01  0.51099999109E-03 0.  1.
       22    1    1    2    0    0  0.56527754831E-02 -0.14565776561E-01 -0.28818102987E-01  0.32781073461E-01  0.00000000000E+00 0.  1.
       22    1    1    2    0    0 -0.15635512040E-03 -0.18014674666E-03 -0.23188396562E-02  0.23310763877E-02  0.00000000000E+00 0.  1.
       22    1    1    2    0    0 -0.54964203627E-02  0.14745923308E-01  0.31136942643E-01  0.34887850151E-01  0.00000000000E+00 0. -1.
</event>
<event>
 5   0  0.4143600E+04  0.9118800E+02  0.7546771E-02  0.1180000E+00
      -11   -1    0    0    0    0  0.00000000000E+00  0.00000000000E+00  0.34996269501E-01  0.35000000000E-01  0.51099999109E-03 0. -1.
       11   -1    0    0    0    0 -0.00000000000E+00 -0.00000000000E+00 -0.34996269501E-01  0.35000000000E-01  0.51099999109E-03 0.  1.
       22    1    1    2    0    0 -0.12988626561E-01 -0.19423131079E-01 -0.25787900594E-01  0.34799112890E-01  0.00000000000E+00 0.  1.
       22    1    1    2    0    0  0.19315042485E-02  0.12335259905E-02  0.92768082801E-03  0.24724252769E-02  0.00000000000E+00 0.  1.
       22    1    1    2    0    0  0.11057122313E-01  0.18189605089E-01  0.24860219766E-01  0.32728461833E-01  0.00000000000E+00 0. -1.
</event>
<event>
 5   0  0.4143600E+04  0.9118800E+02  0.7546771E-02  0.1180000E+00
      -11   -1    0    0    0    0  0.00000000000E+00  0.00000000000E+00  0.34996269501E-01  0.35000000000E-01  0.51099999109E-03 0. -1.
       11   -1    0    0    0    0 -0.00000000000E+00 -0.00000000000E+00 -0.34996269501E-01  0.35000000000E-01  0.51099999109E-03 0.  1.
       22    1    1    2    0    0 -0.13830647803E-01 -0.16553050044E-01 -0.25934634691E-01  0.33732707584E-01  0.00000000000E+00 0.  1.
       22    1    1    2    0    0  0.13046862855E-01  0.17441676129E-01  0.18033779258E-01  0.28278081457E-01  0.00000000000E+00 0. -1.
       22    1    1    2    0    0  0.78378494795E-03 -0.88862608553E-03  0.79008554333E-02  0.79892109587E-02  0.00000000000E+00 0. -1.
</event>
<event>
 5   0  0.4143600E+04  0.9118800E+02  0.7546771E-02  0.1180000E+00
      -11   -1    0    0    0    0  0.00000000000E+00  0.00000000000E+00  0.34996269501E-01  0.35000000000E-01  0.51099999109E-03 0. -1.
       11   -1    0    0    0    0 -0.00000000000E+00 -0.00000000000E+00 -0.34996269501E-01  0.35000000000E-01  0.51099999109E-03 0.  1.
       22    1    1    2    0    0 -0.68999521050E-02  0.11544240097E-02  0.31264170570E-01  0.32037328155E-01  0.00000000000E+00 0. -1.
       22    1    1    2    0    0  0.56779067220E-02  0.90921834821E-02 -0.19963283080E-01  0.22659194526E-01  0.00000000000E+00 0.  1.
       22    1    1    2    0    0  0.12220453830E-02 -0.10246607492E-01 -0.11300887490E-01  0.15303477319E-01  0.00000000000E+00 0.  1.
</event>
<event>
 5   0  0.4143600E+04  0.9118800E+02  0.7546771E-02  0.1180000E+00
      -11   -1    0    0    0    0  0.00000000000E+00  0.00000000000E+00  0.34996269501E-01  0.35000000000E-01  0.51099999109E-03 0.  1.
       11   -1    0    0    0    0 -0.00000000000E+00 -0.00000000000E+00 -0.34996269501E-01  0.35000000000E-01  0.51099999109E-03 0. -1.
       22    1    1    2    0    0 -0.19139498889E-01 -0.24472604618E-02 -0.28213563103E-01  0.34180617965E-01  0.00000000000E+00 0. -1.
       22    1    1    2    0    0 -0.50104594459E-03  0.20202103690E-03 -0.64368264494E-03  0.84034926390E-03  0.00000000000E+00 0. -1.
       22    1    1    2    0    0  0.19640544833E-01  0.22452394248E-02  0.28857245748E-01  0.34979032771E-01  0.00000000000E+00 0.  1.
</event>
<event>
 5   0  0.4143600E+04  0.9118800E+02  0.7546771E-02  0.1180000E+00
      -11   -1    0    0    0    0  0.00000000000E+00  0.00000000000E+00  0.34996269501E-01  0.35000000000E-01  0.51099999109E-03 0.  1.
       11   -1    0    0    0    0 -0.00000000000E+00 -0.00000000000E+00 -0.34996269501E-01  0.35000000000E-01  0.51099999109E-03 0. -1.
       22    1    1    2    0    0 -0.11592338666E-03 -0.22462506478E-03  0.19477821422E-02  0.19641155579E-02  0.00000000000E+00 0.  1.
       22    1    1    2    0    0  0.83245894670E-02 -0.14174450276E-01 -0.30714047582E-01  0.34836282082E-01  0.00000000000E+00 0. -1.
       22    1    1    2    0    0 -0.82086660803E-02  0.14399075341E-01  0.28766265440E-01  0.33199602360E-01  0.00000000000E+00 0.  1.
</event>
<event>
 5   0  0.4143600E+04  0.9118800E+02  0.7546771E-02  0.1180000E+00
      -11   -1    0    0    0    0  0.00000000000E+00  0.00000000000E+00  0.34996269501E-01  0.35000000000E-01  0.51099999109E-03 0.  1.
       11   -1    0    0    0    0 -0.00000000000E+00 -0.00000000000E+00 -0.34996269501E-01  0.35000000000E-01  0.51099999109E-03 0. -1.
       22    1    1    2    0    0 -0.13165116075E-01  0.10391035092E-01 -0.17157611777E-01  0.23993281006E-01  0.00000000000E+00 0. -1.
       22    1    1    2    0    0 -0.17190552151E-03 -0.64436322937E-03 -0.12254836529E-01  0.12272969234E-01  0.00000000000E+00 0. -1.
       22    1    1    2    0    0  0.13337021597E-01 -0.97466718624E-02  0.29412448306E-01  0.33733749759E-01  0.00000000000E+00 0.  1.
</event>
<event>
 5   0  0.4143600E+04  0.9118800E+02  0.7546771E-02  0.1180000E+00
      -11   -1    0    0    0    0  0.00000000000E+00  0.00000000000E+00  0.34996269501E-01  0.35000000000E-01  0.51099999109E-03 0. -1.
       11   -1    0    0    0    0 -0.00000000000E+00 -0.00000000000E+00 -0.34996269501E-01  0.35000000000E-01  0.51099999109E-03 0.  1.
       22    1    1    2    0    0  0.38656209175E-02 -0.23441209341E-02 -0.34391619624E-01  0.34687482301E-01  0.00000000000E+00 0.  1.
       22    1    1    2    0    0 -0.17395347546E-03 -0.10022632864E-03 -0.28818675664E-03  0.35122177507E-03  0.00000000000E+00 0. -1.
       22    1    1    2    0    0 -0.36916674420E-02  0.24443472628E-02  0.34679806381E-01  0.34961295924E-01  0.00000000000E+00 0. -1.
</event>
<event>
 5   0  0.4143600E+04  0.9118800E+02  0.7546771E-02  0.1180000E+00
      -11   -1    0    0    0    0  0.00000000000E+00  0.00000000000E+00  0.34996269501E-01  0.35000000000E-01  0.51099999109E-03 0. -1.
       11   -1    0    0    0    0 -0.00000000000E+00 -0.00000000000E+00 -0.34996269501E-01  0.35000000000E-01  0.51099999109E-03 0.  1.
       22    1    1    2    0    0 -0.11081652747E-01  0.39861463539E-02  0.32540486049E-01  0.34606005587E-01  0.00000000000E+00 0. -1.
       22    1    1    2    0    0  0.81921178684E-02 -0.61181087200E-02 -0.22032023022E-01  0.24288929328E-01  0.00000000000E+00 0.  1.
       22    1    1    2    0    0  0.28895348783E-02  0.21319623660E-02 -0.10508463027E-01  0.11105065085E-01  0.00000000000E+00 0. -1.
</event>
<event>
 5   0  0.4143600E+04  0.9118800E+02  0.7546771E-02  0.1180000E+00
      -11   -1    0    0    0    0  0.00000000000E+00  0.00000000000E+00  0.34996269501E-01  0.35000000000E-01  0.51099999109E-03 0.  1.
       11   -1    0    0    0    0 -0.00000000000E+00 -0.00000000000E+00 -0.34996269501E-01  0.35000000000E-01  0.51099999109E-03 0. -1.
       22    1    1    2    0    0 -0.25891542126E-02  0.61089852768E-02 -0.17296184990E-01  0.18525156838E-01  0.00000000000E+00 0. -1.
       22    1    1    2    0    0  0.14270631566E-02 -0.30657370812E-02 -0.16843748060E-01  0.17179845803E-01  0.00000000000E+00 0. -1.
       22    1    1    2    0    0  0.11620910559E-02 -0.30432481956E-02  0.34139933050E-01  0.34294997359E-01  0.00000000000E+00 0.  1.
</event>
<event>
 5   0  0.4143600E+04  0.9118800E+02  0.7546771E-02  0.1180000E+00
      -11   -1    0    0    0    0  0.00000000000E+00  0.00000000000E+00  0.34996269501E-01  0.35000000000E-01  0.51099999109E-03 0.  1.
       11   -1    0    0    0    0 -0.00000000000E+00 -0.00000000000E+00 -0.34996269501E-01  0.35000000000E-01  0.51099999109E-03 0. -1.
       22    1    1    2    0    0 -0.14508500002E-01  0.14383929582E-01 -0.27588865221E-01  0.34329862899E-01  0.00000000000E+00 0. -1.
       22    1    1    2    0    0  0.14494163323E-01 -0.14525458771E-01  0.22018321768E-01  0.30097777599E-01  0.00000000000E+00 0.  1.
       22    1    1    2    0    0  0.14336678708E-04  0.14152918879E-03  0.55705434529E-02  0.55723595013E-02  0.00000000000E+00 0. -1.
</event>
<event>
 5   0  0.4143600E+04  0.9118800E+02  0.7546771E-02  0.1180000E+00
      -11   -1    0    0    0    0  0.00000000000E+00  0.00000000000E+00  0.34996269501E-01  0.35000000000E-01  0.51099999109E-03 0. -1.
       11   -1    0    0    0    0 -0.00000000000E+00 -0.00000000000E+00 -0.34996269501E-01  0.35000000000E-01  0.51099999109E-03 0.  1.
       22    1    1    2    0    0  0.17442239670E-02  0.22764689772E-01  0.22001714582E-01  0.31707236748E-01  0.00000000000E+00 0. -1.
       22    1    1    2    0    0 -0.35742875356E-03 -0.17392006903E-01 -0.26120098028E-01  0.31382625455E-01  0.00000000000E+00 0.  1.
       22    1    1    2    0    0 -0.13867952134E-02 -0.53726828686E-02  0.41183834458E-02  0.69101377973E-02  0.00000000000E+00 0.  1.
</event>
<event>
 5   0  0.4143600E+04  0.9118800E+02  0.7546771E-02  0.1180000E+00
      -11   -1    0    0    0    0  0.00000000000E+00  0.00000000000E+00  0.34996269501E-01  0.35000000000E-01  0.51099999109E-03 0. -1.
       11   -1    0    0    0    0 -0.00000000000E+00 -0.00000000000E+00 -0.34996269501E-01  0.35000000000E-01  0.51099999109E-03 0.  1.
       22    1    1    2    0    0 -0.20710616226E-02 -0.11844070366E-01  0.32007435288E-01  0.34191332422E-01  0.00000000000E+00 0. -1.
       22    1    1    2    0    0 -0.33861390087E-04 -0.71116660770E-04  0.81925991832E-03  0.82303765827E-03  0.00000000000E+00 0. -1.
       22    1    1    2    0    0  0.21049230127E-02  0.11915187027E-01 -0.32826695206E-01  0.34985629920E-01  0.00000000000E+00 0.  1.
</event>
<event>
 5   0  0.4143600E+04  0.9118800E+02  0.7546771E-02  0.1180000E+00
      -11   -1    0    0    0    0  0.00000000000E+00  0.00000000000E+00  0.34996269501E-01  0.35000000000E-01  0.51099999109E-03 0. -1.
       11   -1    0    0    0    0 -0.00000000000E+00 -0.00000000000E+00 -0.34996269501E-01  0.35000000000E-01  0.51099999109E-03 0.  1.
       22    1    1    2    0    0 -0.89449017800E-02  0.79834214278E-02 -0.20881438333E-01  0.24078636846E-01  0.00000000000E+00 0.  1.
       22    1    1    2    0    0  0.70967749972E-02 -0.11676452804E-01  0.31603845969E-01  0.34431190010E-01  0.00000000000E+00 0. -1.
       22    1    1    2    0    0  0.18481267827E-02  0.36930313760E-02 -0.10722407637E-01  0.11490173144E-01  0.00000000000E+00 0.  1.
</event>
<event>
 5   0  0.4143600E+04  0.9118800E+02  0.7546771E-02  0.1180000E+00
      -11   -1    0    0    0    0  0.00000000000E+00  0.00000000000E+00  0.34996269501E-01  0.35000000000E-01  0.51099999109E-03 0.  1.
       11   -1    0    0    0    0 -0.00000000000E+00 -0.00000000000E+00 -0.34996269501E-01  0.35000000000E-01  0.51099999109E-03 0. -1.
       22    1    1    2    0    0 -0.28514791588E-02  0.63609439210E-03 -0.41285037165E-02  0.50576765818E-02  0.00000000000E+00 0.  1.
       22    1    1    2    0    0  0.19513097179E-02  0.12154710536E-02 -0.30332692091E-01  0.30419684236E-01  0.00000000000E+00 0. -1.
       22    1    1    2    0    0  0.90016944087E-03 -0.18515654457E-02  0.34461195808E-01  0.34522639182E-01  0.00000000000E+00 0.  1.
</event>
<event>
 5   0  0.4143600E+04  0.9118800E+02  0.7546771E-02  0.1180000E+00
      -11   -1    0    0    0    0  0.00000000000E+00  0.00000000000E+00  0.34996269501E-01  0.35000000000E-01  0.51099999109E-03 0.  1.
       11   -1    0    0    0    0 -0.00000000000E+00 -0.00000000000E+00 -0.34996269501E-01  0.35000000000E-01  0.51099999109E-03 0. -1.
       22    1    1    2    0    0  0.44815086577E-03  0.18176604431E-01 -0.23622228747E-01  0.29809385751E-01  0.00000000000E+00 0.  1.
       22    1    1    2    0    0  0.10635148488E-02 -0.17784839962E-01  0.13543129324E-02  0.17868009397E-01  0.00000000000E+00 0. -1.
       22    1    1    2    0    0 -0.15116657146E-02 -0.39176446977E-03  0.22267915815E-01  0.22322604852E-01  0.00000000000E+00 0.  1.
</event>
<event>
 5   0  0.4143600E+04  0.9118800E+02  0.7546771E-02  0.1180000E+00
      -11   -1    0    0    0    0  0.00000000000E+00  0.00000000000E+00  0.34996269501E-01  0.35000000000E-01  0.51099999109E-03 0.  1.
       11   -1    0    0    0    0 -0.00000000000E+00 -0.00000000000E+00 -0.34996269501E-01  0.35000000000E-01  0.51099999109E-03 0.  1.
       22    1    1    2    0    0  0.10810493159E-01 -0.20740450847E-03  0.72618248921E-03  0.10836840867E-01  0.00000000000E+00 0. -1.
       22    1    1    2    0    0 -0.10602926159E-03  0.53244872466E-03  0.28258271612E-01  0.28263486309E-01  0.00000000000E+00 0.  1.
       22    1    1    2    0    0 -0.10704463897E-01 -0.32504421619E-03 -0.28984454101E-01  0.30899672824E-01  0.00000000000E+00 0.  1.
</event>
<event>
 5   0  0.4143600E+04  0.9118800E+02  0.7546771E-02  0.1180000E+00
      -11   -1    0    0    0    0  0.00000000000E+00  0.00000000000E+00  0.34996269501E-01  0.35000000000E-01  0.51099999109E-03 0. -1.
       11   -1    0    0    0    0 -0.00000000000E+00 -0.00000000000E+00 -0.34996269501E-01  0.35000000000E-01  0.51099999109E-03 0.  1.
       22    1    1    2    0    0  0.10816821057E-01  0.14579960381E-01  0.19904992924E-01  0.26940445538E-01  0.00000000000E+00 0. -1.
       22    1    1    2    0    0  0.36808791792E-02  0.31833080031E-02  0.64801376180E-02  0.81039808071E-02  0.00000000000E+00 0. -1.
       22    1    1    2    0    0 -0.14497700236E-01 -0.17763268385E-01 -0.26385130542E-01  0.34955573655E-01  0.00000000000E+00 0.  1.
</event>
<event>
 5   0  0.4143600E+04  0.9118800E+02  0.7546771E-02  0.1180000E+00
      -11   -1    0    0    0    0  0.00000000000E+00  0.00000000000E+00  0.34996269501E-01  0.35000000000E-01  0.51099999109E-03 0. -1.
       11   -1    0    0    0    0 -0.00000000000E+00 -0.00000000000E+00 -0.34996269501E-01  0.35000000000E-01  0.51099999109E-03 0.  1.
       22    1    1    2    0    0 -0.45813239594E-02 -0.23352491933E-01 -0.23622207122E-01  0.33531121037E-01  0.00000000000E+00 0.  1.
       22    1    1    2    0    0  0.38005199901E-02  0.24234789371E-01  0.24743333618E-01  0.34842524688E-01  0.00000000000E+00 0. -1.
       22    1    1    2    0    0  0.78080396923E-03 -0.88229743839E-03 -0.11211264959E-02  0.16263542750E-02  0.00000000000E+00 0.  1.
</event>
<event>
 5   0  0.4143600E+04  0.9118800E+02  0.7546771E-02  0.1180000E+00
      -11   -1    0    0    0    0  0.00000000000E+00  0.00000000000E+00  0.34996269501E-01  0.35000000000E-01  0.51099999109E-03 0. -1.
       11   -1    0    0    0    0 -0.00000000000E+00 -0.00000000000E+00 -0.34996269501E-01  0.35000000000E-01  0.51099999109E-03 0.  1.
       22    1    1    2    0    0 -0.42897457309E-02 -0.77107821400E-02 -0.21802542260E-02  0.90890917113E-02  0.00000000000E+00 0. -1.
       22    1    1    2    0    0  0.16707585024E-01 -0.73486038026E-02  0.24954172382E-01  0.30916922461E-01  0.00000000000E+00 0. -1.
       22    1    1    2    0    0 -0.12417839293E-01  0.15059385943E-01 -0.22773918156E-01  0.29993985828E-01  0.00000000000E+00 0.  1.
</event>
<event>
 5   0  0.4143600E+04  0.9118800E+02  0.7546771E-02  0.1180000E+00
      -11   -1    0    0    0    0  0.00000000000E+00  0.00000000000E+00  0.34996269501E-01  0.35000000000E-01  0.51099999109E-03 0. -1.
       11   -1    0    0    0    0 -0.00000000000E+00 -0.00000000000E+00 -0.34996269501E-01  0.35000000000E-01  0.51099999109E-03 0.  1.
       22    1    1    2    0    0  0.39297268980E-02  0.60952862257E-02 -0.10359684081E-01  0.12645881619E-01  0.00000000000E+00 0.  1.
       22    1    1    2    0    0 -0.66359821516E-02 -0.61585523215E-02  0.33170212263E-01  0.34383528140E-01  0.00000000000E+00 0. -1.
       22    1    1    2    0    0  0.27062552536E-02  0.63266095800E-04 -0.22810528182E-01  0.22970590241E-01  0.00000000000E+00 0.  1.
</event>
<event>
 5   0  0.4143600E+04  0.9118800E+02  0.7546771E-02  0.1180000E+00
      -11   -1    0    0    0    0  0.00000000000E+00  0.00000000000E+00  0.34996269501E-01  0.35000000000E-01  0.51099999109E-03 0.  1.
       11   -1    0    0    0    0 -0.00000000000E+00 -0.00000000000E+00 -0.34996269501E-01  0.35000000000E-01  0.51099999109E-03 0. -1.
       22    1    1    2    0    0 -0.10940931162E-01 -0.87095079340E-02  0.31844527382E-01  0.34779784751E-01  0.00000000000E+00 0.  1.
       22    1    1    2    0    0  0.36713262282E-03 -0.53585825931E-03 -0.37985781776E-02  0.38537159481E-02  0.00000000000E+00 0.  1.
       22    1    1    2    0    0  0.10573798539E-01  0.92453661933E-02 -0.28045949205E-01  0.31366499301E-01  0.00000000000E+00 0. -1.
</event>
<event>
 5   0  0.4143600E+04  0.9118800E+02  0.7546771E-02  0.1180000E+00
      -11   -1    0    0    0    0  0.00000000000E+00  0.00000000000E+00  0.34996269501E-01  0.35000000000E-01  0.51099999109E-03 0.  1.
       11   -1    0    0    0    0 -0.00000000000E+00 -0.00000000000E+00 -0.34996269501E-01  0.35000000000E-01  0.51099999109E-03 0.  1.
       22    1    1    2    0    0 -0.55684608363E-03 -0.17978592713E-03 -0.34090610484E-01  0.34095632033E-01  0.00000000000E+00 0.  1.
       22    1    1    2    0    0  0.00000000000E+00  0.00000000000E+00  0.34904927702E-01  0.34901615220E-01  0.00000000000E+00 0.  1.
       22    1    1    2    0    0  0.55684608363E-03  0.17978592713E-03 -0.81431721782E-03  0.10027527470E-02  0.00000000000E+00 0.  1.
</event>
<event>
 5   0  0.4143600E+04  0.9118800E+02  0.7546771E-02  0.1180000E+00
      -11   -1    0    0    0    0  0.00000000000E+00  0.00000000000E+00  0.34996269501E-01  0.35000000000E-01  0.51099999109E-03 0.  1.
       11   -1    0    0    0    0 -0.00000000000E+00 -0.00000000000E+00 -0.34996269501E-01  0.35000000000E-01  0.51099999109E-03 0. -1.
       22    1    1    2    0    0 -0.10974779105E-03  0.35380512716E-03 -0.96153659723E-03  0.10304248024E-02  0.00000000000E+00 0.  1.
       22    1    1    2    0    0  0.73695102862E-03  0.39731303457E-03  0.34953502033E-01  0.34963527551E-01  0.00000000000E+00 0.  1.
       22    1    1    2    0    0 -0.62720323757E-03 -0.75111816173E-03 -0.33991965435E-01  0.34006047647E-01  0.00000000000E+00 0. -1.
</event>
<event>
 5   0  0.4143600E+04  0.9118800E+02  0.7546771E-02  0.1180000E+00
      -11   -1    0    0    0    0  0.00000000000E+00  0.00000000000E+00  0.34996269501E-01  0.35000000000E-01  0.51099999109E-03 0. -1.
       11   -1    0    0    0    0 -0.00000000000E+00 -0.00000000000E+00 -0.34996269501E-01  0.35000000000E-01  0.51099999109E-03 0.  1.
       22    1    1    2    0    0 -0.24743644812E-01 -0.12801871241E-02  0.23399686078E-01  0.34079790877E-01  0.00000000000E+00 0. -1.
       22    1    1    2    0    0  0.14213971094E-04 -0.14286989065E-04  0.10913938852E-02  0.10915799411E-02  0.00000000000E+00 0. -1.
       22    1    1    2    0    0  0.24729430841E-01  0.12944741132E-02 -0.24491079963E-01  0.34828629182E-01  0.00000000000E+00 0.  1.
</event>
<event>
 5   0  0.4143600E+04  0.9118800E+02  0.7546771E-02  0.1180000E+00
      -11   -1    0    0    0    0  0.00000000000E+00  0.00000000000E+00  0.34996269501E-01  0.35000000000E-01  0.51099999109E-03 0. -1.
       11   -1    0    0    0    0 -0.00000000000E+00 -0.00000000000E+00 -0.34996269501E-01  0.35000000000E-01  0.51099999109E-03 0.  1.
       22    1    1    2    0    0  0.19265150135E-02  0.17965857565E-02  0.34222497262E-01  0.34323730848E-01  0.00000000000E+00 0. -1.
       22    1    1    2    0    0  0.15528054074E-02  0.26589283645E-02 -0.47096880671E-02  0.56269233485E-02  0.00000000000E+00 0. -1.
       22    1    1    2    0    0 -0.34793204209E-02 -0.44555141209E-02 -0.29512809195E-01  0.30049345804E-01  0.00000000000E+00 0.  1.
</event>
<event>
 5   0  0.4143600E+04  0.9118800E+02  0.7546771E-02  0.1180000E+00
      -11   -1    0    0    0    0  0.00000000000E+00  0.00000000000E+00  0.34996269501E-01  0.35000000000E-01  0.51099999109E-03 0.  1.
       11   -1    0    0    0    0 -0.00000000000E+00 -0.00000000000E+00 -0.34996269501E-01  0.35000000000E-01  0.51099999109E-03 0. -1.
       22    1    1    2    0    0 -0.11948029704E-01 -0.95156493115E-03 -0.32126104922E-01  0.34289174779E-01  0.00000000000E+00 0. -1.
       22    1    1    2    0    0  0.20756552516E-02  0.76975016030E-03  0.19772333074E-01  0.19895879353E-01  0.00000000000E+00 0.  1.
       22    1    1    2    0    0  0.98723744523E-02  0.18181477086E-03  0.12353771848E-01  0.15814945868E-01  0.00000000000E+00 0.  1.
</event>
<event>
 5   0  0.4143600E+04  0.9118800E+02  0.7546771E-02  0.1180000E+00
      -11   -1    0    0    0    0  0.00000000000E+00  0.00000000000E+00  0.34996269501E-01  0.35000000000E-01  0.51099999109E-03 0.  1.
       11   -1    0    0    0    0 -0.00000000000E+00 -0.00000000000E+00 -0.34996269501E-01  0.35000000000E-01  0.51099999109E-03 0. -1.
       22    1    1    2    0    0 -0.35429729406E-02 -0.16839989481E-01  0.30281234292E-01  0.34829456688E-01  0.00000000000E+00 0.  1.
       22    1    1    2    0    0  0.23565206782E-03  0.26342759250E-04 -0.26263095710E-02  0.26369921882E-02  0.00000000000E+00 0. -1.
       22    1    1    2    0    0  0.33073208728E-02  0.16813646721E-01 -0.27654924721E-01  0.32533551124E-01  0.00000000000E+00 0. -1.
</event>
<event>
 5   0  0.4143600E+04  0.9118800E+02  0.7546771E-02  0.1180000E+00
      -11   -1    0    0    0    0  0.00000000000E+00  0.00000000000E+00  0.34996269501E-01  0.35000000000E-01  0.51099999109E-03 0.  1.
       11   -1    0    0    0    0 -0.00000000000E+00 -0.00000000000E+00 -0.34996269501E-01  0.35000000000E-01  0.51099999109E-03 0. -1.
       22    1    1    2    0    0 -0.48154299929E-02  0.26240824715E-02 -0.33479783829E-01  0.33925950246E-01  0.00000000000E+00 0. -1.
       22    1    1    2    0    0  0.82647220289E-03 -0.73148218321E-04 -0.98366784514E-03  0.12868602852E-02  0.00000000000E+00 0. -1.
       22    1    1    2    0    0  0.39889577900E-02 -0.25509342532E-02  0.34463451675E-01  0.34787189469E-01  0.00000000000E+00 0.  1.
</event>
<event>
 5   0  0.4143600E+04  0.9118800E+02  0.7546771E-02  0.1180000E+00
      -11   -1    0    0    0    0  0.00000000000E+00  0.00000000000E+00  0.34996269501E-01  0.35000000000E-01  0.51099999109E-03 0.  1.
       11   -1    0    0    0    0 -0.00000000000E+00 -0.00000000000E+00 -0.34996269501E-01  0.35000000000E-01  0.51099999109E-03 0. -1.
       22    1    1    2    0    0  0.75979918963E-02 -0.11905955199E-01  0.18464434950E-02  0.14243967272E-01  0.00000000000E+00 0.  1.
       22    1    1    2    0    0 -0.16620957750E-02 -0.61660423446E-03  0.25254898553E-01  0.25317042957E-01  0.00000000000E+00 0.  1.
       22    1    1    2    0    0 -0.59358961213E-02  0.12522559433E-01 -0.27101342048E-01  0.30438989772E-01  0.00000000000E+00 0. -1.
</event>
<event>
 5   0  0.4143600E+04  0.9118800E+02  0.7546771E-02  0.1180000E+00
      -11   -1    0    0    0    0  0.00000000000E+00  0.00000000000E+00  0.34996269501E-01  0.35000000000E-01  0.51099999109E-03 0.  1.
       11   -1    0    0    0    0 -0.00000000000E+00 -0.00000000000E+00 -0.34996269501E-01  0.35000000000E-01  0.51099999109E-03 0. -1.
       22    1    1    2    0    0 -0.81500814110E-03 -0.16032737361E-02 -0.33018305431E-01  0.33067252962E-01  0.00000000000E+00 0. -1.
       22    1    1    2    0    0 -0.62436964989E-03  0.57074329149E-03 -0.18422661962E-02  0.20271975982E-02  0.00000000000E+00 0. -1.
       22    1    1    2    0    0  0.14393777910E-02  0.10325304446E-02  0.34860571627E-01  0.34905549440E-01  0.00000000000E+00 0.  1.
</event>
<event>
 5   0  0.4143600E+04  0.9118800E+02  0.7546771E-02  0.1180000E+00
      -11   -1    0    0    0    0  0.00000000000E+00  0.00000000000E+00  0.34996269501E-01  0.35000000000E-01  0.51099999109E-03 0.  1.
       11   -1    0    0    0    0 -0.00000000000E+00 -0.00000000000E+00 -0.34996269501E-01  0.35000000000E-01  0.51099999109E-03 0. -1.
       22    1    1    2    0    0  0.14093326023E-01 -0.94630078527E-02  0.28427234836E-01  0.33110089647E-01  0.00000000000E+00 0.  1.
       22    1    1    2    0    0 -0.14334539217E-01  0.95668176055E-02 -0.30375604998E-01  0.34923922928E-01  0.00000000000E+00 0. -1.
       22    1    1    2    0    0  0.24121319445E-03 -0.10380975277E-03  0.19483701615E-02  0.19659874252E-02  0.00000000000E+00 0. -1.
</event>
<event>
 5   0  0.4143600E+04  0.9118800E+02  0.7546771E-02  0.1180000E+00
      -11   -1    0    0    0    0  0.00000000000E+00  0.00000000000E+00  0.34996269501E-01  0.35000000000E-01  0.51099999109E-03 0. -1.
       11   -1    0    0    0    0 -0.00000000000E+00 -0.00000000000E+00 -0.34996269501E-01  0.35000000000E-01  0.51099999109E-03 0.  1.
       22    1    1    2    0    0 -0.37496909133E-04  0.31463819129E-04  0.41387664771E-03  0.41676116617E-03  0.00000000000E+00 0.  1.
       22    1    1    2    0    0 -0.16241739710E-01 -0.74825134118E-02  0.29630797771E-01  0.34608760341E-01  0.00000000000E+00 0. -1.
       22    1    1    2    0    0  0.16279236619E-01  0.74510495927E-02 -0.30044674419E-01  0.34974478493E-01  0.00000000000E+00 0.  1.
</event>
<event>
 5   0  0.4143600E+04  0.9118800E+02  0.7546771E-02  0.1180000E+00
      -11   -1    0    0    0    0  0.00000000000E+00  0.00000000000E+00  0.34996269501E-01  0.35000000000E-01  0.51099999109E-03 0. -1.
       11   -1    0    0    0    0 -0.00000000000E+00 -0.00000000000E+00 -0.34996269501E-01  0.35000000000E-01  0.51099999109E-03 0.  1.
       22    1    1    2    0    0 -0.91807760601E-02  0.14545072011E-01 -0.30442952093E-01  0.34965970615E-01  0.00000000000E+00 0.  1.
       22    1    1    2    0    0 -0.22817251273E-04 -0.41250435678E-04  0.58954445015E-03  0.59142614424E-03  0.00000000000E+00 0.  1.
       22    1    1    2    0    0  0.92035933114E-02 -0.14503821576E-01  0.29853407643E-01  0.34442603241E-01  0.00000000000E+00 0. -1.
</event>
<event>
 5   0  0.4143600E+04  0.9118800E+02  0.7546771E-02  0.1180000E+00
      -11   -1    0    0    0    0  0.00000000000E+00  0.00000000000E+00  0.34996269501E-01  0.35000000000E-01  0.51099999109E-03 0. -1.
       11   -1    0    0    0    0 -0.00000000000E+00 -0.00000000000E+00 -0.34996269501E-01  0.35000000000E-01  0.51099999109E-03 0.  1.
       22    1    1    2    0    0 -0.19888651582E-02 -0.11952770413E-01  0.29685976451E-01  0.32063710063E-01  0.00000000000E+00 0. -1.
       22    1    1    2    0    0 -0.34449574385E-02 -0.39199600209E-02 -0.14107441357E-01  0.15041732611E-01  0.00000000000E+00 0.  1.
       22    1    1    2    0    0  0.54338225967E-02  0.15872730433E-01 -0.15578535095E-01  0.22894557325E-01  0.00000000000E+00 0.  1.
</event>
<event>
 5   0  0.4143600E+04  0.9118800E+02  0.7546771E-02  0.1180000E+00
      -11   -1    0    0    0    0  0.00000000000E+00  0.00000000000E+00  0.34996269501E-01  0.35000000000E-01  0.51099999109E-03 0. -1.
       11   -1    0    0    0    0 -0.00000000000E+00 -0.00000000000E+00 -0.34996269501E-01  0.35000000000E-01  0.51099999109E-03 0.  1.
       22    1    1    2    0    0  0.19807679498E-01  0.49540763715E-02 -0.27902607268E-01  0.34575172192E-01  0.00000000000E+00 0.  1.
       22    1    1    2    0    0 -0.19902973973E-01 -0.51009329919E-02  0.28310787875E-01  0.34980688965E-01  0.00000000000E+00 0. -1.
       22    1    1    2    0    0  0.95294474843E-04  0.14685662044E-03 -0.40818060697E-03  0.44413884294E-03  0.00000000000E+00 0.  1.
</event>
<event>
 5   0  0.4143600E+04  0.9118800E+02  0.7546771E-02  0.1180000E+00
      -11   -1    0    0    0    0  0.00000000000E+00  0.00000000000E+00  0.34996269501E-01  0.35000000000E-01  0.51099999109E-03 0.  1.
       11   -1    0    0    0    0 -0.00000000000E+00 -0.00000000000E+00 -0.34996269501E-01  0.35000000000E-01  0.51099999109E-03 0. -1.
       22    1    1    2    0    0  0.19581671719E-03 -0.40246993836E-03  0.86548659633E-04  0.45586939851E-03  0.00000000000E+00 0.  1.
       22    1    1    2    0    0  0.17615181421E-01 -0.13455809049E-01  0.26580069352E-01  0.34610020231E-01  0.00000000000E+00 0.  1.
       22    1    1    2    0    0 -0.17810998138E-01  0.13858278988E-01 -0.26666618012E-01  0.34934110370E-01  0.00000000000E+00 0. -1.
</event>
<event>
 5   0  0.4143600E+04  0.9118800E+02  0.7546771E-02  0.1180000E+00
      -11   -1    0    0    0    0  0.00000000000E+00  0.00000000000E+00  0.34996269501E-01  0.35000000000E-01  0.51099999109E-03 0.  1.
       11   -1    0    0    0    0 -0.00000000000E+00 -0.00000000000E+00 -0.34996269501E-01  0.35000000000E-01  0.51099999109E-03 0. -1.
       22    1    1    2    0    0 -0.71137185720E-03 -0.36694943217E-03 -0.19211684445E-02  0.20812472216E-02  0.00000000000E+00 0. -1.
       22    1    1    2    0    0 -0.20473271035E-02  0.27744972241E-02  0.34732759728E-01  0.34903495262E-01  0.00000000000E+00 0.  1.
       22    1    1    2    0    0  0.27586989607E-02 -0.24075477919E-02 -0.32811591284E-01  0.33015257517E-01  0.00000000000E+00 0. -1.
</event>
<event>
 5   0  0.4143600E+04  0.9118800E+02  0.7546771E-02  0.1180000E+00
      -11   -1    0    0    0    0  0.00000000000E+00  0.00000000000E+00  0.34996269501E-01  0.35000000000E-01  0.51099999109E-03 0.  1.
       11   -1    0    0    0    0 -0.00000000000E+00 -0.00000000000E+00 -0.34996269501E-01  0.35000000000E-01  0.51099999109E-03 0. -1.
       22    1    1    2    0    0  0.18316297230E-01  0.41301176857E-02 -0.29356156252E-01  0.34847216907E-01  0.00000000000E+00 0. -1.
       22    1    1    2    0    0 -0.43512501440E-03  0.28887669697E-03  0.27118725345E-02  0.27617089216E-02  0.00000000000E+00 0. -1.
       22    1    1    2    0    0 -0.17881172215E-01 -0.44189943827E-02  0.26644283717E-01  0.32391074171E-01  0.00000000000E+00 0.  1.
</event>
<event>
 5   0  0.4143600E+04  0.9118800E+02  0.7546771E-02  0.1180000E+00
      -11   -1    0    0    0    0  0.00000000000E+00  0.00000000000E+00  0.34996269501E-01  0.35000000000E-01  0.51099999109E-03 0. -1.
       11   -1    0    0    0    0 -0.00000000000E+00 -0.00000000000E+00 -0.34996269501E-01  0.35000000000E-01  0.51099999109E-03 0.  1.
       22    1    1    2    0    0  0.14963868367E-04  0.44268917290E-03 -0.16591806398E-02  0.17172879830E-02  0.00000000000E+00 0. -1.
       22    1    1    2    0    0  0.11879441775E-01  0.29615674018E-02  0.32673401662E-01  0.34891878633E-01  0.00000000000E+00 0. -1.
       22    1    1    2    0    0 -0.11894405643E-01 -0.34042565747E-02 -0.31014221023E-01  0.33390833384E-01  0.00000000000E+00 0.  1.
</event>
<event>
 5   0  0.4143600E+04  0.9118800E+02  0.7546771E-02  0.1180000E+00
      -11   -1    0    0    0    0  0.00000000000E+00  0.00000000000E+00  0.34996269501E-01  0.35000000000E-01  0.51099999109E-03 0. -1.
       11   -1    0    0    0    0 -0.00000000000E+00 -0.00000000000E+00 -0.34996269501E-01  0.35000000000E-01  0.51099999109E-03 0.  1.
       22    1    1    2    0    0 -0.15955576057E-03  0.83611915674E-04  0.34962944173E-01  0.34963408219E-01  0.00000000000E+00 0. -1.
       22    1    1    2    0    0 -0.16065357324E-03  0.38798169557E-04 -0.34197376680E-01  0.34197776048E-01  0.00000000000E+00 0.  1.
       22    1    1    2    0    0  0.32020933381E-03 -0.12241008523E-03 -0.76556749348E-03  0.83881573274E-03  0.00000000000E+00 0. -1.
</event>
<event>
 5   0  0.4143600E+04  0.9118800E+02  0.7546771E-02  0.1180000E+00
      -11   -1    0    0    0    0  0.00000000000E+00  0.00000000000E+00  0.34996269501E-01  0.35000000000E-01  0.51099999109E-03 0. -1.
       11   -1    0    0    0    0 -0.00000000000E+00 -0.00000000000E+00 -0.34996269501E-01  0.35000000000E-01  0.51099999109E-03 0. -1.
       22    1    1    2    0    0 -0.14710632783E-02 -0.11036368037E-02 -0.26652783245E-02  0.32381707661E-02  0.00000000000E+00 0.  1.
       22    1    1    2    0    0  0.37481900897E-03  0.11759698624E-02 -0.32027693209E-01  0.32051466842E-01  0.00000000000E+00 0. -1.
       22    1    1    2    0    0  0.10962442693E-02 -0.72333058772E-04  0.34692971534E-01  0.34710362392E-01  0.00000000000E+00 0. -1.
</event>
<event>
 5   0  0.4143600E+04  0.9118800E+02  0.7546771E-02  0.1180000E+00
      -11   -1    0    0    0    0  0.00000000000E+00  0.00000000000E+00  0.34996269501E-01  0.35000000000E-01  0.51099999109E-03 0.  1.
       11   -1    0    0    0    0 -0.00000000000E+00 -0.00000000000E+00 -0.34996269501E-01  0.35000000000E-01  0.51099999109E-03 0. -1.
       22    1    1    2    0    0 -0.15498410582E-02 -0.84640031237E-03 -0.34460578871E-01  0.34505795121E-01  0.00000000000E+00 0. -1.
       22    1    1    2    0    0 -0.27165945401E-03  0.93658094154E-05 -0.45021274278E-03  0.52590692247E-03  0.00000000000E+00 0.  1.
       22    1    1    2    0    0  0.18215005122E-02  0.83703450296E-03  0.34910791614E-01  0.34968297957E-01  0.00000000000E+00 0.  1.
</event>
<event>
 5   0  0.4143600E+04  0.9118800E+02  0.7546771E-02  0.1180000E+00
      -11   -1    0    0    0    0  0.00000000000E+00  0.00000000000E+00  0.34996269501E-01  0.35000000000E-01  0.51099999109E-03 0. -1.
       11   -1    0    0    0    0 -0.00000000000E+00 -0.00000000000E+00 -0.34996269501E-01  0.35000000000E-01  0.51099999109E-03 0.  1.
       22    1    1    2    0    0  0.11479393125E-03 -0.19852943976E-03 -0.29579305766E-03  0.37427946519E-03  0.00000000000E+00 0. -1.
       22    1    1    2    0    0 -0.97980665817E-02  0.11509575077E-01 -0.31265979278E-01  0.34727998609E-01  0.00000000000E+00 0.  1.
       22    1    1    2    0    0  0.96832726505E-02 -0.11311045637E-01  0.31561772336E-01  0.34897721926E-01  0.00000000000E+00 0. -1.
</event>
<event>
 5   0  0.4143600E+04  0.9118800E+02  0.7546771E-02  0.1180000E+00
      -11   -1    0    0    0    0  0.00000000000E+00  0.00000000000E+00  0.34996269501E-01  0.35000000000E-01  0.51099999109E-03 0. -1.
       11   -1    0    0    0    0 -0.00000000000E+00 -0.00000000000E+00 -0.34996269501E-01  0.35000000000E-01  0.51099999109E-03 0.  1.
       22    1    1    2    0    0 -0.61079251555E-04 -0.19418640261E-04 -0.33158546411E-03  0.33772278361E-03  0.00000000000E+00 0. -1.
       22    1    1    2    0    0 -0.96392767133E-02 -0.17370808046E-01 -0.28428162910E-01  0.34681710946E-01  0.00000000000E+00 0.  1.
       22    1    1    2    0    0  0.97003559648E-02  0.17390226686E-01  0.28759748374E-01  0.34980566270E-01  0.00000000000E+00 0. -1.
</event>
<event>
 5   0  0.4143600E+04  0.9118800E+02  0.7546771E-02  0.1180000E+00
      -11   -1    0    0    0    0  0.00000000000E+00  0.00000000000E+00  0.34996269501E-01  0.35000000000E-01  0.51099999109E-03 0. -1.
       11   -1    0    0    0    0 -0.00000000000E+00 -0.00000000000E+00 -0.34996269501E-01  0.35000000000E-01  0.51099999109E-03 0. -1.
       22    1    1    2    0    0  0.14268080811E-03  0.22952152509E-03  0.34830440042E-01  0.34831488504E-01  0.00000000000E+00 0. -1.
       22    1    1    2    0    0  0.74033432811E-03 -0.14954884166E-02 -0.45100452504E-02  0.48088552361E-02  0.00000000000E+00 0. -1.
       22    1    1    2    0    0 -0.88301513622E-03  0.12659668915E-02 -0.30320394791E-01  0.30359656259E-01  0.00000000000E+00 0.  1.
</event>
<event>
 5   0  0.4143600E+04  0.9118800E+02  0.7546771E-02  0.1180000E+00
      -11   -1    0    0    0    0  0.00000000000E+00  0.00000000000E+00  0.34996269501E-01  0.35000000000E-01  0.51099999109E-03 0. -1.
       11   -1    0    0    0    0 -0.00000000000E+00 -0.00000000000E+00 -0.34996269501E-01  0.35000000000E-01  0.51099999109E-03 0.  1.
       22    1    1    2    0    0  0.24358200278E-02  0.11257578776E-01 -0.30905770524E-01  0.32982312696E-01  0.00000000000E+00 0.  1.
       22    1    1    2    0    0 -0.28902212320E-02 -0.10832636461E-01  0.32989745812E-01  0.34842828820E-01  0.00000000000E+00 0. -1.
       22    1    1    2    0    0  0.45440120413E-03 -0.42494231529E-03 -0.20839752873E-02  0.21748584836E-02  0.00000000000E+00 0. -1.
</event>
<event>
 5   0  0.4143600E+04  0.9118800E+02  0.7546771E-02  0.1180000E+00
      -11   -1    0    0    0    0  0.00000000000E+00  0.00000000000E+00  0.34996269501E-01  0.35000000000E-01  0.51099999109E-03 0.  1.
       11   -1    0    0    0    0 -0.00000000000E+00 -0.00000000000E+00 -0.34996269501E-01  0.35000000000E-01  0.51099999109E-03 0. -1.
       22    1    1    2    0    0  0.12181565157E-01 -0.21163123648E-02  0.32098137717E-01  0.34397089304E-01  0.00000000000E+00 0.  1.
       22    1    1    2    0    0  0.35181484253E-03 -0.18898052784E-02 -0.21060190452E-02  0.28513950783E-02  0.00000000000E+00 0. -1.
       22    1    1    2    0    0 -0.12533380000E-01  0.40061176432E-02 -0.29992118672E-01  0.32751515617E-01  0.00000000000E+00 0. -1.
</event>
<event>
 5   0  0.4143600E+04  0.9118800E+02  0.7546771E-02  0.1180000E+00
      -11   -1    0    0    0    0  0.00000000000E+00  0.00000000000E+00  0.34996269501E-01  0.35000000000E-01  0.51099999109E-03 0.  1.
       11   -1    0    0    0    0 -0.00000000000E+00 -0.00000000000E+00 -0.34996269501E-01  0.35000000000E-01  0.51099999109E-03 0. -1.
       22    1    1    2    0    0 -0.32237674732E-02  0.97521375400E-02  0.33185922229E-01  0.34739060113E-01  0.00000000000E+00 0.  1.
       22    1    1    2    0    0 -0.79107553758E-03 -0.79234623724E-04 -0.72027182978E-02  0.72464632414E-02  0.00000000000E+00 0.  1.
       22    1    1    2    0    0  0.40148430108E-02 -0.96729029162E-02 -0.25983203931E-01  0.28014476646E-01  0.00000000000E+00 0. -1.
</event>
<event>
 5   0  0.4143600E+04  0.9118800E+02  0.7546771E-02  0.1180000E+00
      -11   -1    0    0    0    0  0.00000000000E+00  0.00000000000E+00  0.34996269501E-01  0.35000000000E-01  0.51099999109E-03 0.  1.
       11   -1    0    0    0    0 -0.00000000000E+00 -0.00000000000E+00 -0.34996269501E-01  0.35000000000E-01  0.51099999109E-03 0. -1.
       22    1    1    2    0    0  0.45624105476E-02 -0.15340604203E-01 -0.31108272073E-01  0.34983915142E-01  0.00000000000E+00 0. -1.
       22    1    1    2    0    0 -0.45437553392E-02  0.14519897330E-01  0.28899113392E-01  0.32659330763E-01  0.00000000000E+00 0.  1.
       22    1    1    2    0    0 -0.18655208385E-04  0.82070687324E-03  0.22091586811E-02  0.23567540956E-02  0.00000000000E+00 0. -1.
</event>
<event>
 5   0  0.4143600E+04  0.9118800E+02  0.7546771E-02  0.1180000E+00
      -11   -1    0    0    0    0  0.00000000000E+00  0.00000000000E+00  0.34996269501E-01  0.35000000000E-01  0.51099999109E-03 0. -1.
       11   -1    0    0    0    0 -0.00000000000E+00 -0.00000000000E+00 -0.34996269501E-01  0.35000000000E-01  0.51099999109E-03 0.  1.
       22    1    1    2    0    0  0.92339543073E-02 -0.57466201243E-02 -0.27090345437E-01  0.29192060066E-01  0.00000000000E+00 0.  1.
       22    1    1    2    0    0 -0.28759214399E-03  0.36953401182E-03 -0.60472258084E-02  0.60653280707E-02  0.00000000000E+00 0.  1.
       22    1    1    2    0    0 -0.89463621633E-02  0.53770861125E-02  0.33137571246E-01  0.34742611863E-01  0.00000000000E+00 0. -1.
</event>
<event>
 5   0  0.4143600E+04  0.9118800E+02  0.7546771E-02  0.1180000E+00
      -11   -1    0    0    0    0  0.00000000000E+00  0.00000000000E+00  0.34996269501E-01  0.35000000000E-01  0.51099999109E-03 0. -1.
       11   -1    0    0    0    0 -0.00000000000E+00 -0.00000000000E+00 -0.34996269501E-01  0.35000000000E-01  0.51099999109E-03 0.  1.
       22    1    1    2    0    0 -0.71076960196E-02  0.15756238527E-02 -0.33931212767E-01  0.34703445550E-01  0.00000000000E+00 0.  1.
       22    1    1    2    0    0  0.73265168501E-04  0.17728998425E-03 -0.27236259581E-03  0.33313796996E-03  0.00000000000E+00 0.  1.
       22    1    1    2    0    0  0.70344308511E-02 -0.17529138370E-02  0.34203575363E-01  0.34963416480E-01  0.00000000000E+00 0. -1.
</event>
<event>
 5   0  0.4143600E+04  0.9118800E+02  0.7546771E-02  0.1180000E+00
      -11   -1    0    0    0    0  0.00000000000E+00  0.00000000000E+00  0.34996269501E-01  0.35000000000E-01  0.51099999109E-03 0.  1.
       11   -1    0    0    0    0 -0.00000000000E+00 -0.00000000000E+00 -0.34996269501E-01  0.35000000000E-01  0.51099999109E-03 0. -1.
       22    1    1    2    0    0  0.89302021187E-02  0.75547217418E-02  0.27350203328E-01  0.29746528412E-01  0.00000000000E+00 0.  1.
       22    1    1    2    0    0  0.19990401286E-03 -0.32363869501E-03  0.54415423858E-02  0.54548223762E-02  0.00000000000E+00 0.  1.
       22    1    1    2    0    0 -0.91301061316E-02 -0.72310830468E-02 -0.32791745714E-01  0.34798649212E-01  0.00000000000E+00 0. -1.
</event>
<event>
 5   0  0.4143600E+04  0.9118800E+02  0.7546771E-02  0.1180000E+00
      -11   -1    0    0    0    0  0.00000000000E+00  0.00000000000E+00  0.34996269501E-01  0.35000000000E-01  0.51099999109E-03 0. -1.
       11   -1    0    0    0    0 -0.00000000000E+00 -0.00000000000E+00 -0.34996269501E-01  0.35000000000E-01  0.51099999109E-03 0.  1.
       22    1    1    2    0    0  0.15709218646E-01 -0.40301023822E-02 -0.30969659148E-01  0.34959134192E-01  0.00000000000E+00 0.  1.
       22    1    1    2    0    0 -0.15736579324E-01  0.40098662507E-02  0.30360736659E-01  0.34430993111E-01  0.00000000000E+00 0. -1.
       22    1    1    2    0    0  0.27360677980E-04  0.20236131483E-04  0.60892248984E-03  0.60987269684E-03  0.00000000000E+00 0.  1.
</event>
<event>
 5   0  0.4143600E+04  0.9118800E+02  0.7546771E-02  0.1180000E+00
      -11   -1    0    0    0    0  0.00000000000E+00  0.00000000000E+00  0.34996269501E-01  0.35000000000E-01  0.51099999109E-03 0.  1.
       11   -1    0    0    0    0 -0.00000000000E+00 -0.00000000000E+00 -0.34996269501E-01  0.35000000000E-01  0.51099999109E-03 0. -1.
       22    1    1    2    0    0 -0.60442828186E-03  0.17442857720E-02 -0.50025535108E-02  0.53322985692E-02  0.00000000000E+00 0.  1.
       22    1    1    2    0    0 -0.52005789002E-03 -0.78951209237E-03 -0.29809459764E-01  0.29824447706E-01  0.00000000000E+00 0. -1.
       22    1    1    2    0    0  0.11244861719E-02 -0.95477367966E-03  0.34812013274E-01  0.34843253725E-01  0.00000000000E+00 0.  1.
</event>
<event>
 5   0  0.4143600E+04  0.9118800E+02  0.7546771E-02  0.1180000E+00
      -11   -1    0    0    0    0  0.00000000000E+00  0.00000000000E+00  0.34996269501E-01  0.35000000000E-01  0.51099999109E-03 0.  1.
       11   -1    0    0    0    0 -0.00000000000E+00 -0.00000000000E+00 -0.34996269501E-01  0.35000000000E-01  0.51099999109E-03 0. -1.
       22    1    1    2    0    0 -0.12369878333E-03 -0.50632260881E-04  0.11870748600E-02  0.11945759658E-02  0.00000000000E+00 0. -1.
       22    1    1    2    0    0  0.78054140107E-02  0.93139483343E-02 -0.32800378442E-01  0.34979121593E-01  0.00000000000E+00 0. -1.
       22    1    1    2    0    0 -0.76817152274E-02 -0.92633160734E-02  0.31613303582E-01  0.33826302442E-01  0.00000000000E+00 0.  1.
</event>
<event>
 5   0  0.4143600E+04  0.9118800E+02  0.7546771E-02  0.1180000E+00
      -11   -1    0    0    0    0  0.00000000000E+00  0.00000000000E+00  0.34996269501E-01  0.35000000000E-01  0.51099999109E-03 0. -1.
       11   -1    0    0    0    0 -0.00000000000E+00 -0.00000000000E+00 -0.34996269501E-01  0.35000000000E-01  0.51099999109E-03 0.  1.
       22    1    1    2    0    0  0.63641335583E-03 -0.19333749852E-01  0.28761288941E-01  0.34661371104E-01  0.00000000000E+00 0. -1.
       22    1    1    2    0    0 -0.40002104126E-03  0.19855433187E-01 -0.28422181978E-01  0.34673025139E-01  0.00000000000E+00 0.  1.
       22    1    1    2    0    0 -0.23639231457E-03 -0.52168333569E-03 -0.33910696318E-03  0.66560375720E-03  0.00000000000E+00 0.  1.
</event>
<event>
 5   0  0.4143600E+04  0.9118800E+02  0.7546771E-02  0.1180000E+00
      -11   -1    0    0    0    0  0.00000000000E+00  0.00000000000E+00  0.34996269501E-01  0.35000000000E-01  0.51099999109E-03 0. -1.
       11   -1    0    0    0    0 -0.00000000000E+00 -0.00000000000E+00 -0.34996269501E-01  0.35000000000E-01  0.51099999109E-03 0.  1.
       22    1    1    2    0    0  0.82884935000E-02 -0.18318817424E-01  0.27777204076E-01  0.34290687695E-01  0.00000000000E+00 0. -1.
       22    1    1    2    0    0  0.75275275345E-03  0.84521444454E-03  0.51938383094E-03  0.12453046731E-02  0.00000000000E+00 0.  1.
       22    1    1    2    0    0 -0.90412462534E-02  0.17473602980E-01 -0.28296587906E-01  0.34464007632E-01  0.00000000000E+00 0.  1.
</event>
<event>
 5   0  0.4143600E+04  0.9118800E+02  0.7546771E-02  0.1180000E+00
      -11   -1    0    0    0    0  0.00000000000E+00  0.00000000000E+00  0.34996269501E-01  0.35000000000E-01  0.51099999109E-03 0.  1.
       11   -1    0    0    0    0 -0.00000000000E+00 -0.00000000000E+00 -0.34996269501E-01  0.35000000000E-01  0.51099999109E-03 0. -1.
       22    1    1    2    0    0  0.36218181194E-02 -0.27657744762E-01 -0.12360797148E-01  0.30509960963E-01  0.00000000000E+00 0.  1.
       22    1    1    2    0    0 -0.32541483387E-02  0.40450781180E-03 -0.58527845926E-02  0.67088147587E-02  0.00000000000E+00 0. -1.
       22    1    1    2    0    0 -0.36766978071E-03  0.27253236951E-01  0.18213581741E-01  0.32781224278E-01  0.00000000000E+00 0. -1.
</event>
<event>
 5   0  0.4143600E+04  0.9118800E+02  0.7546771E-02  0.1180000E+00
      -11   -1    0    0    0    0  0.00000000000E+00  0.00000000000E+00  0.34996269501E-01  0.35000000000E-01  0.51099999109E-03 0.  1.
       11   -1    0    0    0    0 -0.00000000000E+00 -0.00000000000E+00 -0.34996269501E-01  0.35000000000E-01  0.51099999109E-03 0. -1.
       22    1    1    2    0    0  0.88741343072E-03  0.14565964066E-01  0.17924655745E-01  0.23113807461E-01  0.00000000000E+00 0.  1.
       22    1    1    2    0    0 -0.71483505338E-03 -0.11860421418E-01 -0.31174361563E-01  0.33361975424E-01  0.00000000000E+00 0. -1.
       22    1    1    2    0    0 -0.17257837735E-03 -0.27055426484E-02  0.13249705818E-01  0.13524217115E-01  0.00000000000E+00 0.  1.
</event>
<event>
 5   0  0.4143600E+04  0.9118800E+02  0.7546771E-02  0.1180000E+00
      -11   -1    0    0    0    0  0.00000000000E+00  0.00000000000E+00  0.34996269501E-01  0.35000000000E-01  0.51099999109E-03 0.  1.
       11   -1    0    0    0    0 -0.00000000000E+00 -0.00000000000E+00 -0.34996269501E-01  0.35000000000E-01  0.51099999109E-03 0. -1.
       22    1    1    2    0    0  0.16915907917E-01  0.14625923807E-01 -0.22355250050E-01  0.31619974583E-01  0.00000000000E+00 0. -1.
       22    1    1    2    0    0 -0.16840204695E-01 -0.14496968737E-01  0.26301222951E-01  0.34431220214E-01  0.00000000000E+00 0.  1.
       22    1    1    2    0    0 -0.75703222336E-04 -0.12895506989E-03 -0.39459729014E-02  0.39488052024E-02  0.00000000000E+00 0. -1.
</event>
<event>
 5   0  0.4143600E+04  0.9118800E+02  0.7546771E-02  0.1180000E+00
      -11   -1    0    0    0    0  0.00000000000E+00  0.00000000000E+00  0.34996269501E-01  0.35000000000E-01  0.51099999109E-03 0.  1.
       11   -1    0    0    0    0 -0.00000000000E+00 -0.00000000000E+00 -0.34996269501E-01  0.35000000000E-01  0.51099999109E-03 0. -1.
       22    1    1    2    0    0 -0.22213806910E-02 -0.18185356206E-02 -0.24522732907E-01  0.24690201157E-01  0.00000000000E+00 0. -1.
       22    1    1    2    0    0  0.21288171415E-02  0.45892233483E-02 -0.97185823888E-02  0.10956444542E-01  0.00000000000E+00 0.  1.
       22    1    1    2    0    0  0.92563549479E-04 -0.27706877277E-02  0.34241315296E-01  0.34353354300E-01  0.00000000000E+00 0.  1.
</event>
<event>
 5   0  0.4143600E+04  0.9118800E+02  0.7546771E-02  0.1180000E+00
      -11   -1    0    0    0    0  0.00000000000E+00  0.00000000000E+00  0.34996269501E-01  0.35000000000E-01  0.51099999109E-03 0.  1.
       11   -1    0    0    0    0 -0.00000000000E+00 -0.00000000000E+00 -0.34996269501E-01  0.35000000000E-01  0.51099999109E-03 0. -1.
       22    1    1    2    0    0 -0.49891914896E-03  0.30197956071E-02 -0.31634177339E-01  0.31781901481E-01  0.00000000000E+00 0. -1.
       22    1    1    2    0    0  0.17874791262E-05 -0.54489896301E-03  0.34439740297E-01  0.34444050717E-01  0.00000000000E+00 0.  1.
       22    1    1    2    0    0  0.49713166983E-03 -0.24748966440E-02 -0.28055629586E-02  0.37740478018E-02  0.00000000000E+00 0.  1.
</event>
<event>
 5   0  0.4143600E+04  0.9118800E+02  0.7546771E-02  0.1180000E+00
      -11   -1    0    0    0    0  0.00000000000E+00  0.00000000000E+00  0.34996269501E-01  0.35000000000E-01  0.51099999109E-03 0. -1.
       11   -1    0    0    0    0 -0.00000000000E+00 -0.00000000000E+00 -0.34996269501E-01  0.35000000000E-01  0.51099999109E-03 0.  1.
       22    1    1    2    0    0 -0.30684336090E-02 -0.95114279371E-02  0.33384865711E-01  0.34848698753E-01  0.00000000000E+00 0. -1.
       22    1    1    2    0    0  0.21519431345E-02  0.84102954335E-02 -0.21593593299E-01  0.23273315193E-01  0.00000000000E+00 0.  1.
       22    1    1    2    0    0  0.91649047454E-03  0.11011325036E-02 -0.11791272413E-01  0.11877986054E-01  0.00000000000E+00 0.  1.
</event>
<event>
 5   0  0.4143600E+04  0.9118800E+02  0.7546771E-02  0.1180000E+00
      -11   -1    0    0    0    0  0.00000000000E+00  0.00000000000E+00  0.34996269501E-01  0.35000000000E-01  0.51099999109E-03 0. -1.
       11   -1    0    0    0    0 -0.00000000000E+00 -0.00000000000E+00 -0.34996269501E-01  0.35000000000E-01  0.51099999109E-03 0.  1.
       22    1    1    2    0    0 -0.70034967072E-03 -0.16049359302E-02  0.34888336822E-01  0.34932253795E-01  0.00000000000E+00 0. -1.
       22    1    1    2    0    0 -0.52567830775E-03  0.65362367655E-03 -0.23997203330E-02  0.25420895481E-02  0.00000000000E+00 0. -1.
       22    1    1    2    0    0  0.12260279785E-02  0.95131225363E-03 -0.32488616489E-01  0.32525656657E-01  0.00000000000E+00 0.  1.
</event>
<event>
 5   0  0.4143600E+04  0.9118800E+02  0.7546771E-02  0.1180000E+00
      -11   -1    0    0    0    0  0.00000000000E+00  0.00000000000E+00  0.34996269501E-01  0.35000000000E-01  0.51099999109E-03 0. -1.
       11   -1    0    0    0    0 -0.00000000000E+00 -0.00000000000E+00 -0.34996269501E-01  0.35000000000E-01  0.51099999109E-03 0.  1.
       22    1    1    2    0    0 -0.74458835873E-04 -0.54448641511E-02 -0.28781214620E-01  0.29291814638E-01  0.00000000000E+00 0.  1.
       22    1    1    2    0    0  0.82092065697E-03  0.48517358239E-02 -0.49405366492E-02  0.69729587416E-02  0.00000000000E+00 0.  1.
       22    1    1    2    0    0 -0.74646182110E-03  0.59312832726E-03  0.33721751270E-01  0.33735226621E-01  0.00000000000E+00 0. -1.
</event>
<event>
 5   0  0.4143600E+04  0.9118800E+02  0.7546771E-02  0.1180000E+00
      -11   -1    0    0    0    0  0.00000000000E+00  0.00000000000E+00  0.34996269501E-01  0.35000000000E-01  0.51099999109E-03 0. -1.
       11   -1    0    0    0    0 -0.00000000000E+00 -0.00000000000E+00 -0.34996269501E-01  0.35000000000E-01  0.51099999109E-03 0.  1.
       22    1    1    2    0    0 -0.40409712368E-02  0.19838837725E-01  0.27628849017E-01  0.34252915625E-01  0.00000000000E+00 0. -1.
       22    1    1    2    0    0 -0.29150097759E-04 -0.31435388376E-04  0.83252929489E-03  0.83363237623E-03  0.00000000000E+00 0. -1.
       22    1    1    2    0    0  0.40701213346E-02 -0.19807402337E-01 -0.28461378312E-01  0.34913451998E-01  0.00000000000E+00 0.  1.
</event>
<event>
 5   0  0.4143600E+04  0.9118800E+02  0.7546771E-02  0.1180000E+00
      -11   -1    0    0    0    0  0.00000000000E+00  0.00000000000E+00  0.34996269501E-01  0.35000000000E-01  0.51099999109E-03 0.  1.
       11   -1    0    0    0    0 -0.00000000000E+00 -0.00000000000E+00 -0.34996269501E-01  0.35000000000E-01  0.51099999109E-03 0. -1.
       22    1    1    2    0    0 -0.16292863083E-01 -0.21645443312E-01  0.17354075391E-01  0.32173693234E-01  0.00000000000E+00 0.  1.
       22    1    1    2    0    0  0.16474489368E-01  0.12442502611E-01 -0.31262521708E-02  0.20880568091E-01  0.00000000000E+00 0. -1.
       22    1    1    2    0    0 -0.18162628497E-03  0.92029407017E-02 -0.14227823220E-01  0.16945738675E-01  0.00000000000E+00 0. -1.
</event>
<event>
 5   0  0.4143600E+04  0.9118800E+02  0.7546771E-02  0.1180000E+00
      -11   -1    0    0    0    0  0.00000000000E+00  0.00000000000E+00  0.34996269501E-01  0.35000000000E-01  0.51099999109E-03 0. -1.
       11   -1    0    0    0    0 -0.00000000000E+00 -0.00000000000E+00 -0.34996269501E-01  0.35000000000E-01  0.51099999109E-03 0.  1.
       22    1    1    2    0    0 -0.83891126316E-04  0.18646415597E-03 -0.27794110379E-03  0.34504761948E-03  0.00000000000E+00 0.  1.
       22    1    1    2    0    0 -0.14050312962E-01  0.51574388649E-02  0.31551880850E-01  0.34921793412E-01  0.00000000000E+00 0. -1.
       22    1    1    2    0    0  0.14134204088E-01 -0.53439030209E-02 -0.31273939746E-01  0.34733158968E-01  0.00000000000E+00 0.  1.
</event>
<event>
 5   0  0.4143600E+04  0.9118800E+02  0.7546771E-02  0.1180000E+00
      -11   -1    0    0    0    0  0.00000000000E+00  0.00000000000E+00  0.34996269501E-01  0.35000000000E-01  0.51099999109E-03 0.  1.
       11   -1    0    0    0    0 -0.00000000000E+00 -0.00000000000E+00 -0.34996269501E-01  0.35000000000E-01  0.51099999109E-03 0. -1.
       22    1    1    2    0    0 -0.30106494303E-03 -0.84344609147E-02 -0.22119390776E-01  0.23674843597E-01  0.00000000000E+00 0. -1.
       22    1    1    2    0    0  0.12967089072E-02  0.12145245098E-02 -0.11646708886E-01  0.11781440984E-01  0.00000000000E+00 0. -1.
       22    1    1    2    0    0 -0.99564396412E-03  0.72199364050E-02  0.33766099662E-01  0.34543715420E-01  0.00000000000E+00 0.  1.
</event>
<event>
 5   0  0.4143600E+04  0.9118800E+02  0.7546771E-02  0.1180000E+00
      -11   -1    0    0    0    0  0.00000000000E+00  0.00000000000E+00  0.34996269501E-01  0.35000000000E-01  0.51099999109E-03 0. -1.
       11   -1    0    0    0    0 -0.00000000000E+00 -0.00000000000E+00 -0.34996269501E-01  0.35000000000E-01  0.51099999109E-03 0.  1.
       22    1    1    2    0    0  0.63917181872E-02 -0.20915287954E-01 -0.26446084101E-01  0.34317614950E-01  0.00000000000E+00 0.  1.
       22    1    1    2    0    0 -0.52088860650E-02  0.18753525277E-01  0.16751629664E-01  0.25679647598E-01  0.00000000000E+00 0. -1.
       22    1    1    2    0    0 -0.11828321222E-02  0.21617626773E-02  0.96944544373E-02  0.10002737452E-01  0.00000000000E+00 0.  1.
</event>
<event>
 5   0  0.4143600E+04  0.9118800E+02  0.7546771E-02  0.1180000E+00
      -11   -1    0    0    0    0  0.00000000000E+00  0.00000000000E+00  0.34996269501E-01  0.35000000000E-01  0.51099999109E-03 0.  1.
       11   -1    0    0    0    0 -0.00000000000E+00 -0.00000000000E+00 -0.34996269501E-01  0.35000000000E-01  0.51099999109E-03 0. -1.
       22    1    1    2    0    0  0.64852006410E-02 -0.19537202910E-01 -0.25029703451E-01  0.32407501905E-01  0.00000000000E+00 0. -1.
       22    1    1    2    0    0 -0.21070551245E-02  0.18622068032E-01  0.26866610343E-01  0.32757225927E-01  0.00000000000E+00 0.  1.
       22    1    1    2    0    0 -0.43781455165E-02  0.91513487775E-03 -0.18369068924E-02  0.48352721681E-02  0.00000000000E+00 0.  1.
</event>
<event>
 5   0  0.4143600E+04  0.9118800E+02  0.7546771E-02  0.1180000E+00
      -11   -1    0    0    0    0  0.00000000000E+00  0.00000000000E+00  0.34996269501E-01  0.35000000000E-01  0.51099999109E-03 0. -1.
       11   -1    0    0    0    0 -0.00000000000E+00 -0.00000000000E+00 -0.34996269501E-01  0.35000000000E-01  0.51099999109E-03 0.  1.
       22    1    1    2    0    0  0.10535083314E-01  0.38239709292E-02  0.32179295426E-01  0.34075178477E-01  0.00000000000E+00 0. -1.
       22    1    1    2    0    0 -0.12902899173E-01 -0.28201173177E-02 -0.28747250007E-01  0.31636090968E-01  0.00000000000E+00 0.  1.
       22    1    1    2    0    0  0.23678158587E-02 -0.10038536115E-02 -0.34320454194E-02  0.42887305552E-02  0.00000000000E+00 0.  1.
</event>
<event>
 5   0  0.4143600E+04  0.9118800E+02  0.7546771E-02  0.1180000E+00
      -11   -1    0    0    0    0  0.00000000000E+00  0.00000000000E+00  0.34996269501E-01  0.35000000000E-01  0.51099999109E-03 0.  1.
       11   -1    0    0    0    0 -0.00000000000E+00 -0.00000000000E+00 -0.34996269501E-01  0.35000000000E-01  0.51099999109E-03 0. -1.
       22    1    1    2    0    0  0.11412287696E-05 -0.51567904320E-05  0.33757731080E-03  0.33761862457E-03  0.00000000000E+00 0.  1.
       22    1    1    2    0    0 -0.10520214078E-01  0.12268335869E-01 -0.31024814407E-01  0.34981796384E-01  0.00000000000E+00 0. -1.
       22    1    1    2    0    0  0.10519072850E-01 -0.12263179079E-01  0.30687237096E-01  0.34680584991E-01  0.00000000000E+00 0.  1.
</event>
<event>
 5   0  0.4143600E+04  0.9118800E+02  0.7546771E-02  0.1180000E+00
      -11   -1    0    0    0    0  0.00000000000E+00  0.00000000000E+00  0.34996269501E-01  0.35000000000E-01  0.51099999109E-03 0. -1.
       11   -1    0    0    0    0 -0.00000000000E+00 -0.00000000000E+00 -0.34996269501E-01  0.35000000000E-01  0.51099999109E-03 0.  1.
       22    1    1    2    0    0  0.10702541296E-01  0.24217292236E-03 -0.30772789119E-01  0.32581706341E-01  0.00000000000E+00 0.  1.
       22    1    1    2    0    0 -0.12637556776E-02 -0.62933410551E-03 -0.24778143957E-02  0.28517896150E-02  0.00000000000E+00 0. -1.
       22    1    1    2    0    0 -0.94387856186E-02  0.38716118315E-03  0.33250603515E-01  0.34566504044E-01  0.00000000000E+00 0. -1.
</event>
<event>
 5   0  0.4143600E+04  0.9118800E+02  0.7546771E-02  0.1180000E+00
      -11   -1    0    0    0    0  0.00000000000E+00  0.00000000000E+00  0.34996269501E-01  0.35000000000E-01  0.51099999109E-03 0.  1.
       11   -1    0    0    0    0 -0.00000000000E+00 -0.00000000000E+00 -0.34996269501E-01  0.35000000000E-01  0.51099999109E-03 0. -1.
       22    1    1    2    0    0 -0.16476113158E-01  0.78570612415E-02  0.28971190331E-01  0.34242160933E-01  0.00000000000E+00 0.  1.
       22    1    1    2    0    0 -0.16447159368E-03  0.87991521234E-03  0.32394409639E-03  0.95196715469E-03  0.00000000000E+00 0.  1.
       22    1    1    2    0    0  0.16640584752E-01 -0.87369764539E-02 -0.29295134428E-01  0.34805871912E-01  0.00000000000E+00 0. -1.
</event>
<event>
 5   0  0.4143600E+04  0.9118800E+02  0.7546771E-02  0.1180000E+00
      -11   -1    0    0    0    0  0.00000000000E+00  0.00000000000E+00  0.34996269501E-01  0.35000000000E-01  0.51099999109E-03 0. -1.
       11   -1    0    0    0    0 -0.00000000000E+00 -0.00000000000E+00 -0.34996269501E-01  0.35000000000E-01  0.51099999109E-03 0.  1.
       22    1    1    2    0    0  0.19469146649E-01 -0.13719311802E-01 -0.25226533209E-01  0.34693589686E-01  0.00000000000E+00 0.  1.
       22    1    1    2    0    0 -0.19978725283E-01  0.13327273280E-01  0.24862967135E-01  0.34567800216E-01  0.00000000000E+00 0. -1.
       22    1    1    2    0    0  0.50957863380E-03  0.39203852206E-03  0.36356607386E-03  0.73861009800E-03  0.00000000000E+00 0. -1.
</event>
<event>
 5   0  0.4143600E+04  0.9118800E+02  0.7546771E-02  0.1180000E+00
      -11   -1    0    0    0    0  0.00000000000E+00  0.00000000000E+00  0.34996269501E-01  0.35000000000E-01  0.51099999109E-03 0.  1.
       11   -1    0    0    0    0 -0.00000000000E+00 -0.00000000000E+00 -0.34996269501E-01  0.35000000000E-01  0.51099999109E-03 0. -1.
       22    1    1    2    0    0  0.14318441346E-01  0.75354890347E-02  0.25311726916E-01  0.30041386071E-01  0.00000000000E+00 0.  1.
       22    1    1    2    0    0  0.11174119910E-02 -0.13373086935E-01 -0.16441798819E-01  0.21223119755E-01  0.00000000000E+00 0. -1.
       22    1    1    2    0    0 -0.15435853337E-01  0.58375979007E-02 -0.88699280973E-02  0.18735494174E-01  0.00000000000E+00 0. -1.
</event>
<event>
 5   0  0.4143600E+04  0.9118800E+02  0.7546771E-02  0.1180000E+00
      -11   -1    0    0    0    0  0.00000000000E+00  0.00000000000E+00  0.34996269501E-01  0.35000000000E-01  0.51099999109E-03 0. -1.
       11   -1    0    0    0    0 -0.00000000000E+00 -0.00000000000E+00 -0.34996269501E-01  0.35000000000E-01  0.51099999109E-03 0.  1.
       22    1    1    2    0    0 -0.63705070077E-06 -0.13407543080E-04  0.37717962390E-03  0.37741838420E-03  0.00000000000E+00 0. -1.
       22    1    1    2    0    0 -0.38250208097E-02 -0.15314321775E-01  0.30834829912E-01  0.34640236306E-01  0.00000000000E+00 0. -1.
       22    1    1    2    0    0  0.38256578604E-02  0.15327729318E-01 -0.31212009536E-01  0.34982345310E-01  0.00000000000E+00 0.  1.
</event>
<event>
 5   0  0.4143600E+04  0.9118800E+02  0.7546771E-02  0.1180000E+00
      -11   -1    0    0    0    0  0.00000000000E+00  0.00000000000E+00  0.34996269501E-01  0.35000000000E-01  0.51099999109E-03 0. -1.
       11   -1    0    0    0    0 -0.00000000000E+00 -0.00000000000E+00 -0.34996269501E-01  0.35000000000E-01  0.51099999109E-03 0.  1.
       22    1    1    2    0    0 -0.11026993063E-04  0.41723434855E-05  0.34649456105E-03  0.34669508774E-03  0.00000000000E+00 0.  1.
       22    1    1    2    0    0 -0.84536335302E-03  0.20635934221E-01 -0.28213091619E-01  0.34964767396E-01  0.00000000000E+00 0.  1.
       22    1    1    2    0    0  0.85639034608E-03 -0.20640106564E-01  0.27866597058E-01  0.34688537516E-01  0.00000000000E+00 0. -1.
</event>
<event>
 5   0  0.4143600E+04  0.9118800E+02  0.7546771E-02  0.1180000E+00
      -11   -1    0    0    0    0  0.00000000000E+00  0.00000000000E+00  0.34996269501E-01  0.35000000000E-01  0.51099999109E-03 0. -1.
       11   -1    0    0    0    0 -0.00000000000E+00 -0.00000000000E+00 -0.34996269501E-01  0.35000000000E-01  0.51099999109E-03 0.  1.
       22    1    1    2    0    0 -0.10122289305E-03  0.43281818118E-04  0.49690494913E-03  0.50895374871E-03  0.00000000000E+00 0.  1.
       22    1    1    2    0    0 -0.19393942679E-01 -0.10093670598E-01 -0.27223984694E-01  0.34916364951E-01  0.00000000000E+00 0.  1.
       22    1    1    2    0    0  0.19495165572E-01  0.10050388780E-01  0.26727079745E-01  0.34574681300E-01  0.00000000000E+00 0. -1.
</event>
<event>
 5   0  0.4143600E+04  0.9118800E+02  0.7546771E-02  0.1180000E+00
      -11   -1    0    0    0    0  0.00000000000E+00  0.00000000000E+00  0.34996269501E-01  0.35000000000E-01  0.51099999109E-03 0.  1.
       11   -1    0    0    0    0 -0.00000000000E+00 -0.00000000000E+00 -0.34996269501E-01  0.35000000000E-01  0.51099999109E-03 0. -1.
       22    1    1    2    0    0 -0.10471768268E-02  0.18141155222E-01 -0.11064494899E-01  0.21274894582E-01  0.00000000000E+00 0. -1.
       22    1    1    2    0    0 -0.82390390415E-02 -0.23467497294E-01  0.22156684487E-01  0.33309516073E-01  0.00000000000E+00 0.  1.
       22    1    1    2    0    0  0.92862158683E-02  0.53263420717E-02 -0.11092189587E-01  0.15415589345E-01  0.00000000000E+00 0.  1.
</event>
<event>
 5   0  0.4143600E+04  0.9118800E+02  0.7546771E-02  0.1180000E+00
      -11   -1    0    0    0    0  0.00000000000E+00  0.00000000000E+00  0.34996269501E-01  0.35000000000E-01  0.51099999109E-03 0.  1.
       11   -1    0    0    0    0 -0.00000000000E+00 -0.00000000000E+00 -0.34996269501E-01  0.35000000000E-01  0.51099999109E-03 0. -1.
       22    1    1    2    0    0 -0.21173838672E-01 -0.52342732549E-02 -0.27325979619E-01  0.34963384028E-01  0.00000000000E+00 0. -1.
       22    1    1    2    0    0 -0.10432861966E-04  0.21414447172E-04  0.31420392934E-03  0.31510558924E-03  0.00000000000E+00 0.  1.
       22    1    1    2    0    0  0.21184271534E-01  0.52128588077E-02  0.27011775689E-01  0.34721510382E-01  0.00000000000E+00 0.  1.
</event>
<event>
 5   0  0.4143600E+04  0.9118800E+02  0.7546771E-02  0.1180000E+00
      -11   -1    0    0    0    0  0.00000000000E+00  0.00000000000E+00  0.34996269501E-01  0.35000000000E-01  0.51099999109E-03 0. -1.
       11   -1    0    0    0    0 -0.00000000000E+00 -0.00000000000E+00 -0.34996269501E-01  0.35000000000E-01  0.51099999109E-03 0.  1.
       22    1    1    2    0    0 -0.72411782423E-03  0.13433089836E-02  0.34895903295E-01  0.34929255538E-01  0.00000000000E+00 0. -1.
       22    1    1    2    0    0  0.67634999946E-03  0.21785498726E-04 -0.14848250466E-02  0.16317565225E-02  0.00000000000E+00 0. -1.
       22    1    1    2    0    0  0.47767824766E-04 -0.13650944823E-02 -0.33411078248E-01  0.33438987940E-01  0.00000000000E+00 0.  1.
</event>
<event>
 5   0  0.4143600E+04  0.9118800E+02  0.7546771E-02  0.1180000E+00
      -11   -1    0    0    0    0  0.00000000000E+00  0.00000000000E+00  0.34996269501E-01  0.35000000000E-01  0.51099999109E-03 0. -1.
       11   -1    0    0    0    0 -0.00000000000E+00 -0.00000000000E+00 -0.34996269501E-01  0.35000000000E-01  0.51099999109E-03 0.  1.
       22    1    1    2    0    0  0.10717849066E-01 -0.47522734595E-02  0.32365594049E-01  0.34423655671E-01  0.00000000000E+00 0. -1.
       22    1    1    2    0    0  0.12102572443E-02 -0.75771617212E-03 -0.53159976575E-02  0.55044243558E-02  0.00000000000E+00 0.  1.
       22    1    1    2    0    0 -0.11928106310E-01  0.55099896316E-02 -0.27049596392E-01  0.30071919973E-01  0.00000000000E+00 0.  1.
</event>
<event>
 5   0  0.4143600E+04  0.9118800E+02  0.7546771E-02  0.1180000E+00
      -11   -1    0    0    0    0  0.00000000000E+00  0.00000000000E+00  0.34996269501E-01  0.35000000000E-01  0.51099999109E-03 0.  1.
       11   -1    0    0    0    0 -0.00000000000E+00 -0.00000000000E+00 -0.34996269501E-01  0.35000000000E-01  0.51099999109E-03 0. -1.
       22    1    1    2    0    0 -0.17559239504E-02 -0.16761681271E-01  0.28763973600E-01  0.33337717456E-01  0.00000000000E+00 0.  1.
       22    1    1    2    0    0  0.33736777158E-04  0.85691274473E-04  0.18000270824E-02  0.18023813864E-02  0.00000000000E+00 0.  1.
       22    1    1    2    0    0  0.17221871733E-02  0.16675989996E-01 -0.30564000682E-01  0.34859901157E-01  0.00000000000E+00 0. -1.
</event>
<event>
 5   0  0.4143600E+04  0.9118800E+02  0.7546771E-02  0.1180000E+00
      -11   -1    0    0    0    0  0.00000000000E+00  0.00000000000E+00  0.34996269501E-01  0.35000000000E-01  0.51099999109E-03 0.  1.
       11   -1    0    0    0    0 -0.00000000000E+00 -0.00000000000E+00 -0.34996269501E-01  0.35000000000E-01  0.51099999109E-03 0. -1.
       22    1    1    2    0    0  0.23070991466E-02  0.95545048148E-02 -0.51474605660E-02  0.11095387285E-01  0.00000000000E+00 0.  1.
       22    1    1    2    0    0 -0.20838849370E-02 -0.15151236576E-01 -0.24418592744E-01  0.28812674603E-01  0.00000000000E+00 0. -1.
       22    1    1    2    0    0 -0.22321420959E-03  0.55967317609E-02  0.29566053310E-01  0.30091938112E-01  0.00000000000E+00 0.  1.
</event>
<event>
 5   0  0.4143600E+04  0.9118800E+02  0.7546771E-02  0.1180000E+00
      -11   -1    0    0    0    0  0.00000000000E+00  0.00000000000E+00  0.34996269501E-01  0.35000000000E-01  0.51099999109E-03 0.  1.
       11   -1    0    0    0    0 -0.00000000000E+00 -0.00000000000E+00 -0.34996269501E-01  0.35000000000E-01  0.51099999109E-03 0. -1.
       22    1    1    2    0    0 -0.18299380823E-02 -0.96007208108E-02 -0.31556649204E-01  0.33035505482E-01  0.00000000000E+00 0. -1.
       22    1    1    2    0    0 -0.11859014288E-02  0.98511789525E-03 -0.18066239698E-02  0.23750178177E-02  0.00000000000E+00 0.  1.
       22    1    1    2    0    0  0.30158395111E-02  0.86156029155E-02  0.33363273174E-01  0.34589476700E-01  0.00000000000E+00 0.  1.
</event>
<event>
 5   0  0.4143600E+04  0.9118800E+02  0.7546771E-02  0.1180000E+00
      -11   -1    0    0    0    0  0.00000000000E+00  0.00000000000E+00  0.34996269501E-01  0.35000000000E-01  0.51099999109E-03 0. -1.
       11   -1    0    0    0    0 -0.00000000000E+00 -0.00000000000E+00 -0.34996269501E-01  0.35000000000E-01  0.51099999109E-03 0.  1.
       22    1    1    2    0    0  0.21543138825E-01  0.12185739177E-01  0.24005557397E-01  0.34479934102E-01  0.00000000000E+00 0. -1.
       22    1    1    2    0    0 -0.21600514199E-01 -0.12277770018E-01 -0.24571385378E-01  0.34943938383E-01  0.00000000000E+00 0.  1.
       22    1    1    2    0    0  0.57375374165E-04  0.92030840611E-04  0.56582798116E-03  0.57612751492E-03  0.00000000000E+00 0.  1.
</event>
<event>
 5   0  0.4143600E+04  0.9118800E+02  0.7546771E-02  0.1180000E+00
      -11   -1    0    0    0    0  0.00000000000E+00  0.00000000000E+00  0.34996269501E-01  0.35000000000E-01  0.51099999109E-03 0. -1.
       11   -1    0    0    0    0 -0.00000000000E+00 -0.00000000000E+00 -0.34996269501E-01  0.35000000000E-01  0.51099999109E-03 0.  1.
       22    1    1    2    0    0  0.11961760330E-01 -0.42007801462E-02 -0.30059595493E-01  0.32623757374E-01  0.00000000000E+00 0.  1.
       22    1    1    2    0    0 -0.12089846736E-01  0.43342092948E-02  0.32491267022E-01  0.34937547095E-01  0.00000000000E+00 0. -1.
       22    1    1    2    0    0  0.12808640644E-03 -0.13342914863E-03 -0.24316715294E-02  0.24386955308E-02  0.00000000000E+00 0. -1.
</event>
<event>
 5   0  0.4143600E+04  0.9118800E+02  0.7546771E-02  0.1180000E+00
      -11   -1    0    0    0    0  0.00000000000E+00  0.00000000000E+00  0.34996269501E-01  0.35000000000E-01  0.51099999109E-03 0.  1.
       11   -1    0    0    0    0 -0.00000000000E+00 -0.00000000000E+00 -0.34996269501E-01  0.35000000000E-01  0.51099999109E-03 0. -1.
       22    1    1    2    0    0  0.13315068753E-02  0.10410529212E-02  0.34788239210E-01  0.34829273450E-01  0.00000000000E+00 0.  1.
       22    1    1    2    0    0 -0.97538844131E-03 -0.62314904211E-03 -0.15833552144E-02  0.19613034123E-02  0.00000000000E+00 0. -1.
       22    1    1    2    0    0 -0.35611843402E-03 -0.41790387904E-03 -0.33204883995E-01  0.33209423138E-01  0.00000000000E+00 0. -1.
</event>
<event>
 5   0  0.4143600E+04  0.9118800E+02  0.7546771E-02  0.1180000E+00
      -11   -1    0    0    0    0  0.00000000000E+00  0.00000000000E+00  0.34996269501E-01  0.35000000000E-01  0.51099999109E-03 0.  1.
       11   -1    0    0    0    0 -0.00000000000E+00 -0.00000000000E+00 -0.34996269501E-01  0.35000000000E-01  0.51099999109E-03 0. -1.
       22    1    1    2    0    0 -0.83876560246E-05 -0.13382909629E-01 -0.69222422848E-02  0.15067175540E-01  0.00000000000E+00 0.  1.
       22    1    1    2    0    0  0.18780406640E-02  0.15502997587E-01 -0.21387683424E-01  0.26482125541E-01  0.00000000000E+00 0. -1.
       22    1    1    2    0    0 -0.18696530080E-02 -0.21200879581E-02  0.28309925709E-01  0.28450698919E-01  0.00000000000E+00 0.  1.
</event>
<event>
 5   0  0.4143600E+04  0.9118800E+02  0.7546771E-02  0.1180000E+00
      -11   -1    0    0    0    0  0.00000000000E+00  0.00000000000E+00  0.34996269501E-01  0.35000000000E-01  0.51099999109E-03 0. -1.
       11   -1    0    0    0    0 -0.00000000000E+00 -0.00000000000E+00 -0.34996269501E-01  0.35000000000E-01  0.51099999109E-03 0.  1.
       22    1    1    2    0    0 -0.22272701582E-01 -0.72768124449E-02  0.18369688875E-01  0.29773657896E-01  0.00000000000E+00 0. -1.
       22    1    1    2    0    0  0.13496178358E-01  0.46823762903E-02  0.49947751303E-02  0.15133382193E-01  0.00000000000E+00 0.  1.
       22    1    1    2    0    0  0.87765232244E-02  0.25944361547E-02 -0.23364464005E-01  0.25092959912E-01  0.00000000000E+00 0.  1.
</event>
<event>
 5   0  0.4143600E+04  0.9118800E+02  0.7546771E-02  0.1180000E+00
      -11   -1    0    0    0    0  0.00000000000E+00  0.00000000000E+00  0.34996269501E-01  0.35000000000E-01  0.51099999109E-03 0.  1.
       11   -1    0    0    0    0 -0.00000000000E+00 -0.00000000000E+00 -0.34996269501E-01  0.35000000000E-01  0.51099999109E-03 0. -1.
       22    1    1    2    0    0 -0.17648975733E-03  0.11233111057E-02 -0.25357492523E-01  0.25382974678E-01  0.00000000000E+00 0. -1.
       22    1    1    2    0    0  0.62112587355E-02 -0.30098433433E-03 -0.83234103140E-02  0.10389874201E-01  0.00000000000E+00 0. -1.
       22    1    1    2    0    0 -0.60347689781E-02 -0.82232677132E-03  0.33680902837E-01  0.34227151121E-01  0.00000000000E+00 0.  1.
</event>
<event>
 5   0  0.4143600E+04  0.9118800E+02  0.7546771E-02  0.1180000E+00
      -11   -1    0    0    0    0  0.00000000000E+00  0.00000000000E+00  0.34996269501E-01  0.35000000000E-01  0.51099999109E-03 0. -1.
       11   -1    0    0    0    0 -0.00000000000E+00 -0.00000000000E+00 -0.34996269501E-01  0.35000000000E-01  0.51099999109E-03 0.  1.
       22    1    1    2    0    0  0.46665076706E-03  0.16191849572E-02 -0.16653128446E-02  0.23691326967E-02  0.00000000000E+00 0. -1.
       22    1    1    2    0    0 -0.19824825196E-02 -0.14979976254E-02  0.34585966606E-01  0.34675110957E-01  0.00000000000E+00 0. -1.
       22    1    1    2    0    0  0.15158317525E-02 -0.12118733181E-03 -0.32920653761E-01  0.32955756346E-01  0.00000000000E+00 0.  1.
</event>
<event>
 5   0  0.4143600E+04  0.9118800E+02  0.7546771E-02  0.1180000E+00
      -11   -1    0    0    0    0  0.00000000000E+00  0.00000000000E+00  0.34996269501E-01  0.35000000000E-01  0.51099999109E-03 0. -1.
       11   -1    0    0    0    0 -0.00000000000E+00 -0.00000000000E+00 -0.34996269501E-01  0.35000000000E-01  0.51099999109E-03 0.  1.
       22    1    1    2    0    0  0.97924969684E-02  0.10072090090E-01 -0.32003431468E-01  0.34950817178E-01  0.00000000000E+00 0.  1.
       22    1    1    2    0    0 -0.97503825225E-02 -0.10210508642E-01  0.31388699229E-01  0.34417653687E-01  0.00000000000E+00 0. -1.
       22    1    1    2    0    0 -0.42114445890E-04  0.13841855179E-03  0.61473223942E-03  0.63152913489E-03  0.00000000000E+00 0.  1.
</event>
<event>
 5   0  0.4143600E+04  0.9118800E+02  0.7546771E-02  0.1180000E+00
      -11   -1    0    0    0    0  0.00000000000E+00  0.00000000000E+00  0.34996269501E-01  0.35000000000E-01  0.51099999109E-03 0. -1.
       11   -1    0    0    0    0 -0.00000000000E+00 -0.00000000000E+00 -0.34996269501E-01  0.35000000000E-01  0.51099999109E-03 0.  1.
       22    1    1    2    0    0  0.22786559606E-01  0.68740825280E-02 -0.24629896110E-01  0.34250723958E-01  0.00000000000E+00 0.  1.
       22    1    1    2    0    0 -0.23654886937E-01 -0.63563064236E-02  0.24633156633E-01  0.34738288862E-01  0.00000000000E+00 0. -1.
       22    1    1    2    0    0  0.86832733095E-03 -0.51777610446E-03 -0.32605233951E-05  0.10109871805E-02  0.00000000000E+00 0. -1.
</event>
<event>
 5   0  0.4143600E+04  0.9118800E+02  0.7546771E-02  0.1180000E+00
      -11   -1    0    0    0    0  0.00000000000E+00  0.00000000000E+00  0.34996269501E-01  0.35000000000E-01  0.51099999109E-03 0.  1.
       11   -1    0    0    0    0 -0.00000000000E+00 -0.00000000000E+00 -0.34996269501E-01  0.35000000000E-01  0.51099999109E-03 0. -1.
       22    1    1    2    0    0 -0.21714485095E-03 -0.29885015317E-04 -0.57912601877E-03  0.61921881920E-03  0.00000000000E+00 0. -1.
       22    1    1    2    0    0 -0.58241034568E-02  0.46399267820E-02  0.34154161411E-01  0.34956484996E-01  0.00000000000E+00 0.  1.
       22    1    1    2    0    0  0.60412483078E-02 -0.46100417667E-02 -0.33575035392E-01  0.34424296184E-01  0.00000000000E+00 0. -1.
</event>
<event>
 5   0  0.4143600E+04  0.9118800E+02  0.7546771E-02  0.1180000E+00
      -11   -1    0    0    0    0  0.00000000000E+00  0.00000000000E+00  0.34996269501E-01  0.35000000000E-01  0.51099999109E-03 0.  1.
       11   -1    0    0    0    0 -0.00000000000E+00 -0.00000000000E+00 -0.34996269501E-01  0.35000000000E-01  0.51099999109E-03 0. -1.
       22    1    1    2    0    0  0.98167607802E-02  0.36999744866E-02 -0.15583448620E-01  0.18785698665E-01  0.00000000000E+00 0.  1.
       22    1    1    2    0    0 -0.33170219651E-02  0.11313380947E-02  0.32379020986E-01  0.32568137199E-01  0.00000000000E+00 0.  1.
       22    1    1    2    0    0 -0.64997388151E-02 -0.48313125812E-02 -0.16795572365E-01  0.18646164137E-01  0.00000000000E+00 0. -1.
</event>
<event>
 5   0  0.4143600E+04  0.9118800E+02  0.7546771E-02  0.1180000E+00
      -11   -1    0    0    0    0  0.00000000000E+00  0.00000000000E+00  0.34996269501E-01  0.35000000000E-01  0.51099999109E-03 0.  1.
       11   -1    0    0    0    0 -0.00000000000E+00 -0.00000000000E+00 -0.34996269501E-01  0.35000000000E-01  0.51099999109E-03 0.  1.
       22    1    1    2    0    0  0.00000000000E+00  0.00000000000E+00  0.30244505201E-01  0.30242664725E-01  0.00000000000E+00 0.  1.
       22    1    1    2    0    0 -0.92722727657E-02  0.88388611228E-02 -0.17498270314E-01  0.21686170066E-01  0.00000000000E+00 0.  1.
       22    1    1    2    0    0  0.92722727657E-02 -0.88388611228E-02 -0.12746234888E-01  0.18071165209E-01  0.00000000000E+00 0. -1.
</event>
<event>
 5   0  0.4143600E+04  0.9118800E+02  0.7546771E-02  0.1180000E+00
      -11   -1    0    0    0    0  0.00000000000E+00  0.00000000000E+00  0.34996269501E-01  0.35000000000E-01  0.51099999109E-03 0. -1.
       11   -1    0    0    0    0 -0.00000000000E+00 -0.00000000000E+00 -0.34996269501E-01  0.35000000000E-01  0.51099999109E-03 0.  1.
       22    1    1    2    0    0 -0.13229342836E-03 -0.46459052785E-02  0.15787873781E-01  0.16457791344E-01  0.00000000000E+00 0. -1.
       22    1    1    2    0    0  0.18722463826E-01  0.10255990793E-01 -0.24295770417E-01  0.32341930354E-01  0.00000000000E+00 0.  1.
       22    1    1    2    0    0 -0.18590170397E-01 -0.56100855145E-02  0.85078966364E-02  0.21200278302E-01  0.00000000000E+00 0. -1.
</event>
<event>
 5   0  0.4143600E+04  0.9118800E+02  0.7546771E-02  0.1180000E+00
      -11   -1    0    0    0    0  0.00000000000E+00  0.00000000000E+00  0.34996269501E-01  0.35000000000E-01  0.51099999109E-03 0.  1.
       11   -1    0    0    0    0 -0.00000000000E+00 -0.00000000000E+00 -0.34996269501E-01  0.35000000000E-01  0.51099999109E-03 0. -1.
       22    1    1    2    0    0  0.25849394243E-02  0.16389614773E-02 -0.33560630934E-01  0.33699911799E-01  0.00000000000E+00 0. -1.
       22    1    1    2    0    0 -0.28225121456E-02 -0.10846607905E-02  0.34795073597E-01  0.34926210937E-01  0.00000000000E+00 0.  1.
       22    1    1    2    0    0  0.23757272135E-03 -0.55430068677E-03 -0.12344426628E-02  0.13738772641E-02  0.00000000000E+00 0.  1.
</event>
<event>
 5   0  0.4143600E+04  0.9118800E+02  0.7546771E-02  0.1180000E+00
      -11   -1    0    0    0    0  0.00000000000E+00  0.00000000000E+00  0.34996269501E-01  0.35000000000E-01  0.51099999109E-03 0.  1.
       11   -1    0    0    0    0 -0.00000000000E+00 -0.00000000000E+00 -0.34996269501E-01  0.35000000000E-01  0.51099999109E-03 0. -1.
       22    1    1    2    0    0  0.70619975058E-04 -0.20402465780E-04  0.22464703111E-02  0.22476726408E-02  0.00000000000E+00 0. -1.
       22    1    1    2    0    0 -0.85087657893E-03  0.12494318105E-01 -0.32601992754E-01  0.34924517282E-01  0.00000000000E+00 0. -1.
       22    1    1    2    0    0  0.78025660387E-03 -0.12473915639E-01  0.30355522442E-01  0.32827810078E-01  0.00000000000E+00 0.  1.
</event>
<event>
 5   0  0.4143600E+04  0.9118800E+02  0.7546771E-02  0.1180000E+00
      -11   -1    0    0    0    0  0.00000000000E+00  0.00000000000E+00  0.34996269501E-01  0.35000000000E-01  0.51099999109E-03 0. -1.
       11   -1    0    0    0    0 -0.00000000000E+00 -0.00000000000E+00 -0.34996269501E-01  0.35000000000E-01  0.51099999109E-03 0.  1.
       22    1    1    2    0    0  0.45978601717E-03  0.12588104831E-02  0.34610485545E-01  0.34636421822E-01  0.00000000000E+00 0. -1.
       22    1    1    2    0    0  0.17003710028E-02 -0.25431604666E-03 -0.18842632527E-02  0.25507618870E-02  0.00000000000E+00 0. -1.
       22    1    1    2    0    0 -0.21601570200E-02 -0.10044944365E-02 -0.32726222292E-01  0.32812816291E-01  0.00000000000E+00 0.  1.
</event>
<event>
 5   0  0.4143600E+04  0.9118800E+02  0.7546771E-02  0.1180000E+00
      -11   -1    0    0    0    0  0.00000000000E+00  0.00000000000E+00  0.34996269501E-01  0.35000000000E-01  0.51099999109E-03 0.  1.
       11   -1    0    0    0    0 -0.00000000000E+00 -0.00000000000E+00 -0.34996269501E-01  0.35000000000E-01  0.51099999109E-03 0. -1.
       22    1    1    2    0    0 -0.47023859484E-03  0.74418187196E-03 -0.56332233389E-03  0.10451138916E-02  0.00000000000E+00 0. -1.
       22    1    1    2    0    0  0.14941045920E-01 -0.16346890796E-02  0.31437693174E-01  0.34845883741E-01  0.00000000000E+00 0.  1.
       22    1    1    2    0    0 -0.14470807325E-01  0.89050720764E-03 -0.30874370840E-01  0.34109002368E-01  0.00000000000E+00 0. -1.
</event>
<event>
 5   0  0.4143600E+04  0.9118800E+02  0.7546771E-02  0.1180000E+00
      -11   -1    0    0    0    0  0.00000000000E+00  0.00000000000E+00  0.34996269501E-01  0.35000000000E-01  0.51099999109E-03 0.  1.
       11   -1    0    0    0    0 -0.00000000000E+00 -0.00000000000E+00 -0.34996269501E-01  0.35000000000E-01  0.51099999109E-03 0. -1.
       22    1    1    2    0    0  0.70070751808E-02 -0.61823306545E-02 -0.12393434364E-01  0.15521518297E-01  0.00000000000E+00 0.  1.
       22    1    1    2    0    0 -0.41485053736E-02  0.39953860764E-02 -0.20548539459E-01  0.21340470487E-01  0.00000000000E+00 0. -1.
       22    1    1    2    0    0 -0.28585698072E-02  0.21869445781E-02  0.32941973823E-01  0.33138011215E-01  0.00000000000E+00 0.  1.
</event>
<event>
 5   0  0.4143600E+04  0.9118800E+02  0.7546771E-02  0.1180000E+00
      -11   -1    0    0    0    0  0.00000000000E+00  0.00000000000E+00  0.34996269501E-01  0.35000000000E-01  0.51099999109E-03 0. -1.
       11   -1    0    0    0    0 -0.00000000000E+00 -0.00000000000E+00 -0.34996269501E-01  0.35000000000E-01  0.51099999109E-03 0.  1.
       22    1    1    2    0    0  0.76688853942E-02 -0.73871009361E-02 -0.11363911893E-01  0.15573039425E-01  0.00000000000E+00 0. -1.
       22    1    1    2    0    0  0.13488557420E-01 -0.66831154223E-02  0.22184832960E-01  0.26809924030E-01  0.00000000000E+00 0. -1.
       22    1    1    2    0    0 -0.21157442814E-01  0.14070216358E-01 -0.10820921067E-01  0.27617036545E-01  0.00000000000E+00 0.  1.
</event>
<event>
 5   0  0.4143600E+04  0.9118800E+02  0.7546771E-02  0.1180000E+00
      -11   -1    0    0    0    0  0.00000000000E+00  0.00000000000E+00  0.34996269501E-01  0.35000000000E-01  0.51099999109E-03 0. -1.
       11   -1    0    0    0    0 -0.00000000000E+00 -0.00000000000E+00 -0.34996269501E-01  0.35000000000E-01  0.51099999109E-03 0.  1.
       22    1    1    2    0    0 -0.19092803669E-03  0.79637003143E-04 -0.51416769307E-03  0.55422376714E-03  0.00000000000E+00 0.  1.
       22    1    1    2    0    0 -0.99343731527E-03  0.14221801618E-02  0.34931895382E-01  0.34974945733E-01  0.00000000000E+00 0. -1.
       22    1    1    2    0    0  0.11843653520E-02 -0.15018171649E-02 -0.34417727688E-01  0.34470830499E-01  0.00000000000E+00 0.  1.
</event>
<event>
 5   0  0.4143600E+04  0.9118800E+02  0.7546771E-02  0.1180000E+00
      -11   -1    0    0    0    0  0.00000000000E+00  0.00000000000E+00  0.34996269501E-01  0.35000000000E-01  0.51099999109E-03 0.  1.
       11   -1    0    0    0    0 -0.00000000000E+00 -0.00000000000E+00 -0.34996269501E-01  0.35000000000E-01  0.51099999109E-03 0. -1.
       22    1    1    2    0    0  0.13535243269E-02  0.32692717332E-02  0.31349844503E-01  0.31548897225E-01  0.00000000000E+00 0.  1.
       22    1    1    2    0    0 -0.11323671069E-01 -0.34045062468E-02 -0.20861172709E-01  0.23979255953E-01  0.00000000000E+00 0. -1.
       22    1    1    2    0    0  0.99701467425E-02  0.13523451362E-03 -0.10488671793E-01  0.14471846822E-01  0.00000000000E+00 0.  1.
</event>
<event>
 5   0  0.4143600E+04  0.9118800E+02  0.7546771E-02  0.1180000E+00
      -11   -1    0    0    0    0  0.00000000000E+00  0.00000000000E+00  0.34996269501E-01  0.35000000000E-01  0.51099999109E-03 0.  1.
       11   -1    0    0    0    0 -0.00000000000E+00 -0.00000000000E+00 -0.34996269501E-01  0.35000000000E-01  0.51099999109E-03 0. -1.
       22    1    1    2    0    0  0.16797548969E-01 -0.47364326985E-02  0.29875066942E-01  0.34599292925E-01  0.00000000000E+00 0.  1.
       22    1    1    2    0    0 -0.17106654935E-01  0.56515455930E-02 -0.28089069296E-01  0.33370247595E-01  0.00000000000E+00 0. -1.
       22    1    1    2    0    0  0.30910596600E-03 -0.91511289449E-03 -0.17859976464E-02  0.20304594802E-02  0.00000000000E+00 0. -1.
</event>
<event>
 5   0  0.4143600E+04  0.9118800E+02  0.7546771E-02  0.1180000E+00
      -11   -1    0    0    0    0  0.00000000000E+00  0.00000000000E+00  0.34996269501E-01  0.35000000000E-01  0.51099999109E-03 0. -1.
       11   -1    0    0    0    0 -0.00000000000E+00 -0.00000000000E+00 -0.34996269501E-01  0.35000000000E-01  0.51099999109E-03 0.  1.
       22    1    1    2    0    0  0.19969686244E-02  0.21691790792E-01  0.26388548104E-01  0.34218082099E-01  0.00000000000E+00 0. -1.
       22    1    1    2    0    0  0.31784256285E-03 -0.21843347676E-01 -0.23789825456E-01  0.32298431182E-01  0.00000000000E+00 0.  1.
       22    1    1    2    0    0 -0.23148111873E-02  0.15155688384E-03 -0.25987226485E-02  0.34834867196E-02  0.00000000000E+00 0. -1.
</event>
<event>
 5   0  0.4143600E+04  0.9118800E+02  0.7546771E-02  0.1180000E+00
      -11   -1    0    0    0    0  0.00000000000E+00  0.00000000000E+00  0.34996269501E-01  0.35000000000E-01  0.51099999109E-03 0. -1.
       11   -1    0    0    0    0 -0.00000000000E+00 -0.00000000000E+00 -0.34996269501E-01  0.35000000000E-01  0.51099999109E-03 0.  1.
       22    1    1    2    0    0 -0.28813224252E-02  0.83401694900E-03 -0.34259524649E-01  0.34390589299E-01  0.00000000000E+00 0.  1.
       22    1    1    2    0    0  0.69921527807E-04 -0.23811024918E-03 -0.59079422960E-03  0.64079897983E-03  0.00000000000E+00 0. -1.
       22    1    1    2    0    0  0.28114008974E-02 -0.59590669981E-03  0.34850318878E-01  0.34968611721E-01  0.00000000000E+00 0. -1.
</event>
<event>
 5   0  0.4143600E+04  0.9118800E+02  0.7546771E-02  0.1180000E+00
      -11   -1    0    0    0    0  0.00000000000E+00  0.00000000000E+00  0.34996269501E-01  0.35000000000E-01  0.51099999109E-03 0. -1.
       11   -1    0    0    0    0 -0.00000000000E+00 -0.00000000000E+00 -0.34996269501E-01  0.35000000000E-01  0.51099999109E-03 0.  1.
       22    1    1    2    0    0 -0.58717850790E-02  0.78364288122E-02 -0.22851465517E-01  0.24861153489E-01  0.00000000000E+00 0.  1.
       22    1    1    2    0    0 -0.39686581936E-02 -0.18019271993E-01  0.23219701051E-03  0.18452596740E-01  0.00000000000E+00 0.  1.
       22    1    1    2    0    0  0.98404432726E-02  0.10182843180E-01  0.22619268507E-01  0.26686249771E-01  0.00000000000E+00 0. -1.
</event>
<event>
 5   0  0.4143600E+04  0.9118800E+02  0.7546771E-02  0.1180000E+00
      -11   -1    0    0    0    0  0.00000000000E+00  0.00000000000E+00  0.34996269501E-01  0.35000000000E-01  0.51099999109E-03 0.  1.
       11   -1    0    0    0    0 -0.00000000000E+00 -0.00000000000E+00 -0.34996269501E-01  0.35000000000E-01  0.51099999109E-03 0. -1.
       22    1    1    2    0    0  0.58137563287E-03  0.17194552467E-02 -0.32864803171E-01  0.32914887383E-01  0.00000000000E+00 0. -1.
       22    1    1    2    0    0 -0.11469767819E-02  0.43348041309E-03 -0.18933728185E-02  0.22557308431E-02  0.00000000000E+00 0.  1.
       22    1    1    2    0    0  0.56560114908E-03 -0.21529356598E-02  0.34758175990E-01  0.34829381774E-01  0.00000000000E+00 0.  1.
</event>
<event>
 5   0  0.4143600E+04  0.9118800E+02  0.7546771E-02  0.1180000E+00
      -11   -1    0    0    0    0  0.00000000000E+00  0.00000000000E+00  0.34996269501E-01  0.35000000000E-01  0.51099999109E-03 0.  1.
       11   -1    0    0    0    0 -0.00000000000E+00 -0.00000000000E+00 -0.34996269501E-01  0.35000000000E-01  0.51099999109E-03 0. -1.
       22    1    1    2    0    0  0.14215260072E-01  0.54121243259E-02  0.31284449010E-01  0.34786225125E-01  0.00000000000E+00 0.  1.
       22    1    1    2    0    0 -0.14437837911E-01 -0.43917476837E-02 -0.28687095493E-01  0.32414318736E-01  0.00000000000E+00 0. -1.
       22    1    1    2    0    0  0.22257783934E-03 -0.10203766422E-02 -0.25973535163E-02  0.27994561392E-02  0.00000000000E+00 0.  1.
</event>
<event>
 5   0  0.4143600E+04  0.9118800E+02  0.7546771E-02  0.1180000E+00
      -11   -1    0    0    0    0  0.00000000000E+00  0.00000000000E+00  0.34996269501E-01  0.35000000000E-01  0.51099999109E-03 0. -1.
       11   -1    0    0    0    0 -0.00000000000E+00 -0.00000000000E+00 -0.34996269501E-01  0.35000000000E-01  0.51099999109E-03 0.  1.
       22    1    1    2    0    0 -0.15504365223E-04 -0.95231494290E-03 -0.14840813317E-02  0.17634175724E-02  0.00000000000E+00 0.  1.
       22    1    1    2    0    0 -0.24624788543E-02 -0.32258979512E-03 -0.33274207565E-01  0.33366761236E-01  0.00000000000E+00 0.  1.
       22    1    1    2    0    0  0.24779832196E-02  0.12749047380E-02  0.34758288897E-01  0.34869821192E-01  0.00000000000E+00 0. -1.
</event>
<event>
 5   0  0.4143600E+04  0.9118800E+02  0.7546771E-02  0.1180000E+00
      -11   -1    0    0    0    0  0.00000000000E+00  0.00000000000E+00  0.34996269501E-01  0.35000000000E-01  0.51099999109E-03 0.  1.
       11   -1    0    0    0    0 -0.00000000000E+00 -0.00000000000E+00 -0.34996269501E-01  0.35000000000E-01  0.51099999109E-03 0. -1.
       22    1    1    2    0    0  0.20669374435E-04 -0.20365455545E-03  0.31258160985E-01  0.31258831241E-01  0.00000000000E+00 0.  1.
       22    1    1    2    0    0 -0.73308377741E-03  0.11518786347E-01 -0.15283881454E-01  0.19152464150E-01  0.00000000000E+00 0. -1.
       22    1    1    2    0    0  0.71241440298E-03 -0.11315131791E-01 -0.15974279531E-01  0.19588704609E-01  0.00000000000E+00 0.  1.
</event>
<event>
 5   0  0.4143600E+04  0.9118800E+02  0.7546771E-02  0.1180000E+00
      -11   -1    0    0    0    0  0.00000000000E+00  0.00000000000E+00  0.34996269501E-01  0.35000000000E-01  0.51099999109E-03 0. -1.
       11   -1    0    0    0    0 -0.00000000000E+00 -0.00000000000E+00 -0.34996269501E-01  0.35000000000E-01  0.51099999109E-03 0.  1.
       22    1    1    2    0    0 -0.32288093291E-02  0.14650435740E-01  0.30821362396E-01  0.34278518886E-01  0.00000000000E+00 0. -1.
       22    1    1    2    0    0  0.85320335130E-03  0.34892881563E-04  0.54026391289E-03  0.10104744269E-02  0.00000000000E+00 0.  1.
       22    1    1    2    0    0  0.23756059779E-02 -0.14685328621E-01 -0.31361626309E-01  0.34711006687E-01  0.00000000000E+00 0.  1.
</event>
<event>
 5   0  0.4143600E+04  0.9118800E+02  0.7546771E-02  0.1180000E+00
      -11   -1    0    0    0    0  0.00000000000E+00  0.00000000000E+00  0.34996269501E-01  0.35000000000E-01  0.51099999109E-03 0. -1.
       11   -1    0    0    0    0 -0.00000000000E+00 -0.00000000000E+00 -0.34996269501E-01  0.35000000000E-01  0.51099999109E-03 0.  1.
       22    1    1    2    0    0  0.11449694461E-01  0.15135348575E-01 -0.29062367244E-01  0.34710163779E-01  0.00000000000E+00 0.  1.
       22    1    1    2    0    0 -0.11378752659E-01 -0.15176060796E-01  0.29374915381E-01  0.34966762604E-01  0.00000000000E+00 0. -1.
       22    1    1    2    0    0 -0.70941802380E-04  0.40712221808E-04 -0.31254813667E-03  0.32307361709E-03  0.00000000000E+00 0. -1.
</event>
<event>
 5   0  0.4143600E+04  0.9118800E+02  0.7546771E-02  0.1180000E+00
      -11   -1    0    0    0    0  0.00000000000E+00  0.00000000000E+00  0.34996269501E-01  0.35000000000E-01  0.51099999109E-03 0.  1.
       11   -1    0    0    0    0 -0.00000000000E+00 -0.00000000000E+00 -0.34996269501E-01  0.35000000000E-01  0.51099999109E-03 0. -1.
       22    1    1    2    0    0  0.68461196479E-02  0.52449074822E-02 -0.16663436954E-01  0.18762956586E-01  0.00000000000E+00 0. -1.
       22    1    1    2    0    0 -0.71815822446E-03 -0.29882649586E-03 -0.16821029057E-01  0.16839004337E-01  0.00000000000E+00 0. -1.
       22    1    1    2    0    0 -0.61279614235E-02 -0.49460809864E-02  0.33484466011E-01  0.34398039077E-01  0.00000000000E+00 0.  1.
</event>
<event>
 5   0  0.4143600E+04  0.9118800E+02  0.7546771E-02  0.1180000E+00
      -11   -1    0    0    0    0  0.00000000000E+00  0.00000000000E+00  0.34996269501E-01  0.35000000000E-01  0.51099999109E-03 0.  1.
       11   -1    0    0    0    0 -0.00000000000E+00 -0.00000000000E+00 -0.34996269501E-01  0.35000000000E-01  0.51099999109E-03 0. -1.
       22    1    1    2    0    0 -0.30023876621E-02 -0.99212144055E-03 -0.32216651628E-01  0.32371457779E-01  0.00000000000E+00 0. -1.
       22    1    1    2    0    0  0.15501503994E-02  0.93010150560E-03  0.34702153670E-01  0.34749208975E-01  0.00000000000E+00 0.  1.
       22    1    1    2    0    0  0.14522372626E-02  0.62019934949E-04 -0.24855020424E-02  0.28793332461E-02  0.00000000000E+00 0. -1.
</event>
<event>
 5   0  0.4143600E+04  0.9118800E+02  0.7546771E-02  0.1180000E+00
      -11   -1    0    0    0    0  0.00000000000E+00  0.00000000000E+00  0.34996269501E-01  0.35000000000E-01  0.51099999109E-03 0. -1.
       11   -1    0    0    0    0 -0.00000000000E+00 -0.00000000000E+00 -0.34996269501E-01  0.35000000000E-01  0.51099999109E-03 0.  1.
       22    1    1    2    0    0  0.19051466074E-02  0.44476888980E-03  0.34747836916E-01  0.34802867314E-01  0.00000000000E+00 0. -1.
       22    1    1    2    0    0 -0.97717952667E-03  0.12962666127E-02 -0.30152774292E-01  0.30196439930E-01  0.00000000000E+00 0.  1.
       22    1    1    2    0    0 -0.92796708072E-03 -0.17410355025E-02 -0.45950626240E-02  0.50006927562E-02  0.00000000000E+00 0. -1.
</event>
<event>
 5   0  0.4143600E+04  0.9118800E+02  0.7546771E-02  0.1180000E+00
      -11   -1    0    0    0    0  0.00000000000E+00  0.00000000000E+00  0.34996269501E-01  0.35000000000E-01  0.51099999109E-03 0. -1.
       11   -1    0    0    0    0 -0.00000000000E+00 -0.00000000000E+00 -0.34996269501E-01  0.35000000000E-01  0.51099999109E-03 0.  1.
       22    1    1    2    0    0  0.15172535040E-01  0.80559193273E-02 -0.29863107526E-01  0.34451543461E-01  0.00000000000E+00 0.  1.
       22    1    1    2    0    0  0.11871842712E-03  0.22396543873E-03 -0.49881413661E-03  0.55952669781E-03  0.00000000000E+00 0.  1.
       22    1    1    2    0    0 -0.15291253467E-01 -0.82798847660E-02  0.30361921663E-01  0.34988929841E-01  0.00000000000E+00 0. -1.
</event>
<event>
 5   0  0.4143600E+04  0.9118800E+02  0.7546771E-02  0.1180000E+00
      -11   -1    0    0    0    0  0.00000000000E+00  0.00000000000E+00  0.34996269501E-01  0.35000000000E-01  0.51099999109E-03 0.  1.
       11   -1    0    0    0    0 -0.00000000000E+00 -0.00000000000E+00 -0.34996269501E-01  0.35000000000E-01  0.51099999109E-03 0. -1.
       22    1    1    2    0    0 -0.11054170566E-01  0.34091309053E-02  0.32407004120E-01  0.34409748276E-01  0.00000000000E+00 0.  1.
       22    1    1    2    0    0  0.10969783825E-01 -0.36708854476E-02 -0.19447206238E-01  0.22627536048E-01  0.00000000000E+00 0. -1.
       22    1    1    2    0    0  0.84386740547E-04  0.26175454239E-03 -0.12959797882E-01  0.12962715676E-01  0.00000000000E+00 0. -1.
</event>
<event>
 5   0  0.4143600E+04  0.9118800E+02  0.7546771E-02  0.1180000E+00
      -11   -1    0    0    0    0  0.00000000000E+00  0.00000000000E+00  0.34996269501E-01  0.35000000000E-01  0.51099999109E-03 0. -1.
       11   -1    0    0    0    0 -0.00000000000E+00 -0.00000000000E+00 -0.34996269501E-01  0.35000000000E-01  0.51099999109E-03 0.  1.
       22    1    1    2    0    0 -0.16217009090E-01  0.15424916426E-01 -0.26433740512E-01  0.34636138180E-01  0.00000000000E+00 0.  1.
       22    1    1    2    0    0  0.11226648408E-03  0.10676391415E-03 -0.39833559647E-03  0.42740325715E-03  0.00000000000E+00 0. -1.
       22    1    1    2    0    0  0.16104742606E-01 -0.15531680340E-01  0.26832076108E-01  0.34936458563E-01  0.00000000000E+00 0. -1.
</event>
<event>
 5   0  0.4143600E+04  0.9118800E+02  0.7546771E-02  0.1180000E+00
      -11   -1    0    0    0    0  0.00000000000E+00  0.00000000000E+00  0.34996269501E-01  0.35000000000E-01  0.51099999109E-03 0. -1.
       11   -1    0    0    0    0 -0.00000000000E+00 -0.00000000000E+00 -0.34996269501E-01  0.35000000000E-01  0.51099999109E-03 0.  1.
       22    1    1    2    0    0 -0.50810550436E-04 -0.11810129389E-03 -0.13945638978E-02  0.14004778087E-02  0.00000000000E+00 0. -1.
       22    1    1    2    0    0  0.10920078544E-01 -0.66145451055E-02  0.32527562955E-01  0.34943421042E-01  0.00000000000E+00 0. -1.
       22    1    1    2    0    0 -0.10869267994E-01  0.67326463994E-02 -0.31132999057E-01  0.33656101149E-01  0.00000000000E+00 0.  1.
</event>
<event>
 5   0  0.4143600E+04  0.9118800E+02  0.7546771E-02  0.1180000E+00
      -11   -1    0    0    0    0  0.00000000000E+00  0.00000000000E+00  0.34996269501E-01  0.35000000000E-01  0.51099999109E-03 0. -1.
       11   -1    0    0    0    0 -0.00000000000E+00 -0.00000000000E+00 -0.34996269501E-01  0.35000000000E-01  0.51099999109E-03 0.  1.
       22    1    1    2    0    0 -0.37062476512E-02  0.37156581715E-02  0.40464066106E-02  0.66268992566E-02  0.00000000000E+00 0.  1.
       22    1    1    2    0    0  0.14688061750E-01  0.69939048320E-02  0.25404501710E-01  0.30166911839E-01  0.00000000000E+00 0. -1.
       22    1    1    2    0    0 -0.10981814099E-01 -0.10709563003E-01 -0.29450908321E-01  0.33206188904E-01  0.00000000000E+00 0.  1.
</event>
<event>
 5   0  0.4143600E+04  0.9118800E+02  0.7546771E-02  0.1180000E+00
      -11   -1    0    0    0    0  0.00000000000E+00  0.00000000000E+00  0.34996269501E-01  0.35000000000E-01  0.51099999109E-03 0. -1.
       11   -1    0    0    0    0 -0.00000000000E+00 -0.00000000000E+00 -0.34996269501E-01  0.35000000000E-01  0.51099999109E-03 0.  1.
       22    1    1    2    0    0 -0.14248059858E-03 -0.16543210968E-02  0.34607253271E-01  0.34647064204E-01  0.00000000000E+00 0. -1.
       22    1    1    2    0    0  0.12656135495E-03  0.31888690485E-02 -0.32911501335E-01  0.33065870981E-01  0.00000000000E+00 0.  1.
       22    1    1    2    0    0  0.15919243638E-04 -0.15345479516E-02 -0.16957519359E-02  0.22870648146E-02  0.00000000000E+00 0. -1.
</event>
<event>
 5   0  0.4143600E+04  0.9118800E+02  0.7546771E-02  0.1180000E+00
      -11   -1    0    0    0    0  0.00000000000E+00  0.00000000000E+00  0.34996269501E-01  0.35000000000E-01  0.51099999109E-03 0.  1.
       11   -1    0    0    0    0 -0.00000000000E+00 -0.00000000000E+00 -0.34996269501E-01  0.35000000000E-01  0.51099999109E-03 0. -1.
       22    1    1    2    0    0  0.14751099443E-01 -0.17811219379E-01  0.24913799006E-01  0.33993114765E-01  0.00000000000E+00 0.  1.
       22    1    1    2    0    0 -0.14188113024E-01  0.18521301627E-01 -0.25768354802E-01  0.34761318651E-01  0.00000000000E+00 0. -1.
       22    1    1    2    0    0 -0.56298641820E-03 -0.71008224758E-03  0.85455579675E-03  0.12455665840E-02  0.00000000000E+00 0.  1.
</event>
<event>
 5   0  0.4143600E+04  0.9118800E+02  0.7546771E-02  0.1180000E+00
      -11   -1    0    0    0    0  0.00000000000E+00  0.00000000000E+00  0.34996269501E-01  0.35000000000E-01  0.51099999109E-03 0. -1.
       11   -1    0    0    0    0 -0.00000000000E+00 -0.00000000000E+00 -0.34996269501E-01  0.35000000000E-01  0.51099999109E-03 0.  1.
       22    1    1    2    0    0 -0.32961185363E-02  0.35177860694E-02  0.34644119137E-01  0.34977910272E-01  0.00000000000E+00 0. -1.
       22    1    1    2    0    0 -0.14467970345E-03 -0.83309311202E-04 -0.38350056764E-03  0.41826468091E-03  0.00000000000E+00 0. -1.
       22    1    1    2    0    0  0.34407982397E-02 -0.34344767582E-02 -0.34260618569E-01  0.34603825047E-01  0.00000000000E+00 0.  1.
</event>
<event>
 5   0  0.4143600E+04  0.9118800E+02  0.7546771E-02  0.1180000E+00
      -11   -1    0    0    0    0  0.00000000000E+00  0.00000000000E+00  0.34996269501E-01  0.35000000000E-01  0.51099999109E-03 0. -1.
       11   -1    0    0    0    0 -0.00000000000E+00 -0.00000000000E+00 -0.34996269501E-01  0.35000000000E-01  0.51099999109E-03 0.  1.
       22    1    1    2    0    0  0.24672773621E-03 -0.61971577935E-03  0.34953500685E-01  0.34959864593E-01  0.00000000000E+00 0. -1.
       22    1    1    2    0    0 -0.19150535984E-03  0.10138243677E-02 -0.33872491463E-01  0.33888201370E-01  0.00000000000E+00 0.  1.
       22    1    1    2    0    0 -0.55222376370E-04 -0.39410858839E-03 -0.10810092213E-02  0.11519340375E-02  0.00000000000E+00 0. -1.
</event>
<event>
 5   0  0.4143600E+04  0.9118800E+02  0.7546771E-02  0.1180000E+00
      -11   -1    0    0    0    0  0.00000000000E+00  0.00000000000E+00  0.34996269501E-01  0.35000000000E-01  0.51099999109E-03 0. -1.
       11   -1    0    0    0    0 -0.00000000000E+00 -0.00000000000E+00 -0.34996269501E-01  0.35000000000E-01  0.51099999109E-03 0.  1.
       22    1    1    2    0    0  0.15976698395E-03  0.92984244073E-04 -0.37038065791E-02  0.37084167423E-02  0.00000000000E+00 0.  1.
       22    1    1    2    0    0  0.54980235987E-02 -0.13750784365E-01  0.31500646490E-01  0.34808089051E-01  0.00000000000E+00 0. -1.
       22    1    1    2    0    0 -0.56577905826E-02  0.13657800121E-01 -0.27796839910E-01  0.31483494206E-01  0.00000000000E+00 0.  1.
</event>
<event>
 5   0  0.4143600E+04  0.9118800E+02  0.7546771E-02  0.1180000E+00
      -11   -1    0    0    0    0  0.00000000000E+00  0.00000000000E+00  0.34996269501E-01  0.35000000000E-01  0.51099999109E-03 0. -1.
       11   -1    0    0    0    0 -0.00000000000E+00 -0.00000000000E+00 -0.34996269501E-01  0.35000000000E-01  0.51099999109E-03 0.  1.
       22    1    1    2    0    0 -0.76305589296E-02  0.97877657163E-02  0.29079799267E-01  0.31617408380E-01  0.00000000000E+00 0. -1.
       22    1    1    2    0    0  0.79590512278E-02 -0.94545137574E-02 -0.32583120656E-01  0.34848157462E-01  0.00000000000E+00 0.  1.
       22    1    1    2    0    0 -0.32849229823E-03 -0.33325195884E-03  0.35033213891E-02  0.35344341574E-02  0.00000000000E+00 0.  1.
</event>
<event>
 5   0  0.4143600E+04  0.9118800E+02  0.7546771E-02  0.1180000E+00
      -11   -1    0    0    0    0  0.00000000000E+00  0.00000000000E+00  0.34996269501E-01  0.35000000000E-01  0.51099999109E-03 0.  1.
       11   -1    0    0    0    0 -0.00000000000E+00 -0.00000000000E+00 -0.34996269501E-01  0.35000000000E-01  0.51099999109E-03 0. -1.
       22    1    1    2    0    0 -0.16370449218E-01 -0.16855447965E-02 -0.30820924941E-01  0.34939405877E-01  0.00000000000E+00 0. -1.
       22    1    1    2    0    0  0.16267366314E-01  0.17512177178E-02  0.29495041407E-01  0.33729088898E-01  0.00000000000E+00 0.  1.
       22    1    1    2    0    0  0.10308290368E-03 -0.65672921229E-04  0.13258835340E-02  0.13315052247E-02  0.00000000000E+00 0.  1.
</event>
<event>
 5   0  0.4143600E+04  0.9118800E+02  0.7546771E-02  0.1180000E+00
      -11   -1    0    0    0    0  0.00000000000E+00  0.00000000000E+00  0.34996269501E-01  0.35000000000E-01  0.51099999109E-03 0. -1.
       11   -1    0    0    0    0 -0.00000000000E+00 -0.00000000000E+00 -0.34996269501E-01  0.35000000000E-01  0.51099999109E-03 0.  1.
       22    1    1    2    0    0 -0.97401913151E-02 -0.21086266833E-01 -0.52966774053E-02  0.23823449946E-01  0.00000000000E+00 0. -1.
       22    1    1    2    0    0  0.41413393038E-02 -0.26901803872E-02 -0.14129014374E-01  0.14967191083E-01  0.00000000000E+00 0. -1.
       22    1    1    2    0    0  0.55988520113E-02  0.23776447220E-01  0.19425691779E-01  0.31209358971E-01  0.00000000000E+00 0.  1.
</event>
<event>
 5   0  0.4143600E+04  0.9118800E+02  0.7546771E-02  0.1180000E+00
      -11   -1    0    0    0    0  0.00000000000E+00  0.00000000000E+00  0.34996269501E-01  0.35000000000E-01  0.51099999109E-03 0.  1.
       11   -1    0    0    0    0 -0.00000000000E+00 -0.00000000000E+00 -0.34996269501E-01  0.35000000000E-01  0.51099999109E-03 0. -1.
       22    1    1    2    0    0 -0.94115749047E-04  0.15536604370E-03 -0.68276949204E-03  0.70652003582E-03  0.00000000000E+00 0. -1.
       22    1    1    2    0    0  0.18364350417E-01  0.95996966781E-03 -0.29048123165E-01  0.34379708658E-01  0.00000000000E+00 0. -1.
       22    1    1    2    0    0 -0.18270234668E-01 -0.11153357115E-02  0.29730892657E-01  0.34913771306E-01  0.00000000000E+00 0.  1.
</event>
<event>
 5   0  0.4143600E+04  0.9118800E+02  0.7546771E-02  0.1180000E+00
      -11   -1    0    0    0    0  0.00000000000E+00  0.00000000000E+00  0.34996269501E-01  0.35000000000E-01  0.51099999109E-03 0. -1.
       11   -1    0    0    0    0 -0.00000000000E+00 -0.00000000000E+00 -0.34996269501E-01  0.35000000000E-01  0.51099999109E-03 0.  1.
       22    1    1    2    0    0 -0.66000549263E-02 -0.91251270671E-02 -0.24459581543E-01  0.26927677180E-01  0.00000000000E+00 0.  1.
       22    1    1    2    0    0  0.65670413618E-02  0.99241148399E-02  0.32697492128E-01  0.34795690524E-01  0.00000000000E+00 0. -1.
       22    1    1    2    0    0  0.33013564514E-04 -0.79898777277E-03 -0.82379105850E-02  0.82766322960E-02  0.00000000000E+00 0.  1.
</event>
<event>
 5   0  0.4143600E+04  0.9118800E+02  0.7546771E-02  0.1180000E+00
      -11   -1    0    0    0    0  0.00000000000E+00  0.00000000000E+00  0.34996269501E-01  0.35000000000E-01  0.51099999109E-03 0. -1.
       11   -1    0    0    0    0 -0.00000000000E+00 -0.00000000000E+00 -0.34996269501E-01  0.35000000000E-01  0.51099999109E-03 0.  1.
       22    1    1    2    0    0  0.19138501161E-01  0.52721923994E-02  0.27057811543E-01  0.33558954169E-01  0.00000000000E+00 0. -1.
       22    1    1    2    0    0 -0.10156481545E-04  0.59502593540E-04  0.15860448384E-02  0.15871931017E-02  0.00000000000E+00 0. -1.
       22    1    1    2    0    0 -0.19128344679E-01 -0.53316949930E-02 -0.28643856382E-01  0.34853852730E-01  0.00000000000E+00 0.  1.
</event>
<event>
 5   0  0.4143600E+04  0.9118800E+02  0.7546771E-02  0.1180000E+00
      -11   -1    0    0    0    0  0.00000000000E+00  0.00000000000E+00  0.34996269501E-01  0.35000000000E-01  0.51099999109E-03 0.  1.
       11   -1    0    0    0    0 -0.00000000000E+00 -0.00000000000E+00 -0.34996269501E-01  0.35000000000E-01  0.51099999109E-03 0. -1.
       22    1    1    2    0    0  0.87182220184E-03  0.12095165238E-02  0.34939283226E-01  0.34971081146E-01  0.00000000000E+00 0.  1.
       22    1    1    2    0    0 -0.67920187691E-03 -0.84240855705E-03 -0.33787031524E-01  0.33804355733E-01  0.00000000000E+00 0. -1.
       22    1    1    2    0    0 -0.19262032493E-03 -0.36710796673E-03 -0.11522517028E-02  0.12245631202E-02  0.00000000000E+00 0.  1.
</event>
<event>
 5   0  0.4143600E+04  0.9118800E+02  0.7546771E-02  0.1180000E+00
      -11   -1    0    0    0    0  0.00000000000E+00  0.00000000000E+00  0.34996269501E-01  0.35000000000E-01  0.51099999109E-03 0.  1.
       11   -1    0    0    0    0 -0.00000000000E+00 -0.00000000000E+00 -0.34996269501E-01  0.35000000000E-01  0.51099999109E-03 0. -1.
       22    1    1    2    0    0 -0.13392332044E-04  0.60320994135E-03 -0.13066597659E-02  0.14392363711E-02  0.00000000000E+00 0.  1.
       22    1    1    2    0    0  0.24345788002E-04  0.23012967885E-02 -0.33527162069E-01  0.33606058324E-01  0.00000000000E+00 0. -1.
       22    1    1    2    0    0 -0.10953455958E-04 -0.29045067298E-02  0.34833821835E-01  0.34954705305E-01  0.00000000000E+00 0.  1.
</event>
<event>
 5   0  0.4143600E+04  0.9118800E+02  0.7546771E-02  0.1180000E+00
      -11   -1    0    0    0    0  0.00000000000E+00  0.00000000000E+00  0.34996269501E-01  0.35000000000E-01  0.51099999109E-03 0.  1.
       11   -1    0    0    0    0 -0.00000000000E+00 -0.00000000000E+00 -0.34996269501E-01  0.35000000000E-01  0.51099999109E-03 0. -1.
       22    1    1    2    0    0 -0.10672731972E-02  0.19148157646E-01 -0.25741667039E-01  0.32100224847E-01  0.00000000000E+00 0. -1.
       22    1    1    2    0    0  0.21182603883E-03 -0.19906966579E-01  0.10298046602E-01  0.22413878568E-01  0.00000000000E+00 0.  1.
       22    1    1    2    0    0  0.85544715840E-03  0.75880893370E-03  0.15443620437E-01  0.15485896585E-01  0.00000000000E+00 0. -1.
</event>
<event>
 5   0  0.4143600E+04  0.9118800E+02  0.7546771E-02  0.1180000E+00
      -11   -1    0    0    0    0  0.00000000000E+00  0.00000000000E+00  0.34996269501E-01  0.35000000000E-01  0.51099999109E-03 0. -1.
       11   -1    0    0    0    0 -0.00000000000E+00 -0.00000000000E+00 -0.34996269501E-01  0.35000000000E-01  0.51099999109E-03 0.  1.
       22    1    1    2    0    0 -0.15767300997E-01 -0.67928681581E-02  0.30149707214E-01  0.34695182426E-01  0.00000000000E+00 0. -1.
       22    1    1    2    0    0  0.14230428861E-01  0.49249570997E-02 -0.21001877093E-01  0.25842584032E-01  0.00000000000E+00 0.  1.
       22    1    1    2    0    0  0.15368721352E-02  0.18679110584E-02 -0.91478301207E-02  0.94622335417E-02  0.00000000000E+00 0.  1.
</event>
<event>
 5   0  0.4143600E+04  0.9118800E+02  0.7546771E-02  0.1180000E+00
      -11   -1    0    0    0    0  0.00000000000E+00  0.00000000000E+00  0.34996269501E-01  0.35000000000E-01  0.51099999109E-03 0.  1.
       11   -1    0    0    0    0 -0.00000000000E+00 -0.00000000000E+00 -0.34996269501E-01  0.35000000000E-01  0.51099999109E-03 0.  1.
       22    1    1    2    0    0  0.35464557983E-03  0.90583417071E-04  0.34194000092E-01  0.34195959135E-01  0.00000000000E+00 0.  1.
       22    1    1    2    0    0 -0.28427851888E-02  0.38188100970E-02 -0.89419196574E-02  0.10130284564E-01  0.00000000000E+00 0. -1.
       22    1    1    2    0    0  0.24881396090E-02 -0.39093935140E-02 -0.25252080435E-01  0.25673756302E-01  0.00000000000E+00 0.  1.
</event>
<event>
 5   0  0.4143600E+04  0.9118800E+02  0.7546771E-02  0.1180000E+00
      -11   -1    0    0    0    0  0.00000000000E+00  0.00000000000E+00  0.34996269501E-01  0.35000000000E-01  0.51099999109E-03 0. -1.
       11   -1    0    0    0    0 -0.00000000000E+00 -0.00000000000E+00 -0.34996269501E-01  0.35000000000E-01  0.51099999109E-03 0.  1.
       22    1    1    2    0    0  0.14358284019E-01 -0.14473347596E-01  0.28359492683E-01  0.34927051634E-01  0.00000000000E+00 0. -1.
       22    1    1    2    0    0 -0.14401786729E-01  0.14565021439E-01 -0.27955035267E-01  0.34655956303E-01  0.00000000000E+00 0.  1.
       22    1    1    2    0    0  0.43502710868E-04 -0.91673842956E-04 -0.40445741612E-03  0.41699206322E-03  0.00000000000E+00 0. -1.
</event>
<event>
 5   0  0.4143600E+04  0.9118800E+02  0.7546771E-02  0.1180000E+00
      -11   -1    0    0    0    0  0.00000000000E+00  0.00000000000E+00  0.34996269501E-01  0.35000000000E-01  0.51099999109E-03 0. -1.
       11   -1    0    0    0    0 -0.00000000000E+00 -0.00000000000E+00 -0.34996269501E-01  0.35000000000E-01  0.51099999109E-03 0.  1.
       22    1    1    2    0    0  0.91574756848E-03  0.61699604787E-03  0.34961808712E-01  0.34979241646E-01  0.00000000000E+00 0. -1.
       22    1    1    2    0    0 -0.74920317077E-03 -0.60679444508E-03 -0.34678978116E-01  0.34692377089E-01  0.00000000000E+00 0.  1.
       22    1    1    2    0    0 -0.16654439772E-03 -0.10201602789E-04 -0.28283059620E-03  0.32838126508E-03  0.00000000000E+00 0. -1.
</event>
<event>
 5   0  0.4143600E+04  0.9118800E+02  0.7546771E-02  0.1180000E+00
      -11   -1    0    0    0    0  0.00000000000E+00  0.00000000000E+00  0.34996269501E-01  0.35000000000E-01  0.51099999109E-03 0. -1.
       11   -1    0    0    0    0 -0.00000000000E+00 -0.00000000000E+00 -0.34996269501E-01  0.35000000000E-01  0.51099999109E-03 0.  1.
       22    1    1    2    0    0 -0.56025109873E-03  0.10866414359E-02 -0.66098714759E-02  0.67219842183E-02  0.00000000000E+00 0. -1.
       22    1    1    2    0    0  0.17880245017E-02 -0.17075473766E-01 -0.23535837790E-01  0.29132533299E-01  0.00000000000E+00 0.  1.
       22    1    1    2    0    0 -0.12277734030E-02  0.15988832330E-01  0.30145709266E-01  0.34145482482E-01  0.00000000000E+00 0. -1.
</event>
<event>
 5   0  0.4143600E+04  0.9118800E+02  0.7546771E-02  0.1180000E+00
      -11   -1    0    0    0    0  0.00000000000E+00  0.00000000000E+00  0.34996269501E-01  0.35000000000E-01  0.51099999109E-03 0. -1.
       11   -1    0    0    0    0 -0.00000000000E+00 -0.00000000000E+00 -0.34996269501E-01  0.35000000000E-01  0.51099999109E-03 0.  1.
       22    1    1    2    0    0  0.17862053236E-02 -0.29808398053E-02  0.46003357350E-03  0.35053625050E-02  0.00000000000E+00 0. -1.
       22    1    1    2    0    0  0.10341364378E-01  0.90419076740E-02  0.30086711703E-01  0.33074312278E-01  0.00000000000E+00 0. -1.
       22    1    1    2    0    0 -0.12127569702E-01 -0.60610678687E-02 -0.30546745277E-01  0.33420325216E-01  0.00000000000E+00 0.  1.
</event>
<event>
 5   0  0.4143600E+04  0.9118800E+02  0.7546771E-02  0.1180000E+00
      -11   -1    0    0    0    0  0.00000000000E+00  0.00000000000E+00  0.34996269501E-01  0.35000000000E-01  0.51099999109E-03 0.  1.
       11   -1    0    0    0    0 -0.00000000000E+00 -0.00000000000E+00 -0.34996269501E-01  0.35000000000E-01  0.51099999109E-03 0. -1.
       22    1    1    2    0    0 -0.38786750536E-02 -0.11723774165E-01 -0.32439379332E-01  0.34710291447E-01  0.00000000000E+00 0. -1.
       22    1    1    2    0    0  0.43105026964E-02  0.12376372971E-01  0.30841854457E-01  0.33510819562E-01  0.00000000000E+00 0.  1.
       22    1    1    2    0    0 -0.43182764286E-03 -0.65259880594E-03  0.15975248755E-02  0.17788889910E-02  0.00000000000E+00 0.  1.
</event>
<event>
 5   0  0.4143600E+04  0.9118800E+02  0.7546771E-02  0.1180000E+00
      -11   -1    0    0    0    0  0.00000000000E+00  0.00000000000E+00  0.34996269501E-01  0.35000000000E-01  0.51099999109E-03 0. -1.
       11   -1    0    0    0    0 -0.00000000000E+00 -0.00000000000E+00 -0.34996269501E-01  0.35000000000E-01  0.51099999109E-03 0.  1.
       22    1    1    2    0    0  0.27435378228E-03 -0.36990191907E-03 -0.98048345535E-03  0.10832567719E-02  0.00000000000E+00 0.  1.
       22    1    1    2    0    0  0.10399063713E-01 -0.24172387457E-01  0.22463254567E-01  0.34598304110E-01  0.00000000000E+00 0. -1.
       22    1    1    2    0    0 -0.10673417496E-01  0.24542289377E-01 -0.21482771112E-01  0.34318439118E-01  0.00000000000E+00 0.  1.
</event>
<event>
 5   0  0.4143600E+04  0.9118800E+02  0.7546771E-02  0.1180000E+00
      -11   -1    0    0    0    0  0.00000000000E+00  0.00000000000E+00  0.34996269501E-01  0.35000000000E-01  0.51099999109E-03 0.  1.
       11   -1    0    0    0    0 -0.00000000000E+00 -0.00000000000E+00 -0.34996269501E-01  0.35000000000E-01  0.51099999109E-03 0. -1.
       22    1    1    2    0    0 -0.14674327819E-02  0.39839045487E-02  0.37673238928E-02  0.56760535353E-02  0.00000000000E+00 0. -1.
       22    1    1    2    0    0  0.10723757625E-01 -0.11488924495E-01  0.27049301747E-01  0.31283527433E-01  0.00000000000E+00 0.  1.
       22    1    1    2    0    0 -0.92563248434E-02  0.75050199465E-02 -0.30816625639E-01  0.33040419032E-01  0.00000000000E+00 0. -1.
</event>
<event>
 5   0  0.4143600E+04  0.9118800E+02  0.7546771E-02  0.1180000E+00
      -11   -1    0    0    0    0  0.00000000000E+00  0.00000000000E+00  0.34996269501E-01  0.35000000000E-01  0.51099999109E-03 0. -1.
       11   -1    0    0    0    0 -0.00000000000E+00 -0.00000000000E+00 -0.34996269501E-01  0.35000000000E-01  0.51099999109E-03 0.  1.
       22    1    1    2    0    0  0.47605868338E-02  0.10443042055E-02 -0.10760175958E-02  0.49911493809E-02  0.00000000000E+00 0.  1.
       22    1    1    2    0    0 -0.53124349943E-03  0.14127738163E-01  0.29387322493E-01  0.32611193302E-01  0.00000000000E+00 0. -1.
       22    1    1    2    0    0 -0.42293433344E-02 -0.15172042369E-01 -0.28311304897E-01  0.32397657317E-01  0.00000000000E+00 0.  1.
</event>
<event>
 5   0  0.4143600E+04  0.9118800E+02  0.7546771E-02  0.1180000E+00
      -11   -1    0    0    0    0  0.00000000000E+00  0.00000000000E+00  0.34996269501E-01  0.35000000000E-01  0.51099999109E-03 0. -1.
       11   -1    0    0    0    0 -0.00000000000E+00 -0.00000000000E+00 -0.34996269501E-01  0.35000000000E-01  0.51099999109E-03 0.  1.
       22    1    1    2    0    0  0.69598846557E-03 -0.26122952069E-02 -0.32754791806E-01  0.32866166075E-01  0.00000000000E+00 0.  1.
       22    1    1    2    0    0 -0.35361397206E-03  0.11464003009E-02  0.34673966825E-01  0.34694715043E-01  0.00000000000E+00 0. -1.
       22    1    1    2    0    0 -0.34237449351E-03  0.14658949060E-02 -0.19191750189E-02  0.24391188824E-02  0.00000000000E+00 0. -1.
</event>
<event>
 5   0  0.4143600E+04  0.9118800E+02  0.7546771E-02  0.1180000E+00
      -11   -1    0    0    0    0  0.00000000000E+00  0.00000000000E+00  0.34996269501E-01  0.35000000000E-01  0.51099999109E-03 0.  1.
       11   -1    0    0    0    0 -0.00000000000E+00 -0.00000000000E+00 -0.34996269501E-01  0.35000000000E-01  0.51099999109E-03 0. -1.
       22    1    1    2    0    0  0.16630203723E-02 -0.17230291482E-01 -0.28722181364E-01  0.33535239429E-01  0.00000000000E+00 0. -1.
       22    1    1    2    0    0  0.27805392978E-02  0.14562483536E-01  0.27339543248E-01  0.31100610131E-01  0.00000000000E+00 0. -1.
       22    1    1    2    0    0 -0.44435596701E-02  0.26678079458E-02  0.13826381152E-02  0.53641504393E-02  0.00000000000E+00 0.  1.
</event>
<event>
 5   0  0.4143600E+04  0.9118800E+02  0.7546771E-02  0.1180000E+00
      -11   -1    0    0    0    0  0.00000000000E+00  0.00000000000E+00  0.34996269501E-01  0.35000000000E-01  0.51099999109E-03 0. -1.
       11   -1    0    0    0    0 -0.00000000000E+00 -0.00000000000E+00 -0.34996269501E-01  0.35000000000E-01  0.51099999109E-03 0. -1.
       22    1    1    2    0    0  0.26786922336E-03 -0.21050969185E-03 -0.71785688425E-03  0.79459848820E-03  0.00000000000E+00 0.  1.
       22    1    1    2    0    0 -0.35376825133E-03  0.13079236279E-04  0.34960394597E-01  0.34962186908E-01  0.00000000000E+00 0. -1.
       22    1    1    2    0    0  0.85899027969E-04  0.19743045557E-03 -0.34242537712E-01  0.34243214604E-01  0.00000000000E+00 0. -1.
</event>
<event>
 5   0  0.4143600E+04  0.9118800E+02  0.7546771E-02  0.1180000E+00
      -11   -1    0    0    0    0  0.00000000000E+00  0.00000000000E+00  0.34996269501E-01  0.35000000000E-01  0.51099999109E-03 0.  1.
       11   -1    0    0    0    0 -0.00000000000E+00 -0.00000000000E+00 -0.34996269501E-01  0.35000000000E-01  0.51099999109E-03 0. -1.
       22    1    1    2    0    0 -0.21053857492E-04  0.53031646081E-04  0.17455268530E-02  0.17464591650E-02  0.00000000000E+00 0. -1.
       22    1    1    2    0    0 -0.71278615686E-02  0.10929998833E-01  0.30647695440E-01  0.33309946275E-01  0.00000000000E+00 0.  1.
       22    1    1    2    0    0  0.71489154261E-02 -0.10983030479E-01 -0.32393222293E-01  0.34943594560E-01  0.00000000000E+00 0. -1.
</event>
<event>
 5   0  0.4143600E+04  0.9118800E+02  0.7546771E-02  0.1180000E+00
      -11   -1    0    0    0    0  0.00000000000E+00  0.00000000000E+00  0.34996269501E-01  0.35000000000E-01  0.51099999109E-03 0. -1.
       11   -1    0    0    0    0 -0.00000000000E+00 -0.00000000000E+00 -0.34996269501E-01  0.35000000000E-01  0.51099999109E-03 0. -1.
       22    1    1    2    0    0  0.32330597699E-02 -0.19048379657E-02 -0.55519843919E-02  0.67011651106E-02  0.00000000000E+00 0.  1.
       22    1    1    2    0    0 -0.32330597699E-02  0.19048379657E-02 -0.28751988487E-01  0.28995825994E-01  0.00000000000E+00 0. -1.
       22    1    1    2    0    0  0.00000000000E+00  0.00000000000E+00  0.34303972879E-01  0.34303008895E-01  0.00000000000E+00 0. -1.
</event>
<event>
 5   0  0.4143600E+04  0.9118800E+02  0.7546771E-02  0.1180000E+00
      -11   -1    0    0    0    0  0.00000000000E+00  0.00000000000E+00  0.34996269501E-01  0.35000000000E-01  0.51099999109E-03 0. -1.
       11   -1    0    0    0    0 -0.00000000000E+00 -0.00000000000E+00 -0.34996269501E-01  0.35000000000E-01  0.51099999109E-03 0.  1.
       22    1    1    2    0    0 -0.69745967497E-03 -0.56953119525E-02 -0.34091729888E-01  0.34571217436E-01  0.00000000000E+00 0.  1.
       22    1    1    2    0    0  0.83947502870E-03  0.57392011252E-02  0.34505248392E-01  0.34989360018E-01  0.00000000000E+00 0. -1.
       22    1    1    2    0    0 -0.14201535373E-03 -0.43889172718E-04 -0.41351850399E-03  0.43942254530E-03  0.00000000000E+00 0.  1.
</event>
<event>
 5   0  0.4143600E+04  0.9118800E+02  0.7546771E-02  0.1180000E+00
      -11   -1    0    0    0    0  0.00000000000E+00  0.00000000000E+00  0.34996269501E-01  0.35000000000E-01  0.51099999109E-03 0. -1.
       11   -1    0    0    0    0 -0.00000000000E+00 -0.00000000000E+00 -0.34996269501E-01  0.35000000000E-01  0.51099999109E-03 0.  1.
       22    1    1    2    0    0 -0.15390786740E-01 -0.10208426303E-01  0.25548951365E-02  0.18644456904E-01  0.00000000000E+00 0.  1.
       22    1    1    2    0    0  0.93152801278E-02 -0.35560904572E-02 -0.23522353740E-01  0.25548411862E-01  0.00000000000E+00 0.  1.
       22    1    1    2    0    0  0.60755066127E-02  0.13764516761E-01  0.20967458603E-01  0.25807131234E-01  0.00000000000E+00 0. -1.
</event>
<event>
 5   0  0.4143600E+04  0.9118800E+02  0.7546771E-02  0.1180000E+00
      -11   -1    0    0    0    0  0.00000000000E+00  0.00000000000E+00  0.34996269501E-01  0.35000000000E-01  0.51099999109E-03 0.  1.
       11   -1    0    0    0    0 -0.00000000000E+00 -0.00000000000E+00 -0.34996269501E-01  0.35000000000E-01  0.51099999109E-03 0. -1.
       22    1    1    2    0    0 -0.10141728121E-01  0.71508518088E-02  0.19739050152E-01  0.23315647788E-01  0.00000000000E+00 0. -1.
       22    1    1    2    0    0  0.78138220084E-02 -0.18974079296E-01  0.32045911015E-02  0.20768748244E-01  0.00000000000E+00 0.  1.
       22    1    1    2    0    0  0.23279061127E-02  0.11823227487E-01 -0.22943641253E-01  0.25915603968E-01  0.00000000000E+00 0. -1.
</event>
<event>
 5   0  0.4143600E+04  0.9118800E+02  0.7546771E-02  0.1180000E+00
      -11   -1    0    0    0    0  0.00000000000E+00  0.00000000000E+00  0.34996269501E-01  0.35000000000E-01  0.51099999109E-03 0.  1.
       11   -1    0    0    0    0 -0.00000000000E+00 -0.00000000000E+00 -0.34996269501E-01  0.35000000000E-01  0.51099999109E-03 0. -1.
       22    1    1    2    0    0  0.11304126902E-01  0.13091859133E-01  0.23035250273E-01  0.28806298195E-01  0.00000000000E+00 0.  1.
       22    1    1    2    0    0 -0.25739990003E-03 -0.68603209990E-04  0.68061563503E-02  0.68113673645E-02  0.00000000000E+00 0.  1.
       22    1    1    2    0    0 -0.11046727002E-01 -0.13023255923E-01 -0.29841406623E-01  0.34382334440E-01  0.00000000000E+00 0. -1.
</event>
<event>
 5   0  0.4143600E+04  0.9118800E+02  0.7546771E-02  0.1180000E+00
      -11   -1    0    0    0    0  0.00000000000E+00  0.00000000000E+00  0.34996269501E-01  0.35000000000E-01  0.51099999109E-03 0.  1.
       11   -1    0    0    0    0 -0.00000000000E+00 -0.00000000000E+00 -0.34996269501E-01  0.35000000000E-01  0.51099999109E-03 0. -1.
       22    1    1    2    0    0 -0.33525548429E-03 -0.12445013082E-02 -0.48551168050E-02  0.50232796992E-02  0.00000000000E+00 0. -1.
       22    1    1    2    0    0  0.14415710709E-01  0.81820273087E-03 -0.26736751814E-01  0.30386445473E-01  0.00000000000E+00 0. -1.
       22    1    1    2    0    0 -0.14080455225E-01  0.42629857737E-03  0.31591868619E-01  0.34590274827E-01  0.00000000000E+00 0.  1.
</event>
<event>
 5   0  0.4143600E+04  0.9118800E+02  0.7546771E-02  0.1180000E+00
      -11   -1    0    0    0    0  0.00000000000E+00  0.00000000000E+00  0.34996269501E-01  0.35000000000E-01  0.51099999109E-03 0. -1.
       11   -1    0    0    0    0 -0.00000000000E+00 -0.00000000000E+00 -0.34996269501E-01  0.35000000000E-01  0.51099999109E-03 0.  1.
       22    1    1    2    0    0  0.10566744275E-01  0.17290568417E-02 -0.13829602753E-01  0.17490101041E-01  0.00000000000E+00 0.  1.
       22    1    1    2    0    0 -0.10699887327E-01 -0.65414608311E-02 -0.17101120326E-01  0.21206758711E-01  0.00000000000E+00 0.  1.
       22    1    1    2    0    0  0.13314305252E-03  0.48124039894E-02  0.30930723079E-01  0.31303140248E-01  0.00000000000E+00 0. -1.
</event>
<event>
 5   0  0.4143600E+04  0.9118800E+02  0.7546771E-02  0.1180000E+00
      -11   -1    0    0    0    0  0.00000000000E+00  0.00000000000E+00  0.34996269501E-01  0.35000000000E-01  0.51099999109E-03 0.  1.
       11   -1    0    0    0    0 -0.00000000000E+00 -0.00000000000E+00 -0.34996269501E-01  0.35000000000E-01  0.51099999109E-03 0. -1.
       22    1    1    2    0    0 -0.10205502247E-03 -0.64862065729E-03 -0.37206946160E-02  0.37781863916E-02  0.00000000000E+00 0. -1.
       22    1    1    2    0    0  0.15091009532E-01 -0.41283857728E-02 -0.27285577015E-01  0.31452898926E-01  0.00000000000E+00 0. -1.
       22    1    1    2    0    0 -0.14988954510E-01  0.47770064300E-02  0.31006271631E-01  0.34768914682E-01  0.00000000000E+00 0.  1.
</event>
<event>
 5   0  0.4143600E+04  0.9118800E+02  0.7546771E-02  0.1180000E+00
      -11   -1    0    0    0    0  0.00000000000E+00  0.00000000000E+00  0.34996269501E-01  0.35000000000E-01  0.51099999109E-03 0.  1.
       11   -1    0    0    0    0 -0.00000000000E+00 -0.00000000000E+00 -0.34996269501E-01  0.35000000000E-01  0.51099999109E-03 0. -1.
       22    1    1    2    0    0 -0.48293657412E-02 -0.33372999304E-02 -0.13690521589E-02  0.60278228327E-02  0.00000000000E+00 0. -1.
       22    1    1    2    0    0  0.19653839594E-02  0.16728330972E-01  0.28771184497E-01  0.33338878934E-01  0.00000000000E+00 0.  1.
       22    1    1    2    0    0  0.28639817818E-02 -0.13391031042E-01 -0.27402132338E-01  0.30633298234E-01  0.00000000000E+00 0. -1.
</event>
<event>
 5   0  0.4143600E+04  0.9118800E+02  0.7546771E-02  0.1180000E+00
      -11   -1    0    0    0    0  0.00000000000E+00  0.00000000000E+00  0.34996269501E-01  0.35000000000E-01  0.51099999109E-03 0.  1.
       11   -1    0    0    0    0 -0.00000000000E+00 -0.00000000000E+00 -0.34996269501E-01  0.35000000000E-01  0.51099999109E-03 0. -1.
       22    1    1    2    0    0 -0.18148443156E-04  0.11911836026E-02 -0.32479013297E-01  0.32500854642E-01  0.00000000000E+00 0. -1.
       22    1    1    2    0    0 -0.10462645035E-02  0.87868780184E-03 -0.22822929228E-02  0.26600042575E-02  0.00000000000E+00 0. -1.
       22    1    1    2    0    0  0.10644129467E-02 -0.20698714044E-02  0.34761306219E-01  0.34839141101E-01  0.00000000000E+00 0.  1.
</event>
<event>
 5   0  0.4143600E+04  0.9118800E+02  0.7546771E-02  0.1180000E+00
      -11   -1    0    0    0    0  0.00000000000E+00  0.00000000000E+00  0.34996269501E-01  0.35000000000E-01  0.51099999109E-03 0.  1.
       11   -1    0    0    0    0 -0.00000000000E+00 -0.00000000000E+00 -0.34996269501E-01  0.35000000000E-01  0.51099999109E-03 0. -1.
       22    1    1    2    0    0  0.88309266742E-02  0.11968295470E-01  0.28939455074E-01  0.32537938200E-01  0.00000000000E+00 0.  1.
       22    1    1    2    0    0 -0.88039799787E-02 -0.11943827453E-01 -0.31542793180E-01  0.34858469262E-01  0.00000000000E+00 0. -1.
       22    1    1    2    0    0 -0.26946695436E-04 -0.24468017026E-04  0.26033381061E-02  0.26035925378E-02  0.00000000000E+00 0.  1.
</event>
<event>
 5   0  0.4143600E+04  0.9118800E+02  0.7546771E-02  0.1180000E+00
      -11   -1    0    0    0    0  0.00000000000E+00  0.00000000000E+00  0.34996269501E-01  0.35000000000E-01  0.51099999109E-03 0.  1.
       11   -1    0    0    0    0 -0.00000000000E+00 -0.00000000000E+00 -0.34996269501E-01  0.35000000000E-01  0.51099999109E-03 0. -1.
       22    1    1    2    0    0  0.85728667126E-03  0.15024393137E-03 -0.22983618369E-01  0.23000091891E-01  0.00000000000E+00 0. -1.
       22    1    1    2    0    0  0.69708358931E-02 -0.10716689335E-02  0.33287768455E-01  0.34026703573E-01  0.00000000000E+00 0.  1.
       22    1    1    2    0    0 -0.78281225643E-02  0.92142500209E-03 -0.10304150086E-01  0.12973204535E-01  0.00000000000E+00 0. -1.
</event>
<event>
 5   0  0.4143600E+04  0.9118800E+02  0.7546771E-02  0.1180000E+00
      -11   -1    0    0    0    0  0.00000000000E+00  0.00000000000E+00  0.34996269501E-01  0.35000000000E-01  0.51099999109E-03 0.  1.
       11   -1    0    0    0    0 -0.00000000000E+00 -0.00000000000E+00 -0.34996269501E-01  0.35000000000E-01  0.51099999109E-03 0. -1.
       22    1    1    2    0    0 -0.11373494894E-01 -0.57771348008E-02 -0.26162151485E-01  0.29106525779E-01  0.00000000000E+00 0. -1.
       22    1    1    2    0    0  0.11604226747E-01  0.55316418361E-02  0.32290777017E-01  0.34755595523E-01  0.00000000000E+00 0.  1.
       22    1    1    2    0    0 -0.23073185252E-03  0.24549296464E-03 -0.61286255326E-02  0.61378786973E-02  0.00000000000E+00 0. -1.
</event>
<event>
 5   0  0.4143600E+04  0.9118800E+02  0.7546771E-02  0.1180000E+00
      -11   -1    0    0    0    0  0.00000000000E+00  0.00000000000E+00  0.34996269501E-01  0.35000000000E-01  0.51099999109E-03 0.  1.
       11   -1    0    0    0    0 -0.00000000000E+00 -0.00000000000E+00 -0.34996269501E-01  0.35000000000E-01  0.51099999109E-03 0. -1.
       22    1    1    2    0    0  0.43561369947E-04  0.30873091241E-04 -0.48608440732E-03  0.48900796696E-03  0.00000000000E+00 0.  1.
       22    1    1    2    0    0  0.21944056776E-01 -0.10791552228E-01 -0.24440859680E-01  0.34573904164E-01  0.00000000000E+00 0. -1.
       22    1    1    2    0    0 -0.21987618146E-01  0.10760679137E-01  0.24926944087E-01  0.34937087869E-01  0.00000000000E+00 0.  1.
</event>
<event>
 5   0  0.4143600E+04  0.9118800E+02  0.7546771E-02  0.1180000E+00
      -11   -1    0    0    0    0  0.00000000000E+00  0.00000000000E+00  0.34996269501E-01  0.35000000000E-01  0.51099999109E-03 0.  1.
       11   -1    0    0    0    0 -0.00000000000E+00 -0.00000000000E+00 -0.34996269501E-01  0.35000000000E-01  0.51099999109E-03 0. -1.
       22    1    1    2    0    0  0.21066135213E-02 -0.16617239037E-01  0.30089736346E-01  0.34437808977E-01  0.00000000000E+00 0.  1.
       22    1    1    2    0    0 -0.21016092564E-02  0.16762230849E-01 -0.30642480956E-01  0.34990724251E-01  0.00000000000E+00 0. -1.
       22    1    1    2    0    0 -0.50042649010E-05 -0.14499181273E-03  0.55274460948E-03  0.57146677220E-03  0.00000000000E+00 0. -1.
</event>
<event>
 5   0  0.4143600E+04  0.9118800E+02  0.7546771E-02  0.1180000E+00
      -11   -1    0    0    0    0  0.00000000000E+00  0.00000000000E+00  0.34996269501E-01  0.35000000000E-01  0.51099999109E-03 0. -1.
       11   -1    0    0    0    0 -0.00000000000E+00 -0.00000000000E+00 -0.34996269501E-01  0.35000000000E-01  0.51099999109E-03 0.  1.
       22    1    1    2    0    0  0.14178785216E-01  0.18775652581E-01 -0.25885786998E-01  0.34980523846E-01  0.00000000000E+00 0. -1.
       22    1    1    2    0    0 -0.11620682511E-02 -0.21159398143E-02  0.21436844371E-02  0.32284650972E-02  0.00000000000E+00 0. -1.
       22    1    1    2    0    0 -0.13016716965E-01 -0.16659712767E-01  0.23742102561E-01  0.31791011057E-01  0.00000000000E+00 0.  1.
</event>
<event>
 5   0  0.4143600E+04  0.9118800E+02  0.7546771E-02  0.1180000E+00
      -11   -1    0    0    0    0  0.00000000000E+00  0.00000000000E+00  0.34996269501E-01  0.35000000000E-01  0.51099999109E-03 0. -1.
       11   -1    0    0    0    0 -0.00000000000E+00 -0.00000000000E+00 -0.34996269501E-01  0.35000000000E-01  0.51099999109E-03 0.  1.
       22    1    1    2    0    0 -0.20222913892E-01  0.69593207532E-02 -0.27463395222E-01  0.34808568898E-01  0.00000000000E+00 0.  1.
       22    1    1    2    0    0  0.20182766079E-01 -0.70073735851E-02  0.25672622799E-01  0.33399564257E-01  0.00000000000E+00 0. -1.
       22    1    1    2    0    0  0.40147812939E-04  0.48052831859E-04  0.17907724228E-02  0.17918668454E-02  0.00000000000E+00 0.  1.
</event>
<event>
 5   0  0.4143600E+04  0.9118800E+02  0.7546771E-02  0.1180000E+00
      -11   -1    0    0    0    0  0.00000000000E+00  0.00000000000E+00  0.34996269501E-01  0.35000000000E-01  0.51099999109E-03 0.  1.
       11   -1    0    0    0    0 -0.00000000000E+00 -0.00000000000E+00 -0.34996269501E-01  0.35000000000E-01  0.51099999109E-03 0. -1.
       22    1    1    2    0    0 -0.10368076733E-02 -0.27980986103E-02  0.59722500200E-02  0.66762336901E-02  0.00000000000E+00 0.  1.
       22    1    1    2    0    0 -0.11558750000E-01 -0.22935047472E-02  0.26021264113E-01  0.28565207012E-01  0.00000000000E+00 0.  1.
       22    1    1    2    0    0  0.12595557673E-01  0.50916033575E-02 -0.31993514133E-01  0.34758559298E-01  0.00000000000E+00 0. -1.
</event>
<event>
 5   0  0.4143600E+04  0.9118800E+02  0.7546771E-02  0.1180000E+00
      -11   -1    0    0    0    0  0.00000000000E+00  0.00000000000E+00  0.34996269501E-01  0.35000000000E-01  0.51099999109E-03 0.  1.
       11   -1    0    0    0    0 -0.00000000000E+00 -0.00000000000E+00 -0.34996269501E-01  0.35000000000E-01  0.51099999109E-03 0. -1.
       22    1    1    2    0    0 -0.61489212359E-03  0.71992819312E-04  0.10821744058E-01  0.10839438166E-01  0.00000000000E+00 0.  1.
       22    1    1    2    0    0 -0.13847631326E-01  0.86787274795E-02 -0.29651215378E-01  0.33856635648E-01  0.00000000000E+00 0. -1.
       22    1    1    2    0    0  0.14462523450E-01 -0.87507202988E-02  0.18829471320E-01  0.25303926187E-01  0.00000000000E+00 0.  1.
</event>
<event>
 5   0  0.4143600E+04  0.9118800E+02  0.7546771E-02  0.1180000E+00
      -11   -1    0    0    0    0  0.00000000000E+00  0.00000000000E+00  0.34996269501E-01  0.35000000000E-01  0.51099999109E-03 0. -1.
       11   -1    0    0    0    0 -0.00000000000E+00 -0.00000000000E+00 -0.34996269501E-01  0.35000000000E-01  0.51099999109E-03 0. -1.
       22    1    1    2    0    0 -0.14363678057E-02 -0.15465611523E-02 -0.28992432575E-01  0.29069161503E-01  0.00000000000E+00 0. -1.
       22    1    1    2    0    0  0.00000000000E+00 -0.00000000000E+00  0.34776761596E-01  0.34773447321E-01  0.00000000000E+00 0. -1.
       22    1    1    2    0    0  0.14363678057E-02  0.15465611523E-02 -0.57843290212E-02  0.61573911762E-02  0.00000000000E+00 0.  1.
</event>
<event>
 5   0  0.4143600E+04  0.9118800E+02  0.7546771E-02  0.1180000E+00
      -11   -1    0    0    0    0  0.00000000000E+00  0.00000000000E+00  0.34996269501E-01  0.35000000000E-01  0.51099999109E-03 0. -1.
       11   -1    0    0    0    0 -0.00000000000E+00 -0.00000000000E+00 -0.34996269501E-01  0.35000000000E-01  0.51099999109E-03 0.  1.
       22    1    1    2    0    0 -0.22039844554E-02  0.13499928887E-01 -0.26852978538E-01  0.30136159075E-01  0.00000000000E+00 0.  1.
       22    1    1    2    0    0 -0.55184055895E-02  0.55270181567E-02  0.12753098257E-01  0.14954673019E-01  0.00000000000E+00 0.  1.
       22    1    1    2    0    0  0.77223900449E-02 -0.19026947044E-01  0.14099880281E-01  0.24909167905E-01  0.00000000000E+00 0. -1.
</event>
<event>
 5   0  0.4143600E+04  0.9118800E+02  0.7546771E-02  0.1180000E+00
      -11   -1    0    0    0    0  0.00000000000E+00  0.00000000000E+00  0.34996269501E-01  0.35000000000E-01  0.51099999109E-03 0.  1.
       11   -1    0    0    0    0 -0.00000000000E+00 -0.00000000000E+00 -0.34996269501E-01  0.35000000000E-01  0.51099999109E-03 0. -1.
       22    1    1    2    0    0  0.13767295005E-01  0.56366772128E-02  0.31365128449E-01  0.34714288476E-01  0.00000000000E+00 0.  1.
       22    1    1    2    0    0 -0.13989051235E-01 -0.61629710420E-02 -0.31104727512E-01  0.34658041493E-01  0.00000000000E+00 0. -1.
       22    1    1    2    0    0  0.22175622967E-03  0.52629382914E-03 -0.26040093739E-03  0.62767003129E-03  0.00000000000E+00 0.  1.
</event>
<event>
 5   0  0.4143600E+04  0.9118800E+02  0.7546771E-02  0.1180000E+00
      -11   -1    0    0    0    0  0.00000000000E+00  0.00000000000E+00  0.34996269501E-01  0.35000000000E-01  0.51099999109E-03 0. -1.
       11   -1    0    0    0    0 -0.00000000000E+00 -0.00000000000E+00 -0.34996269501E-01  0.35000000000E-01  0.51099999109E-03 0.  1.
       22    1    1    2    0    0  0.12705176353E-01  0.40937954737E-02 -0.32313895236E-01  0.34962386830E-01  0.00000000000E+00 0.  1.
       22    1    1    2    0    0 -0.12705637237E-01 -0.40864414949E-02  0.31338685354E-01  0.34062375451E-01  0.00000000000E+00 0. -1.
       22    1    1    2    0    0  0.46088375074E-06 -0.73539788482E-05  0.97520988218E-03  0.97523771857E-03  0.00000000000E+00 0.  1.
</event>
<event>
 5   0  0.4143600E+04  0.9118800E+02  0.7546771E-02  0.1180000E+00
      -11   -1    0    0    0    0  0.00000000000E+00  0.00000000000E+00  0.34996269501E-01  0.35000000000E-01  0.51099999109E-03 0. -1.
       11   -1    0    0    0    0 -0.00000000000E+00 -0.00000000000E+00 -0.34996269501E-01  0.35000000000E-01  0.51099999109E-03 0.  1.
       22    1    1    2    0    0  0.21814332878E-01 -0.73778877019E-02 -0.25287511841E-01  0.34201704650E-01  0.00000000000E+00 0.  1.
       22    1    1    2    0    0 -0.61634578504E-02 -0.18016380114E-02  0.30824334127E-02  0.71228862087E-02  0.00000000000E+00 0. -1.
       22    1    1    2    0    0 -0.15650875027E-01  0.91795257132E-02  0.22205078428E-01  0.28675409142E-01  0.00000000000E+00 0. -1.
</event>
<event>
 5   0  0.4143600E+04  0.9118800E+02  0.7546771E-02  0.1180000E+00
      -11   -1    0    0    0    0  0.00000000000E+00  0.00000000000E+00  0.34996269501E-01  0.35000000000E-01  0.51099999109E-03 0.  1.
       11   -1    0    0    0    0 -0.00000000000E+00 -0.00000000000E+00 -0.34996269501E-01  0.35000000000E-01  0.51099999109E-03 0. -1.
       22    1    1    2    0    0 -0.16547533307E-02 -0.61222703020E-03 -0.33805400171E-01  0.33851412249E-01  0.00000000000E+00 0. -1.
       22    1    1    2    0    0  0.15161409408E-02  0.10706013467E-02  0.34902350885E-01  0.34951666168E-01  0.00000000000E+00 0.  1.
       22    1    1    2    0    0  0.13861238996E-03 -0.45837431654E-03 -0.10969507137E-02  0.11969215835E-02  0.00000000000E+00 0. -1.
</event>
<event>
 5   0  0.4143600E+04  0.9118800E+02  0.7546771E-02  0.1180000E+00
      -11   -1    0    0    0    0  0.00000000000E+00  0.00000000000E+00  0.34996269501E-01  0.35000000000E-01  0.51099999109E-03 0. -1.
       11   -1    0    0    0    0 -0.00000000000E+00 -0.00000000000E+00 -0.34996269501E-01  0.35000000000E-01  0.51099999109E-03 0. -1.
       22    1    1    2    0    0  0.00000000000E+00 -0.00000000000E+00  0.87725134645E-02  0.87722458923E-02  0.00000000000E+00 0. -1.
       22    1    1    2    0    0 -0.99544200726E-02  0.13119002052E-01 -0.30083082717E-01  0.34295634702E-01  0.00000000000E+00 0. -1.
       22    1    1    2    0    0  0.99544200726E-02 -0.13119002052E-01  0.21310569253E-01  0.26932119406E-01  0.00000000000E+00 0.  1.
</event>
<event>
 5   0  0.4143600E+04  0.9118800E+02  0.7546771E-02  0.1180000E+00
      -11   -1    0    0    0    0  0.00000000000E+00  0.00000000000E+00  0.34996269501E-01  0.35000000000E-01  0.51099999109E-03 0. -1.
       11   -1    0    0    0    0 -0.00000000000E+00 -0.00000000000E+00 -0.34996269501E-01  0.35000000000E-01  0.51099999109E-03 0.  1.
       22    1    1    2    0    0 -0.58036806092E-02 -0.12374067023E-01 -0.28931336708E-01  0.31997226239E-01  0.00000000000E+00 0.  1.
       22    1    1    2    0    0  0.12041727361E-02  0.15608254929E-01  0.28304465380E-01  0.32345176060E-01  0.00000000000E+00 0. -1.
       22    1    1    2    0    0  0.45995078731E-02 -0.32341879052E-02  0.62687132755E-03  0.56575977007E-02  0.00000000000E+00 0. -1.
</event>
<event>
 5   0  0.4143600E+04  0.9118800E+02  0.7546771E-02  0.1180000E+00
      -11   -1    0    0    0    0  0.00000000000E+00  0.00000000000E+00  0.34996269501E-01  0.35000000000E-01  0.51099999109E-03 0.  1.
       11   -1    0    0    0    0 -0.00000000000E+00 -0.00000000000E+00 -0.34996269501E-01  0.35000000000E-01  0.51099999109E-03 0. -1.
       22    1    1    2    0    0 -0.37660554897E-03  0.33165739065E-03 -0.58202117635E-03  0.76849008712E-03  0.00000000000E+00 0. -1.
       22    1    1    2    0    0  0.33807047898E-01  0.23688703490E-02 -0.75492134044E-02  0.34720579738E-01  0.00000000000E+00 0.  1.
       22    1    1    2    0    0 -0.33430442349E-01 -0.27005277396E-02  0.81312345807E-02  0.34510930175E-01  0.00000000000E+00 0. -1.
</event>
<event>
 5   0  0.4143600E+04  0.9118800E+02  0.7546771E-02  0.1180000E+00
      -11   -1    0    0    0    0  0.00000000000E+00  0.00000000000E+00  0.34996269501E-01  0.35000000000E-01  0.51099999109E-03 0. -1.
       11   -1    0    0    0    0 -0.00000000000E+00 -0.00000000000E+00 -0.34996269501E-01  0.35000000000E-01  0.51099999109E-03 0. -1.
       22    1    1    2    0    0  0.13859770191E-03 -0.12109379536E-02 -0.34566753287E-01  0.34588235179E-01  0.00000000000E+00 0. -1.
       22    1    1    2    0    0  0.16984496519E-03  0.11760691583E-02  0.34920743757E-01  0.34940954917E-01  0.00000000000E+00 0. -1.
       22    1    1    2    0    0 -0.30844266711E-03  0.34868795299E-04 -0.35399047068E-03  0.47080990337E-03  0.00000000000E+00 0.  1.
</event>
<event>
 5   0  0.4143600E+04  0.9118800E+02  0.7546771E-02  0.1180000E+00
      -11   -1    0    0    0    0  0.00000000000E+00  0.00000000000E+00  0.34996269501E-01  0.35000000000E-01  0.51099999109E-03 0. -1.
       11   -1    0    0    0    0 -0.00000000000E+00 -0.00000000000E+00 -0.34996269501E-01  0.35000000000E-01  0.51099999109E-03 0.  1.
       22    1    1    2    0    0 -0.28495931313E-01  0.88018759227E-02 -0.12213888409E-01  0.32228406589E-01  0.00000000000E+00 0.  1.
       22    1    1    2    0    0  0.24997768358E-01 -0.66258579532E-02  0.17384038014E-01  0.31160795789E-01  0.00000000000E+00 0. -1.
       22    1    1    2    0    0  0.34981629554E-02 -0.21760179695E-02 -0.51701496052E-02  0.66107976226E-02  0.00000000000E+00 0. -1.
</event>
<event>
 5   0  0.4143600E+04  0.9118800E+02  0.7546771E-02  0.1180000E+00
      -11   -1    0    0    0    0  0.00000000000E+00  0.00000000000E+00  0.34996269501E-01  0.35000000000E-01  0.51099999109E-03 0.  1.
       11   -1    0    0    0    0 -0.00000000000E+00 -0.00000000000E+00 -0.34996269501E-01  0.35000000000E-01  0.51099999109E-03 0. -1.
       22    1    1    2    0    0  0.20936288904E-02 -0.15716971170E-02  0.83073495291E-02  0.87100843829E-02  0.00000000000E+00 0. -1.
       22    1    1    2    0    0 -0.13286331800E-01  0.14453038429E-02  0.23795399616E-01  0.27291693952E-01  0.00000000000E+00 0.  1.
       22    1    1    2    0    0  0.11192702909E-01  0.12639327404E-03 -0.32102749145E-01  0.33998221665E-01  0.00000000000E+00 0. -1.
</event>
<event>
 5   0  0.4143600E+04  0.9118800E+02  0.7546771E-02  0.1180000E+00
      -11   -1    0    0    0    0  0.00000000000E+00  0.00000000000E+00  0.34996269501E-01  0.35000000000E-01  0.51099999109E-03 0.  1.
       11   -1    0    0    0    0 -0.00000000000E+00 -0.00000000000E+00 -0.34996269501E-01  0.35000000000E-01  0.51099999109E-03 0. -1.
       22    1    1    2    0    0  0.13211224806E-01 -0.23317672214E-01  0.22009397675E-01  0.34679444695E-01  0.00000000000E+00 0. -1.
       22    1    1    2    0    0 -0.13267444759E-01  0.23707287221E-01 -0.21350081907E-01  0.34552663504E-01  0.00000000000E+00 0.  1.
       22    1    1    2    0    0  0.56219953035E-04 -0.38961500652E-03 -0.65931576790E-03  0.76789180112E-03  0.00000000000E+00 0. -1.
</event>
<event>
 5   0  0.4143600E+04  0.9118800E+02  0.7546771E-02  0.1180000E+00
      -11   -1    0    0    0    0  0.00000000000E+00  0.00000000000E+00  0.34996269501E-01  0.35000000000E-01  0.51099999109E-03 0. -1.
       11   -1    0    0    0    0 -0.00000000000E+00 -0.00000000000E+00 -0.34996269501E-01  0.35000000000E-01  0.51099999109E-03 0.  1.
       22    1    1    2    0    0 -0.83543999925E-04 -0.27928336897E-03 -0.49406680906E-03  0.57365565623E-03  0.00000000000E+00 0. -1.
       22    1    1    2    0    0  0.21308723824E-02 -0.19560804773E-02  0.34833495547E-01  0.34953387246E-01  0.00000000000E+00 0. -1.
       22    1    1    2    0    0 -0.20473283824E-02  0.22353638463E-02 -0.34339428738E-01  0.34472957098E-01  0.00000000000E+00 0.  1.
</event>
<event>
 5   0  0.4143600E+04  0.9118800E+02  0.7546771E-02  0.1180000E+00
      -11   -1    0    0    0    0  0.00000000000E+00  0.00000000000E+00  0.34996269501E-01  0.35000000000E-01  0.51099999109E-03 0. -1.
       11   -1    0    0    0    0 -0.00000000000E+00 -0.00000000000E+00 -0.34996269501E-01  0.35000000000E-01  0.51099999109E-03 0.  1.
       22    1    1    2    0    0  0.16812292379E-01 -0.11074463894E-01 -0.25936337161E-01  0.32832765812E-01  0.00000000000E+00 0.  1.
       22    1    1    2    0    0 -0.16966545467E-02  0.10882981918E-03 -0.25744015641E-02  0.30851294938E-02  0.00000000000E+00 0.  1.
       22    1    1    2    0    0 -0.15115637832E-01  0.10965634075E-01  0.28510738725E-01  0.34082104694E-01  0.00000000000E+00 0. -1.
</event>
<event>
 5   0  0.4143600E+04  0.9118800E+02  0.7546771E-02  0.1180000E+00
      -11   -1    0    0    0    0  0.00000000000E+00  0.00000000000E+00  0.34996269501E-01  0.35000000000E-01  0.51099999109E-03 0.  1.
       11   -1    0    0    0    0 -0.00000000000E+00 -0.00000000000E+00 -0.34996269501E-01  0.35000000000E-01  0.51099999109E-03 0. -1.
       22    1    1    2    0    0 -0.77261169966E-02 -0.16531027227E-01 -0.29103042232E-01  0.34350470334E-01  0.00000000000E+00 0. -1.
       22    1    1    2    0    0  0.77848081793E-02  0.16472327073E-01  0.29810519728E-01  0.34937199145E-01  0.00000000000E+00 0.  1.
       22    1    1    2    0    0 -0.58691182713E-04  0.58700153774E-04 -0.70747749640E-03  0.71233052082E-03  0.00000000000E+00 0. -1.
</event>
<event>
 5   0  0.4143600E+04  0.9118800E+02  0.7546771E-02  0.1180000E+00
      -11   -1    0    0    0    0  0.00000000000E+00  0.00000000000E+00  0.34996269501E-01  0.35000000000E-01  0.51099999109E-03 0. -1.
       11   -1    0    0    0    0 -0.00000000000E+00 -0.00000000000E+00 -0.34996269501E-01  0.35000000000E-01  0.51099999109E-03 0.  1.
       22    1    1    2    0    0  0.25736715935E-01  0.13653001143E-01  0.18842840947E-01  0.34696334710E-01  0.00000000000E+00 0. -1.
       22    1    1    2    0    0  0.33799498492E-03 -0.23070899112E-03 -0.72311249905E-03  0.83087841150E-03  0.00000000000E+00 0.  1.
       22    1    1    2    0    0 -0.26074710920E-01 -0.13422292152E-01 -0.18119728448E-01  0.34472786879E-01  0.00000000000E+00 0.  1.
</event>
<event>
 5   0  0.4143600E+04  0.9118800E+02  0.7546771E-02  0.1180000E+00
      -11   -1    0    0    0    0  0.00000000000E+00  0.00000000000E+00  0.34996269501E-01  0.35000000000E-01  0.51099999109E-03 0. -1.
       11   -1    0    0    0    0 -0.00000000000E+00 -0.00000000000E+00 -0.34996269501E-01  0.35000000000E-01  0.51099999109E-03 0.  1.
       22    1    1    2    0    0 -0.12911903440E-01 -0.87019531070E-03  0.29377830520E-01  0.32101891165E-01  0.00000000000E+00 0. -1.
       22    1    1    2    0    0  0.25647681013E-03  0.63894481427E-04  0.30590858254E-02  0.30704835036E-02  0.00000000000E+00 0.  1.
       22    1    1    2    0    0  0.12655426630E-01  0.80630082927E-03 -0.32436916345E-01  0.34827625331E-01  0.00000000000E+00 0.  1.
</event>
<event>
 5   0  0.4143600E+04  0.9118800E+02  0.7546771E-02  0.1180000E+00
      -11   -1    0    0    0    0  0.00000000000E+00  0.00000000000E+00  0.34996269501E-01  0.35000000000E-01  0.51099999109E-03 0. -1.
       11   -1    0    0    0    0 -0.00000000000E+00 -0.00000000000E+00 -0.34996269501E-01  0.35000000000E-01  0.51099999109E-03 0.  1.
       22    1    1    2    0    0 -0.38806680282E-04  0.97736789523E-03 -0.14784791028E-02  0.17727533439E-02  0.00000000000E+00 0. -1.
       22    1    1    2    0    0 -0.55780271139E-03 -0.16863226201E-02 -0.33344584669E-01  0.33391857609E-01  0.00000000000E+00 0.  1.
       22    1    1    2    0    0  0.59660939167E-03  0.70895472489E-03  0.34823063772E-01  0.34835389047E-01  0.00000000000E+00 0. -1.
</event>
<event>
 5   0  0.4143600E+04  0.9118800E+02  0.7546771E-02  0.1180000E+00
      -11   -1    0    0    0    0  0.00000000000E+00  0.00000000000E+00  0.34996269501E-01  0.35000000000E-01  0.51099999109E-03 0.  1.
       11   -1    0    0    0    0 -0.00000000000E+00 -0.00000000000E+00 -0.34996269501E-01  0.35000000000E-01  0.51099999109E-03 0. -1.
       22    1    1    2    0    0  0.23175750801E-02  0.13684845724E-02 -0.60878313554E-02  0.66562448038E-02  0.00000000000E+00 0.  1.
       22    1    1    2    0    0  0.39857547222E-02 -0.69271046537E-02  0.33620321954E-01  0.34557156537E-01  0.00000000000E+00 0.  1.
       22    1    1    2    0    0 -0.63033298023E-02  0.55586200813E-02 -0.27532490599E-01  0.28786598659E-01  0.00000000000E+00 0. -1.
</event>
<event>
 5   0  0.4143600E+04  0.9118800E+02  0.7546771E-02  0.1180000E+00
      -11   -1    0    0    0    0  0.00000000000E+00  0.00000000000E+00  0.34996269501E-01  0.35000000000E-01  0.51099999109E-03 0.  1.
       11   -1    0    0    0    0 -0.00000000000E+00 -0.00000000000E+00 -0.34996269501E-01  0.35000000000E-01  0.51099999109E-03 0. -1.
       22    1    1    2    0    0  0.58073140904E-02 -0.11600978507E-01 -0.26328076752E-01  0.29350898193E-01  0.00000000000E+00 0. -1.
       22    1    1    2    0    0  0.52470726995E-02  0.98191417414E-02 -0.93884660721E-03  0.11172678703E-01  0.00000000000E+00 0. -1.
       22    1    1    2    0    0 -0.11054386790E-01  0.17818367660E-02  0.27266923359E-01  0.29476423104E-01  0.00000000000E+00 0.  1.
</event>
<event>
 5   0  0.4143600E+04  0.9118800E+02  0.7546771E-02  0.1180000E+00
      -11   -1    0    0    0    0  0.00000000000E+00  0.00000000000E+00  0.34996269501E-01  0.35000000000E-01  0.51099999109E-03 0.  1.
       11   -1    0    0    0    0 -0.00000000000E+00 -0.00000000000E+00 -0.34996269501E-01  0.35000000000E-01  0.51099999109E-03 0. -1.
       22    1    1    2    0    0 -0.34466583389E-01  0.16016595894E-02  0.36703383550E-02  0.34698444743E-01  0.00000000000E+00 0. -1.
       22    1    1    2    0    0  0.34535837597E-01 -0.12830023956E-02 -0.31705501190E-02  0.34704791625E-01  0.00000000000E+00 0.  1.
       22    1    1    2    0    0 -0.69254208018E-04 -0.31865719381E-03 -0.49978823603E-03  0.59676363275E-03  0.00000000000E+00 0. -1.
</event>
<event>
 5   0  0.4143600E+04  0.9118800E+02  0.7546771E-02  0.1180000E+00
      -11   -1    0    0    0    0  0.00000000000E+00  0.00000000000E+00  0.34996269501E-01  0.35000000000E-01  0.51099999109E-03 0. -1.
       11   -1    0    0    0    0 -0.00000000000E+00 -0.00000000000E+00 -0.34996269501E-01  0.35000000000E-01  0.51099999109E-03 0.  1.
       22    1    1    2    0    0 -0.22103554594E-03  0.23142943633E-02 -0.30459860597E-01  0.30548452051E-01  0.00000000000E+00 0.  1.
       22    1    1    2    0    0 -0.34287845162E-03 -0.16113201910E-02 -0.43389011708E-02  0.46411185893E-02  0.00000000000E+00 0. -1.
       22    1    1    2    0    0  0.56391399756E-03 -0.70297417229E-03  0.34798761768E-01  0.34810429360E-01  0.00000000000E+00 0. -1.
</event>
<event>
 5   0  0.4143600E+04  0.9118800E+02  0.7546771E-02  0.1180000E+00
      -11   -1    0    0    0    0  0.00000000000E+00  0.00000000000E+00  0.34996269501E-01  0.35000000000E-01  0.51099999109E-03 0. -1.
       11   -1    0    0    0    0 -0.00000000000E+00 -0.00000000000E+00 -0.34996269501E-01  0.35000000000E-01  0.51099999109E-03 0.  1.
       22    1    1    2    0    0  0.63983655569E-02  0.98073612583E-02  0.29951092260E-01  0.32158845505E-01  0.00000000000E+00 0. -1.
       22    1    1    2    0    0 -0.70251100369E-02 -0.10647863756E-01 -0.32592107750E-01  0.34999638015E-01  0.00000000000E+00 0.  1.
       22    1    1    2    0    0  0.62674447997E-03  0.84050249775E-03  0.26410154898E-02  0.28415164806E-02  0.00000000000E+00 0. -1.
</event>
<event>
 5   0  0.4143600E+04  0.9118800E+02  0.7546771E-02  0.1180000E+00
      -11   -1    0    0    0    0  0.00000000000E+00  0.00000000000E+00  0.34996269501E-01  0.35000000000E-01  0.51099999109E-03 0. -1.
       11   -1    0    0    0    0 -0.00000000000E+00 -0.00000000000E+00 -0.34996269501E-01  0.35000000000E-01  0.51099999109E-03 0.  1.
       22    1    1    2    0    0 -0.16460025674E-03 -0.49160946372E-04 -0.27897474442E-03  0.32762318476E-03  0.00000000000E+00 0. -1.
       22    1    1    2    0    0  0.17001092235E-02 -0.22284300792E-03 -0.34658114189E-01  0.34700503015E-01  0.00000000000E+00 0.  1.
       22    1    1    2    0    0 -0.15355089667E-02  0.27200395429E-03  0.34937088933E-01  0.34971873800E-01  0.00000000000E+00 0. -1.
</event>
<event>
 5   0  0.4143600E+04  0.9118800E+02  0.7546771E-02  0.1180000E+00
      -11   -1    0    0    0    0  0.00000000000E+00  0.00000000000E+00  0.34996269501E-01  0.35000000000E-01  0.51099999109E-03 0. -1.
       11   -1    0    0    0    0 -0.00000000000E+00 -0.00000000000E+00 -0.34996269501E-01  0.35000000000E-01  0.51099999109E-03 0.  1.
       22    1    1    2    0    0  0.24757227784E-04  0.29522497965E-04  0.89945755066E-03  0.90028239106E-03  0.00000000000E+00 0. -1.
       22    1    1    2    0    0  0.20058547161E-01 -0.84251507648E-02 -0.27283157610E-01  0.34895546547E-01  0.00000000000E+00 0.  1.
       22    1    1    2    0    0 -0.20083304389E-01  0.83956282668E-02  0.26383700060E-01  0.34204171062E-01  0.00000000000E+00 0. -1.
</event>
<event>
 5   0  0.4143600E+04  0.9118800E+02  0.7546771E-02  0.1180000E+00
      -11   -1    0    0    0    0  0.00000000000E+00  0.00000000000E+00  0.34996269501E-01  0.35000000000E-01  0.51099999109E-03 0. -1.
       11   -1    0    0    0    0 -0.00000000000E+00 -0.00000000000E+00 -0.34996269501E-01  0.35000000000E-01  0.51099999109E-03 0.  1.
       22    1    1    2    0    0  0.32797693485E-02 -0.33447897477E-01 -0.70700746335E-02  0.34343917773E-01  0.00000000000E+00 0.  1.
       22    1    1    2    0    0 -0.37308097310E-02  0.32706395362E-01  0.84865715375E-02  0.33994839833E-01  0.00000000000E+00 0. -1.
       22    1    1    2    0    0  0.45104038245E-03  0.74150211566E-03 -0.14164969040E-02  0.16612423945E-02  0.00000000000E+00 0. -1.
</event>
<event>
 5   0  0.4143600E+04  0.9118800E+02  0.7546771E-02  0.1180000E+00
      -11   -1    0    0    0    0  0.00000000000E+00  0.00000000000E+00  0.34996269501E-01  0.35000000000E-01  0.51099999109E-03 0. -1.
       11   -1    0    0    0    0 -0.00000000000E+00 -0.00000000000E+00 -0.34996269501E-01  0.35000000000E-01  0.51099999109E-03 0.  1.
       22    1    1    2    0    0 -0.12018944535E-01 -0.14245565565E-01 -0.28155706542E-01  0.33765884809E-01  0.00000000000E+00 0.  1.
       22    1    1    2    0    0  0.12736776792E-01  0.15253149983E-01  0.28679032128E-01  0.34890843373E-01  0.00000000000E+00 0. -1.
       22    1    1    2    0    0 -0.71783225688E-03 -0.10075844183E-02 -0.52332558603E-03  0.13432718184E-02  0.00000000000E+00 0.  1.
</event>
<event>
 5   0  0.4143600E+04  0.9118800E+02  0.7546771E-02  0.1180000E+00
      -11   -1    0    0    0    0  0.00000000000E+00  0.00000000000E+00  0.34996269501E-01  0.35000000000E-01  0.51099999109E-03 0. -1.
       11   -1    0    0    0    0 -0.00000000000E+00 -0.00000000000E+00 -0.34996269501E-01  0.35000000000E-01  0.51099999109E-03 0.  1.
       22    1    1    2    0    0 -0.97533524931E-02 -0.62033404984E-02 -0.32574942389E-01  0.34564956095E-01  0.00000000000E+00 0.  1.
       22    1    1    2    0    0  0.26304477709E-03  0.46468820950E-04  0.11607282249E-01  0.11610355426E-01  0.00000000000E+00 0.  1.
       22    1    1    2    0    0  0.94903077160E-02  0.61568716775E-02  0.20967660140E-01  0.23824688479E-01  0.00000000000E+00 0. -1.
</event>
<event>
 5   0  0.4143600E+04  0.9118800E+02  0.7546771E-02  0.1180000E+00
      -11   -1    0    0    0    0  0.00000000000E+00  0.00000000000E+00  0.34996269501E-01  0.35000000000E-01  0.51099999109E-03 0.  1.
       11   -1    0    0    0    0 -0.00000000000E+00 -0.00000000000E+00 -0.34996269501E-01  0.35000000000E-01  0.51099999109E-03 0. -1.
       22    1    1    2    0    0  0.15625634737E-03 -0.23922041964E-04  0.31096868611E-02  0.31137020866E-02  0.00000000000E+00 0. -1.
       22    1    1    2    0    0  0.65633027696E-02 -0.11092078136E-01  0.29278959322E-01  0.31990132848E-01  0.00000000000E+00 0.  1.
       22    1    1    2    0    0 -0.67195591170E-02  0.11116000178E-01 -0.32388646184E-01  0.34896165066E-01  0.00000000000E+00 0. -1.
</event>
<event>
 5   0  0.4143600E+04  0.9118800E+02  0.7546771E-02  0.1180000E+00
      -11   -1    0    0    0    0  0.00000000000E+00  0.00000000000E+00  0.34996269501E-01  0.35000000000E-01  0.51099999109E-03 0. -1.
       11   -1    0    0    0    0 -0.00000000000E+00 -0.00000000000E+00 -0.34996269501E-01  0.35000000000E-01  0.51099999109E-03 0. -1.
       22    1    1    2    0    0  0.91132320786E-03 -0.25261284676E-03 -0.21241119756E-02  0.23251182603E-02  0.00000000000E+00 0. -1.
       22    1    1    2    0    0 -0.25847089920E-03  0.15735316895E-02  0.34864703755E-01  0.34901151516E-01  0.00000000000E+00 0. -1.
       22    1    1    2    0    0 -0.65285230867E-03 -0.13209188428E-02 -0.32740591780E-01  0.32773730224E-01  0.00000000000E+00 0. -1.
</event>
<event>
 5   0  0.4143600E+04  0.9118800E+02  0.7546771E-02  0.1180000E+00
      -11   -1    0    0    0    0  0.00000000000E+00  0.00000000000E+00  0.34996269501E-01  0.35000000000E-01  0.51099999109E-03 0.  1.
       11   -1    0    0    0    0 -0.00000000000E+00 -0.00000000000E+00 -0.34996269501E-01  0.35000000000E-01  0.51099999109E-03 0.  1.
       22    1    1    2    0    0 -0.00000000000E+00 -0.00000000000E+00  0.28717666751E-01  0.28717441342E-01  0.00000000000E+00 0.  1.
       22    1    1    2    0    0 -0.12619722840E-01  0.27507523000E-02 -0.42190089169E-02  0.13587644352E-01  0.00000000000E+00 0. -1.
       22    1    1    2    0    0  0.12619722840E-01 -0.27507523000E-02 -0.24498657834E-01  0.27694914307E-01  0.00000000000E+00 0.  1.
</event>
<event>
 5   0  0.4143600E+04  0.9118800E+02  0.7546771E-02  0.1180000E+00
      -11   -1    0    0    0    0  0.00000000000E+00  0.00000000000E+00  0.34996269501E-01  0.35000000000E-01  0.51099999109E-03 0.  1.
       11   -1    0    0    0    0 -0.00000000000E+00 -0.00000000000E+00 -0.34996269501E-01  0.35000000000E-01  0.51099999109E-03 0.  1.
       22    1    1    2    0    0  0.89799720914E-02 -0.11396423143E-01 -0.15428535895E-01  0.21179189764E-01  0.00000000000E+00 0.  1.
       22    1    1    2    0    0 -0.89799720914E-02  0.11396423143E-01 -0.13545533513E-01  0.19849429145E-01  0.00000000000E+00 0. -1.
       22    1    1    2    0    0  0.00000000000E+00 -0.00000000000E+00  0.28974069409E-01  0.28971381091E-01  0.00000000000E+00 0.  1.
</event>
<event>
 5   0  0.4143600E+04  0.9118800E+02  0.7546771E-02  0.1180000E+00
      -11   -1    0    0    0    0  0.00000000000E+00  0.00000000000E+00  0.34996269501E-01  0.35000000000E-01  0.51099999109E-03 0. -1.
       11   -1    0    0    0    0 -0.00000000000E+00 -0.00000000000E+00 -0.34996269501E-01  0.35000000000E-01  0.51099999109E-03 0.  1.
       22    1    1    2    0    0 -0.30247036762E-02  0.18979465656E-01 -0.28712072278E-01  0.34550716974E-01  0.00000000000E+00 0.  1.
       22    1    1    2    0    0  0.73092831365E-04  0.36738047793E-03 -0.28160930586E-03  0.46863074879E-03  0.00000000000E+00 0.  1.
       22    1    1    2    0    0  0.29516108448E-02 -0.19346846134E-01  0.28993681584E-01  0.34980652277E-01  0.00000000000E+00 0. -1.
</event>
<event>
 5   0  0.4143600E+04  0.9118800E+02  0.7546771E-02  0.1180000E+00
      -11   -1    0    0    0    0  0.00000000000E+00  0.00000000000E+00  0.34996269501E-01  0.35000000000E-01  0.51099999109E-03 0. -1.
       11   -1    0    0    0    0 -0.00000000000E+00 -0.00000000000E+00 -0.34996269501E-01  0.35000000000E-01  0.51099999109E-03 0.  1.
       22    1    1    2    0    0 -0.17827355821E-02  0.15394573129E-01 -0.31272607361E-01  0.34901962683E-01  0.00000000000E+00 0.  1.
       22    1    1    2    0    0  0.17770709857E-02 -0.15475572175E-01  0.29822829831E-01  0.33645987793E-01  0.00000000000E+00 0. -1.
       22    1    1    2    0    0  0.56645963869E-05  0.80999045689E-04  0.14497775303E-02  0.14520495241E-02  0.00000000000E+00 0. -1.
</event>
<event>
 5   0  0.4143600E+04  0.9118800E+02  0.7546771E-02  0.1180000E+00
      -11   -1    0    0    0    0  0.00000000000E+00  0.00000000000E+00  0.34996269501E-01  0.35000000000E-01  0.51099999109E-03 0.  1.
       11   -1    0    0    0    0 -0.00000000000E+00 -0.00000000000E+00 -0.34996269501E-01  0.35000000000E-01  0.51099999109E-03 0. -1.
       22    1    1    2    0    0 -0.21895809908E-02 -0.71305915260E-02  0.33903176487E-01  0.34714045807E-01  0.00000000000E+00 0.  1.
       22    1    1    2    0    0 -0.62159760926E-04  0.68665358873E-02 -0.29965623484E-01  0.30742344896E-01  0.00000000000E+00 0. -1.
       22    1    1    2    0    0  0.22517407517E-02  0.26405563868E-03 -0.39375530027E-02  0.45436092968E-02  0.00000000000E+00 0. -1.
</event>
<event>
 5   0  0.4143600E+04  0.9118800E+02  0.7546771E-02  0.1180000E+00
      -11   -1    0    0    0    0  0.00000000000E+00  0.00000000000E+00  0.34996269501E-01  0.35000000000E-01  0.51099999109E-03 0.  1.
       11   -1    0    0    0    0 -0.00000000000E+00 -0.00000000000E+00 -0.34996269501E-01  0.35000000000E-01  0.51099999109E-03 0. -1.
       22    1    1    2    0    0  0.28236866065E-02 -0.10734896369E-02  0.19046919454E-01  0.19284987081E-01  0.00000000000E+00 0.  1.
       22    1    1    2    0    0  0.18893905626E-01 -0.33134340123E-02  0.30500793208E-02  0.19423220603E-01  0.00000000000E+00 0.  1.
       22    1    1    2    0    0 -0.21717592232E-01  0.43869236492E-02 -0.22096998774E-01  0.31291792315E-01  0.00000000000E+00 0. -1.
</event>
<event>
 5   0  0.4143600E+04  0.9118800E+02  0.7546771E-02  0.1180000E+00
      -11   -1    0    0    0    0  0.00000000000E+00  0.00000000000E+00  0.34996269501E-01  0.35000000000E-01  0.51099999109E-03 0.  1.
       11   -1    0    0    0    0 -0.00000000000E+00 -0.00000000000E+00 -0.34996269501E-01  0.35000000000E-01  0.51099999109E-03 0. -1.
       22    1    1    2    0    0 -0.28306278107E-02  0.17604759796E-02 -0.34238361765E-01  0.34400249212E-01  0.00000000000E+00 0. -1.
       22    1    1    2    0    0  0.25266050965E-03 -0.39071021773E-04 -0.58513830907E-03  0.63855361452E-03  0.00000000000E+00 0. -1.
       22    1    1    2    0    0  0.25779673011E-02 -0.17214049579E-02  0.34823500074E-01  0.34961197174E-01  0.00000000000E+00 0.  1.
</event>
<event>
 5   0  0.4143600E+04  0.9118800E+02  0.7546771E-02  0.1180000E+00
      -11   -1    0    0    0    0  0.00000000000E+00  0.00000000000E+00  0.34996269501E-01  0.35000000000E-01  0.51099999109E-03 0.  1.
       11   -1    0    0    0    0 -0.00000000000E+00 -0.00000000000E+00 -0.34996269501E-01  0.35000000000E-01  0.51099999109E-03 0. -1.
       22    1    1    2    0    0 -0.94268302173E-02 -0.20851361092E-02 -0.22761711213E-01  0.24724652027E-01  0.00000000000E+00 0. -1.
       22    1    1    2    0    0  0.59539428016E-02  0.19587555171E-03  0.33399527647E-01  0.33926630383E-01  0.00000000000E+00 0.  1.
       22    1    1    2    0    0  0.34728874157E-02  0.18892605575E-02 -0.10637816434E-01  0.11348717590E-01  0.00000000000E+00 0. -1.
</event>
<event>
 5   0  0.4143600E+04  0.9118800E+02  0.7546771E-02  0.1180000E+00
      -11   -1    0    0    0    0  0.00000000000E+00  0.00000000000E+00  0.34996269501E-01  0.35000000000E-01  0.51099999109E-03 0.  1.
       11   -1    0    0    0    0 -0.00000000000E+00 -0.00000000000E+00 -0.34996269501E-01  0.35000000000E-01  0.51099999109E-03 0. -1.
       22    1    1    2    0    0  0.56367811506E-03 -0.13147337187E-01  0.30315251302E-01  0.33048217344E-01  0.00000000000E+00 0.  1.
       22    1    1    2    0    0 -0.36769667517E-03 -0.70229433666E-03  0.18055103570E-02  0.19718736849E-02  0.00000000000E+00 0. -1.
       22    1    1    2    0    0 -0.19598143989E-03  0.13849631524E-01 -0.32120761659E-01  0.34979908971E-01  0.00000000000E+00 0. -1.
</event>
<event>
 5   0  0.4143600E+04  0.9118800E+02  0.7546771E-02  0.1180000E+00
      -11   -1    0    0    0    0  0.00000000000E+00  0.00000000000E+00  0.34996269501E-01  0.35000000000E-01  0.51099999109E-03 0. -1.
       11   -1    0    0    0    0 -0.00000000000E+00 -0.00000000000E+00 -0.34996269501E-01  0.35000000000E-01  0.51099999109E-03 0.  1.
       22    1    1    2    0    0  0.54459832746E-02 -0.11259922515E-01  0.43935123508E-02  0.13256980790E-01  0.00000000000E+00 0. -1.
       22    1    1    2    0    0 -0.76942796213E-02  0.12871467846E-01 -0.28645765091E-01  0.32333519466E-01  0.00000000000E+00 0.  1.
       22    1    1    2    0    0  0.22482963467E-02 -0.16115453303E-02  0.24252252740E-01  0.24409499745E-01  0.00000000000E+00 0. -1.
</event>
<event>
 5   0  0.4143600E+04  0.9118800E+02  0.7546771E-02  0.1180000E+00
      -11   -1    0    0    0    0  0.00000000000E+00  0.00000000000E+00  0.34996269501E-01  0.35000000000E-01  0.51099999109E-03 0.  1.
       11   -1    0    0    0    0 -0.00000000000E+00 -0.00000000000E+00 -0.34996269501E-01  0.35000000000E-01  0.51099999109E-03 0. -1.
       22    1    1    2    0    0  0.43371279841E-03 -0.21022267127E-02 -0.24395994192E-02  0.32494783072E-02  0.00000000000E+00 0. -1.
       22    1    1    2    0    0 -0.14332453274E-02  0.18985941101E-02  0.34546057329E-01  0.34627863474E-01  0.00000000000E+00 0.  1.
       22    1    1    2    0    0  0.99953252896E-03  0.20363260262E-03 -0.32106457910E-01  0.32122658219E-01  0.00000000000E+00 0. -1.
</event>
<event>
 5   0  0.4143600E+04  0.9118800E+02  0.7546771E-02  0.1180000E+00
      -11   -1    0    0    0    0  0.00000000000E+00  0.00000000000E+00  0.34996269501E-01  0.35000000000E-01  0.51099999109E-03 0. -1.
       11   -1    0    0    0    0 -0.00000000000E+00 -0.00000000000E+00 -0.34996269501E-01  0.35000000000E-01  0.51099999109E-03 0. -1.
       22    1    1    2    0    0  0.27414205886E-03  0.21348030601E-03 -0.90028687555E-03  0.96500993144E-03  0.00000000000E+00 0.  1.
       22    1    1    2    0    0  0.00000000000E+00 -0.00000000000E+00  0.34966865718E-01  0.34966639334E-01  0.00000000000E+00 0. -1.
       22    1    1    2    0    0 -0.27414205886E-03 -0.21348030601E-03 -0.34066578842E-01  0.34068350734E-01  0.00000000000E+00 0. -1.
</event>
<event>
 5   0  0.4143600E+04  0.9118800E+02  0.7546771E-02  0.1180000E+00
      -11   -1    0    0    0    0  0.00000000000E+00  0.00000000000E+00  0.34996269501E-01  0.35000000000E-01  0.51099999109E-03 0. -1.
       11   -1    0    0    0    0 -0.00000000000E+00 -0.00000000000E+00 -0.34996269501E-01  0.35000000000E-01  0.51099999109E-03 0.  1.
       22    1    1    2    0    0  0.69851818711E-02  0.20520137100E-01 -0.55647508079E-02  0.22379348604E-01  0.00000000000E+00 0.  1.
       22    1    1    2    0    0 -0.12851678856E-02 -0.19177803293E-01  0.22564170500E-01  0.29640876944E-01  0.00000000000E+00 0. -1.
       22    1    1    2    0    0 -0.57000139855E-02 -0.13423338067E-02 -0.16999419692E-01  0.17979774452E-01  0.00000000000E+00 0.  1.
</event>
<event>
 5   0  0.4143600E+04  0.9118800E+02  0.7546771E-02  0.1180000E+00
      -11   -1    0    0    0    0  0.00000000000E+00  0.00000000000E+00  0.34996269501E-01  0.35000000000E-01  0.51099999109E-03 0. -1.
       11   -1    0    0    0    0 -0.00000000000E+00 -0.00000000000E+00 -0.34996269501E-01  0.35000000000E-01  0.51099999109E-03 0.  1.
       22    1    1    2    0    0  0.11409349919E-01  0.34874727060E-02 -0.26650348910E-01  0.29198918275E-01  0.00000000000E+00 0.  1.
       22    1    1    2    0    0 -0.97665736855E-02 -0.60985253041E-02 -0.22538198408E-02  0.11732760814E-01  0.00000000000E+00 0. -1.
       22    1    1    2    0    0 -0.16427762331E-02  0.26110525981E-02  0.28904168750E-01  0.29068320911E-01  0.00000000000E+00 0. -1.
</event>
<event>
 5   0  0.4143600E+04  0.9118800E+02  0.7546771E-02  0.1180000E+00
      -11   -1    0    0    0    0  0.00000000000E+00  0.00000000000E+00  0.34996269501E-01  0.35000000000E-01  0.51099999109E-03 0. -1.
       11   -1    0    0    0    0 -0.00000000000E+00 -0.00000000000E+00 -0.34996269501E-01  0.35000000000E-01  0.51099999109E-03 0. -1.
       22    1    1    2    0    0 -0.37101069989E-03  0.12704231308E-03 -0.34140828661E-01  0.34143080856E-01  0.00000000000E+00 0. -1.
       22    1    1    2    0    0  0.00000000000E+00  0.00000000000E+00  0.34955461485E-01  0.34952808903E-01  0.00000000000E+00 0. -1.
       22    1    1    2    0    0  0.37101069989E-03 -0.12704231308E-03 -0.81463282458E-03  0.90411024086E-03  0.00000000000E+00 0. -1.
</event>
<event>
 5   0  0.4143600E+04  0.9118800E+02  0.7546771E-02  0.1180000E+00
      -11   -1    0    0    0    0  0.00000000000E+00  0.00000000000E+00  0.34996269501E-01  0.35000000000E-01  0.51099999109E-03 0. -1.
       11   -1    0    0    0    0 -0.00000000000E+00 -0.00000000000E+00 -0.34996269501E-01  0.35000000000E-01  0.51099999109E-03 0.  1.
       22    1    1    2    0    0  0.49967108924E-03 -0.26452758560E-03  0.85312343719E-02  0.85499477161E-02  0.00000000000E+00 0.  1.
       22    1    1    2    0    0 -0.15731444355E-01 -0.86536161598E-04  0.22165183090E-01  0.27180529270E-01  0.00000000000E+00 0. -1.
       22    1    1    2    0    0  0.15231773265E-01  0.35106374720E-03 -0.30696417462E-01  0.34269523014E-01  0.00000000000E+00 0.  1.
</event>
<event>
 5   0  0.4143600E+04  0.9118800E+02  0.7546771E-02  0.1180000E+00
      -11   -1    0    0    0    0  0.00000000000E+00  0.00000000000E+00  0.34996269501E-01  0.35000000000E-01  0.51099999109E-03 0. -1.
       11   -1    0    0    0    0 -0.00000000000E+00 -0.00000000000E+00 -0.34996269501E-01  0.35000000000E-01  0.51099999109E-03 0.  1.
       22    1    1    2    0    0  0.17878757898E-02  0.10991580700E-01  0.28147495054E-01  0.30270329102E-01  0.00000000000E+00 0. -1.
       22    1    1    2    0    0 -0.92522921111E-02  0.48778593337E-02 -0.11577751274E-01  0.15602651875E-01  0.00000000000E+00 0. -1.
       22    1    1    2    0    0  0.74644163213E-02 -0.15869440034E-01 -0.16569743780E-01  0.24127019023E-01  0.00000000000E+00 0.  1.
</event>
<event>
 5   0  0.4143600E+04  0.9118800E+02  0.7546771E-02  0.1180000E+00
      -11   -1    0    0    0    0  0.00000000000E+00  0.00000000000E+00  0.34996269501E-01  0.35000000000E-01  0.51099999109E-03 0. -1.
       11   -1    0    0    0    0 -0.00000000000E+00 -0.00000000000E+00 -0.34996269501E-01  0.35000000000E-01  0.51099999109E-03 0.  1.
       22    1    1    2    0    0  0.64798814767E-04 -0.74341325198E-04 -0.29190391993E-02  0.29207046009E-02  0.00000000000E+00 0. -1.
       22    1    1    2    0    0 -0.14504215833E-01  0.35471111471E-02  0.31505797145E-01  0.34865018689E-01  0.00000000000E+00 0. -1.
       22    1    1    2    0    0  0.14439417019E-01 -0.34727698219E-02 -0.28586757946E-01  0.32214276710E-01  0.00000000000E+00 0.  1.
</event>
<event>
 5   0  0.4143600E+04  0.9118800E+02  0.7546771E-02  0.1180000E+00
      -11   -1    0    0    0    0  0.00000000000E+00  0.00000000000E+00  0.34996269501E-01  0.35000000000E-01  0.51099999109E-03 0. -1.
       11   -1    0    0    0    0 -0.00000000000E+00 -0.00000000000E+00 -0.34996269501E-01  0.35000000000E-01  0.51099999109E-03 0.  1.
       22    1    1    2    0    0  0.15546600943E-01 -0.16469355794E-03  0.27690638618E-01  0.31756816464E-01  0.00000000000E+00 0. -1.
       22    1    1    2    0    0 -0.13617738909E-01 -0.42654929895E-03 -0.31284103461E-01  0.34122131918E-01  0.00000000000E+00 0.  1.
       22    1    1    2    0    0 -0.19288620335E-02  0.59124285690E-03  0.35934648431E-02  0.41210516181E-02  0.00000000000E+00 0. -1.
</event>
<event>
 5   0  0.4143600E+04  0.9118800E+02  0.7546771E-02  0.1180000E+00
      -11   -1    0    0    0    0  0.00000000000E+00  0.00000000000E+00  0.34996269501E-01  0.35000000000E-01  0.51099999109E-03 0.  1.
       11   -1    0    0    0    0 -0.00000000000E+00 -0.00000000000E+00 -0.34996269501E-01  0.35000000000E-01  0.51099999109E-03 0. -1.
       22    1    1    2    0    0 -0.10494909542E-04 -0.14405831134E-04  0.78596453418E-03  0.78616659817E-03  0.00000000000E+00 0.  1.
       22    1    1    2    0    0  0.17393162036E-02  0.15236816577E-01  0.30633744431E-01  0.34258022391E-01  0.00000000000E+00 0.  1.
       22    1    1    2    0    0 -0.17288212940E-02 -0.15222410746E-01 -0.31419708965E-01  0.34955811011E-01  0.00000000000E+00 0. -1.
</event>
<event>
 5   0  0.4143600E+04  0.9118800E+02  0.7546771E-02  0.1180000E+00
      -11   -1    0    0    0    0  0.00000000000E+00  0.00000000000E+00  0.34996269501E-01  0.35000000000E-01  0.51099999109E-03 0.  1.
       11   -1    0    0    0    0 -0.00000000000E+00 -0.00000000000E+00 -0.34996269501E-01  0.35000000000E-01  0.51099999109E-03 0. -1.
       22    1    1    2    0    0 -0.21125841416E-02  0.32108610137E-02 -0.53252667194E-02  0.65674276423E-02  0.00000000000E+00 0.  1.
       22    1    1    2    0    0 -0.44070666277E-03  0.18357973226E-01  0.27062176316E-01  0.32704293148E-01  0.00000000000E+00 0.  1.
       22    1    1    2    0    0  0.25532908044E-02 -0.21568834240E-01 -0.21736909597E-01  0.30728279210E-01  0.00000000000E+00 0. -1.
</event>
<event>
 5   0  0.4143600E+04  0.9118800E+02  0.7546771E-02  0.1180000E+00
      -11   -1    0    0    0    0  0.00000000000E+00  0.00000000000E+00  0.34996269501E-01  0.35000000000E-01  0.51099999109E-03 0.  1.
       11   -1    0    0    0    0 -0.00000000000E+00 -0.00000000000E+00 -0.34996269501E-01  0.35000000000E-01  0.51099999109E-03 0. -1.
       22    1    1    2    0    0 -0.12344614768E-01 -0.20336524088E-01  0.19388183745E-01  0.30689825589E-01  0.00000000000E+00 0.  1.
       22    1    1    2    0    0  0.12975949624E-01  0.19613564199E-01 -0.24587092108E-01  0.34023407642E-01  0.00000000000E+00 0. -1.
       22    1    1    2    0    0 -0.63133485537E-03  0.72295988943E-03  0.51989083630E-02  0.52867667688E-02  0.00000000000E+00 0. -1.
</event>
<event>
 5   0  0.4143600E+04  0.9118800E+02  0.7546771E-02  0.1180000E+00
      -11   -1    0    0    0    0  0.00000000000E+00  0.00000000000E+00  0.34996269501E-01  0.35000000000E-01  0.51099999109E-03 0. -1.
       11   -1    0    0    0    0 -0.00000000000E+00 -0.00000000000E+00 -0.34996269501E-01  0.35000000000E-01  0.51099999109E-03 0.  1.
       22    1    1    2    0    0 -0.66137227493E-02 -0.63317873769E-02 -0.21196988904E-01  0.23089937171E-01  0.00000000000E+00 0.  1.
       22    1    1    2    0    0  0.82059051168E-02  0.49868498829E-02  0.33285655906E-01  0.34643043164E-01  0.00000000000E+00 0. -1.
       22    1    1    2    0    0 -0.15921823674E-02  0.13449374940E-02 -0.12088667003E-01  0.12267019665E-01  0.00000000000E+00 0.  1.
</event>
<event>
 5   0  0.4143600E+04  0.9118800E+02  0.7546771E-02  0.1180000E+00
      -11   -1    0    0    0    0  0.00000000000E+00  0.00000000000E+00  0.34996269501E-01  0.35000000000E-01  0.51099999109E-03 0.  1.
       11   -1    0    0    0    0 -0.00000000000E+00 -0.00000000000E+00 -0.34996269501E-01  0.35000000000E-01  0.51099999109E-03 0. -1.
       22    1    1    2    0    0 -0.11316014461E-01  0.10985310561E-02  0.33014320237E-01  0.34917106044E-01  0.00000000000E+00 0.  1.
       22    1    1    2    0    0  0.11062436639E-01 -0.41893242380E-03 -0.29855433263E-01  0.31841794925E-01  0.00000000000E+00 0. -1.
       22    1    1    2    0    0  0.25357782219E-03 -0.67959863228E-03 -0.31588869742E-02  0.32410990310E-02  0.00000000000E+00 0. -1.
</event>
<event>
 5   0  0.4143600E+04  0.9118800E+02  0.7546771E-02  0.1180000E+00
      -11   -1    0    0    0    0  0.00000000000E+00  0.00000000000E+00  0.34996269501E-01  0.35000000000E-01  0.51099999109E-03 0.  1.
       11   -1    0    0    0    0 -0.00000000000E+00 -0.00000000000E+00 -0.34996269501E-01  0.35000000000E-01  0.51099999109E-03 0. -1.
       22    1    1    2    0    0  0.92994372125E-02 -0.19096174218E-02  0.33329970556E-01  0.34655636027E-01  0.00000000000E+00 0.  1.
       22    1    1    2    0    0 -0.10093495254E-03  0.17673477144E-02 -0.11789015784E-01  0.11921182784E-01  0.00000000000E+00 0. -1.
       22    1    1    2    0    0 -0.91985022599E-02  0.14226970744E-03 -0.21540954772E-01  0.23423181188E-01  0.00000000000E+00 0. -1.
</event>
<event>
 5   0  0.4143600E+04  0.9118800E+02  0.7546771E-02  0.1180000E+00
      -11   -1    0    0    0    0  0.00000000000E+00  0.00000000000E+00  0.34996269501E-01  0.35000000000E-01  0.51099999109E-03 0.  1.
       11   -1    0    0    0    0 -0.00000000000E+00 -0.00000000000E+00 -0.34996269501E-01  0.35000000000E-01  0.51099999109E-03 0. -1.
       22    1    1    2    0    0  0.17225089908E-01  0.71706682044E-02 -0.29257498633E-01  0.34700481713E-01  0.00000000000E+00 0. -1.
       22    1    1    2    0    0 -0.17161770942E-01 -0.71899101142E-02  0.29593497938E-01  0.34957063800E-01  0.00000000000E+00 0.  1.
       22    1    1    2    0    0 -0.63318965921E-04  0.19241909734E-04 -0.33599930542E-03  0.34245448717E-03  0.00000000000E+00 0.  1.
</event>
<event>
 5   0  0.4143600E+04  0.9118800E+02  0.7546771E-02  0.1180000E+00
      -11   -1    0    0    0    0  0.00000000000E+00  0.00000000000E+00  0.34996269501E-01  0.35000000000E-01  0.51099999109E-03 0.  1.
       11   -1    0    0    0    0 -0.00000000000E+00 -0.00000000000E+00 -0.34996269501E-01  0.35000000000E-01  0.51099999109E-03 0. -1.
       22    1    1    2    0    0  0.40817461473E-03 -0.84427291271E-03  0.10336476803E-01  0.10378928459E-01  0.00000000000E+00 0.  1.
       22    1    1    2    0    0  0.22907733968E-02 -0.11029713931E-01 -0.32464746450E-01  0.34363672595E-01  0.00000000000E+00 0. -1.
       22    1    1    2    0    0 -0.26989480115E-02  0.11873986844E-01  0.22128269647E-01  0.25257398946E-01  0.00000000000E+00 0.  1.
</event>
<event>
 5   0  0.4143600E+04  0.9118800E+02  0.7546771E-02  0.1180000E+00
      -11   -1    0    0    0    0  0.00000000000E+00  0.00000000000E+00  0.34996269501E-01  0.35000000000E-01  0.51099999109E-03 0. -1.
       11   -1    0    0    0    0 -0.00000000000E+00 -0.00000000000E+00 -0.34996269501E-01  0.35000000000E-01  0.51099999109E-03 0.  1.
       22    1    1    2    0    0  0.27952337303E-02 -0.11824143212E-02 -0.29549493576E-01  0.29704949181E-01  0.00000000000E+00 0.  1.
       22    1    1    2    0    0 -0.50010091170E-02 -0.31141625746E-03  0.34398985696E-01  0.34762009280E-01  0.00000000000E+00 0. -1.
       22    1    1    2    0    0  0.22057753867E-02  0.14938305787E-02 -0.48494921195E-02  0.55330415389E-02  0.00000000000E+00 0.  1.
</event>
<event>
 5   0  0.4143600E+04  0.9118800E+02  0.7546771E-02  0.1180000E+00
      -11   -1    0    0    0    0  0.00000000000E+00  0.00000000000E+00  0.34996269501E-01  0.35000000000E-01  0.51099999109E-03 0.  1.
       11   -1    0    0    0    0 -0.00000000000E+00 -0.00000000000E+00 -0.34996269501E-01  0.35000000000E-01  0.51099999109E-03 0. -1.
       22    1    1    2    0    0  0.33892981457E-01  0.40009219173E-02 -0.41356451138E-02  0.34377974471E-01  0.00000000000E+00 0.  1.
       22    1    1    2    0    0  0.36525557905E-03 -0.35977859348E-03 -0.66314465928E-03  0.83822020584E-03  0.00000000000E+00 0. -1.
       22    1    1    2    0    0 -0.34258237036E-01 -0.36411433239E-02  0.47987897730E-02  0.34783805323E-01  0.00000000000E+00 0. -1.
</event>
<event>
 5   0  0.4143600E+04  0.9118800E+02  0.7546771E-02  0.1180000E+00
      -11   -1    0    0    0    0  0.00000000000E+00  0.00000000000E+00  0.34996269501E-01  0.35000000000E-01  0.51099999109E-03 0.  1.
       11   -1    0    0    0    0 -0.00000000000E+00 -0.00000000000E+00 -0.34996269501E-01  0.35000000000E-01  0.51099999109E-03 0. -1.
       22    1    1    2    0    0  0.25647623283E-03 -0.17515484582E-03 -0.66171173851E-03  0.73097312051E-03  0.00000000000E+00 0.  1.
       22    1    1    2    0    0  0.15194672728E-01 -0.29058672258E-02  0.31245528794E-01  0.34865530445E-01  0.00000000000E+00 0.  1.
       22    1    1    2    0    0 -0.15451148961E-01  0.30810220717E-02 -0.30583817055E-01  0.34403496434E-01  0.00000000000E+00 0. -1.
</event>
<event>
 5   0  0.4143600E+04  0.9118800E+02  0.7546771E-02  0.1180000E+00
      -11   -1    0    0    0    0  0.00000000000E+00  0.00000000000E+00  0.34996269501E-01  0.35000000000E-01  0.51099999109E-03 0. -1.
       11   -1    0    0    0    0 -0.00000000000E+00 -0.00000000000E+00 -0.34996269501E-01  0.35000000000E-01  0.51099999109E-03 0.  1.
       22    1    1    2    0    0 -0.66777634544E-02  0.18747555274E-01 -0.28557361820E-01  0.34807847788E-01  0.00000000000E+00 0.  1.
       22    1    1    2    0    0  0.12897008135E-03  0.72945791812E-04  0.19207088117E-02  0.19264155081E-02  0.00000000000E+00 0.  1.
       22    1    1    2    0    0  0.65487933730E-02 -0.18820501066E-01  0.26636653008E-01  0.33265736704E-01  0.00000000000E+00 0. -1.
</event>
<event>
 5   0  0.4143600E+04  0.9118800E+02  0.7546771E-02  0.1180000E+00
      -11   -1    0    0    0    0  0.00000000000E+00  0.00000000000E+00  0.34996269501E-01  0.35000000000E-01  0.51099999109E-03 0. -1.
       11   -1    0    0    0    0 -0.00000000000E+00 -0.00000000000E+00 -0.34996269501E-01  0.35000000000E-01  0.51099999109E-03 0.  1.
       22    1    1    2    0    0 -0.74407464938E-02 -0.23286568759E-01  0.23991122701E-01  0.34252050470E-01  0.00000000000E+00 0. -1.
       22    1    1    2    0    0  0.72704284872E-02  0.23172455528E-01 -0.24919858206E-01  0.34796855585E-01  0.00000000000E+00 0.  1.
       22    1    1    2    0    0  0.17031800664E-03  0.11411323035E-03  0.92873550530E-03  0.95109394464E-03  0.00000000000E+00 0. -1.
</event>
<event>
 5   0  0.4143600E+04  0.9118800E+02  0.7546771E-02  0.1180000E+00
      -11   -1    0    0    0    0  0.00000000000E+00  0.00000000000E+00  0.34996269501E-01  0.35000000000E-01  0.51099999109E-03 0. -1.
       11   -1    0    0    0    0 -0.00000000000E+00 -0.00000000000E+00 -0.34996269501E-01  0.35000000000E-01  0.51099999109E-03 0.  1.
       22    1    1    2    0    0 -0.44434599614E-04 -0.31737140741E-03  0.14276826712E-02  0.14632077274E-02  0.00000000000E+00 0.  1.
       22    1    1    2    0    0  0.24344865388E-02  0.12321566644E-01 -0.32659987481E-01  0.34991749192E-01  0.00000000000E+00 0.  1.
       22    1    1    2    0    0 -0.23900519392E-02 -0.12004195237E-01  0.31232304810E-01  0.33545043081E-01  0.00000000000E+00 0. -1.
</event>
<event>
 5   0  0.4143600E+04  0.9118800E+02  0.7546771E-02  0.1180000E+00
      -11   -1    0    0    0    0  0.00000000000E+00  0.00000000000E+00  0.34996269501E-01  0.35000000000E-01  0.51099999109E-03 0.  1.
       11   -1    0    0    0    0 -0.00000000000E+00 -0.00000000000E+00 -0.34996269501E-01  0.35000000000E-01  0.51099999109E-03 0. -1.
       22    1    1    2    0    0 -0.10859708648E-01  0.45989267316E-02 -0.28179582288E-01  0.30547868288E-01  0.00000000000E+00 0. -1.
       22    1    1    2    0    0  0.11056591796E-01 -0.47241715758E-02  0.32744008598E-01  0.34881744772E-01  0.00000000000E+00 0.  1.
       22    1    1    2    0    0 -0.19688314788E-03  0.12524484423E-03 -0.45644263102E-02  0.45703869406E-02  0.00000000000E+00 0. -1.
</event>
<event>
 5   0  0.4143600E+04  0.9118800E+02  0.7546771E-02  0.1180000E+00
      -11   -1    0    0    0    0  0.00000000000E+00  0.00000000000E+00  0.34996269501E-01  0.35000000000E-01  0.51099999109E-03 0.  1.
       11   -1    0    0    0    0 -0.00000000000E+00 -0.00000000000E+00 -0.34996269501E-01  0.35000000000E-01  0.51099999109E-03 0. -1.
       22    1    1    2    0    0 -0.12314519719E-01 -0.94099739838E-02 -0.29069331925E-01  0.32942693649E-01  0.00000000000E+00 0. -1.
       22    1    1    2    0    0 -0.12134856636E-02  0.26624150617E-02 -0.12471945485E-02  0.31806439063E-02  0.00000000000E+00 0.  1.
       22    1    1    2    0    0  0.13528005383E-01  0.67475589220E-02  0.30316526473E-01  0.33876662445E-01  0.00000000000E+00 0.  1.
</event>
<event>
 5   0  0.4143600E+04  0.9118800E+02  0.7546771E-02  0.1180000E+00
      -11   -1    0    0    0    0  0.00000000000E+00  0.00000000000E+00  0.34996269501E-01  0.35000000000E-01  0.51099999109E-03 0.  1.
       11   -1    0    0    0    0 -0.00000000000E+00 -0.00000000000E+00 -0.34996269501E-01  0.35000000000E-01  0.51099999109E-03 0. -1.
       22    1    1    2    0    0 -0.12362334085E-03 -0.46690686314E-03 -0.73542525549E-02  0.73700960231E-02  0.00000000000E+00 0. -1.
       22    1    1    2    0    0  0.33640173169E-02 -0.13790933450E-01 -0.24084981336E-01  0.27956980951E-01  0.00000000000E+00 0. -1.
       22    1    1    2    0    0 -0.32403939761E-02  0.14257840313E-01  0.31439233891E-01  0.34672923026E-01  0.00000000000E+00 0.  1.
</event>
<event>
 5   0  0.4143600E+04  0.9118800E+02  0.7546771E-02  0.1180000E+00
      -11   -1    0    0    0    0  0.00000000000E+00  0.00000000000E+00  0.34996269501E-01  0.35000000000E-01  0.51099999109E-03 0. -1.
       11   -1    0    0    0    0 -0.00000000000E+00 -0.00000000000E+00 -0.34996269501E-01  0.35000000000E-01  0.51099999109E-03 0.  1.
       22    1    1    2    0    0 -0.10544595661E-03 -0.13741723728E-02  0.32968308018E-01  0.32997102935E-01  0.00000000000E+00 0. -1.
       22    1    1    2    0    0 -0.39274290317E-02 -0.53731546166E-02 -0.24755237116E-01  0.25634298391E-01  0.00000000000E+00 0.  1.
       22    1    1    2    0    0  0.40328749883E-02  0.67473269894E-02 -0.82130709019E-02  0.11368598674E-01  0.00000000000E+00 0. -1.
</event>
<event>
 5   0  0.4143600E+04  0.9118800E+02  0.7546771E-02  0.1180000E+00
      -11   -1    0    0    0    0  0.00000000000E+00  0.00000000000E+00  0.34996269501E-01  0.35000000000E-01  0.51099999109E-03 0. -1.
       11   -1    0    0    0    0 -0.00000000000E+00 -0.00000000000E+00 -0.34996269501E-01  0.35000000000E-01  0.51099999109E-03 0.  1.
       22    1    1    2    0    0  0.56119046148E-02 -0.10515486298E-01 -0.30636164962E-01  0.32873142975E-01  0.00000000000E+00 0.  1.
       22    1    1    2    0    0 -0.59739595764E-02  0.87584805524E-02  0.32709747452E-01  0.34384978595E-01  0.00000000000E+00 0. -1.
       22    1    1    2    0    0  0.36205496153E-03  0.17570057452E-02 -0.20735824900E-02  0.27418784303E-02  0.00000000000E+00 0.  1.
</event>
<event>
 5   0  0.4143600E+04  0.9118800E+02  0.7546771E-02  0.1180000E+00
      -11   -1    0    0    0    0  0.00000000000E+00  0.00000000000E+00  0.34996269501E-01  0.35000000000E-01  0.51099999109E-03 0.  1.
       11   -1    0    0    0    0 -0.00000000000E+00 -0.00000000000E+00 -0.34996269501E-01  0.35000000000E-01  0.51099999109E-03 0. -1.
       22    1    1    2    0    0  0.75044320990E-02  0.18541320670E-01 -0.28453976897E-01  0.34781113762E-01  0.00000000000E+00 0. -1.
       22    1    1    2    0    0 -0.83243958333E-06  0.37864789930E-03  0.32848787904E-03  0.50127757907E-03  0.00000000000E+00 0.  1.
       22    1    1    2    0    0 -0.75035996595E-02 -0.18919968569E-01  0.28125489018E-01  0.34717608659E-01  0.00000000000E+00 0.  1.
</event>
<event>
 5   0  0.4143600E+04  0.9118800E+02  0.7546771E-02  0.1180000E+00
      -11   -1    0    0    0    0  0.00000000000E+00  0.00000000000E+00  0.34996269501E-01  0.35000000000E-01  0.51099999109E-03 0. -1.
       11   -1    0    0    0    0 -0.00000000000E+00 -0.00000000000E+00 -0.34996269501E-01  0.35000000000E-01  0.51099999109E-03 0.  1.
       22    1    1    2    0    0  0.12712434324E-02 -0.17649432925E-01 -0.30156592325E-01  0.34964819506E-01  0.00000000000E+00 0.  1.
       22    1    1    2    0    0  0.89859653914E-04 -0.19675659998E-04  0.31598633925E-03  0.32910371555E-03  0.00000000000E+00 0.  1.
       22    1    1    2    0    0 -0.13611030863E-02  0.17669108585E-01  0.29840605985E-01  0.34706076779E-01  0.00000000000E+00 0. -1.
</event>
<event>
 5   0  0.4143600E+04  0.9118800E+02  0.7546771E-02  0.1180000E+00
      -11   -1    0    0    0    0  0.00000000000E+00  0.00000000000E+00  0.34996269501E-01  0.35000000000E-01  0.51099999109E-03 0. -1.
       11   -1    0    0    0    0 -0.00000000000E+00 -0.00000000000E+00 -0.34996269501E-01  0.35000000000E-01  0.51099999109E-03 0.  1.
       22    1    1    2    0    0  0.52036280857E-02 -0.23692034418E-02 -0.11050109816E-01  0.12441695911E-01  0.00000000000E+00 0.  1.
       22    1    1    2    0    0 -0.23262797022E-03  0.52755667398E-02 -0.22707328735E-01  0.23313268722E-01  0.00000000000E+00 0.  1.
       22    1    1    2    0    0 -0.49710001155E-02 -0.29063632980E-02  0.33757438551E-01  0.34245035367E-01  0.00000000000E+00 0. -1.
</event>
<event>
 5   0  0.4143600E+04  0.9118800E+02  0.7546771E-02  0.1180000E+00
      -11   -1    0    0    0    0  0.00000000000E+00  0.00000000000E+00  0.34996269501E-01  0.35000000000E-01  0.51099999109E-03 0. -1.
       11   -1    0    0    0    0 -0.00000000000E+00 -0.00000000000E+00 -0.34996269501E-01  0.35000000000E-01  0.51099999109E-03 0.  1.
       22    1    1    2    0    0  0.77388377024E-02  0.69865873350E-02 -0.26628166185E-01  0.28596525068E-01  0.00000000000E+00 0.  1.
       22    1    1    2    0    0 -0.81173668686E-02 -0.77755947837E-02  0.33056742314E-01  0.34915608709E-01  0.00000000000E+00 0. -1.
       22    1    1    2    0    0  0.37852916620E-03  0.78900744865E-03 -0.64285761289E-02  0.64878662230E-02  0.00000000000E+00 0.  1.
</event>
<event>
 5   0  0.4143600E+04  0.9118800E+02  0.7546771E-02  0.1180000E+00
      -11   -1    0    0    0    0  0.00000000000E+00  0.00000000000E+00  0.34996269501E-01  0.35000000000E-01  0.51099999109E-03 0. -1.
       11   -1    0    0    0    0 -0.00000000000E+00 -0.00000000000E+00 -0.34996269501E-01  0.35000000000E-01  0.51099999109E-03 0.  1.
       22    1    1    2    0    0  0.22413948220E-01  0.93396357334E-02  0.24119399188E-01  0.34225126554E-01  0.00000000000E+00 0. -1.
       22    1    1    2    0    0 -0.22543535524E-01 -0.93187885838E-02 -0.24973783229E-01  0.34910466387E-01  0.00000000000E+00 0.  1.
       22    1    1    2    0    0  0.12958730441E-03 -0.20847149600E-04  0.85438404105E-03  0.86440705846E-03  0.00000000000E+00 0.  1.
</event>
<event>
 5   0  0.4143600E+04  0.9118800E+02  0.7546771E-02  0.1180000E+00
      -11   -1    0    0    0    0  0.00000000000E+00  0.00000000000E+00  0.34996269501E-01  0.35000000000E-01  0.51099999109E-03 0.  1.
       11   -1    0    0    0    0 -0.00000000000E+00 -0.00000000000E+00 -0.34996269501E-01  0.35000000000E-01  0.51099999109E-03 0. -1.
       22    1    1    2    0    0  0.40876572085E-03 -0.42675594022E-03 -0.11015701982E-02  0.12500667776E-02  0.00000000000E+00 0. -1.
       22    1    1    2    0    0 -0.45832667678E-02 -0.98370625424E-02  0.33128346774E-01  0.34860600879E-01  0.00000000000E+00 0.  1.
       22    1    1    2    0    0  0.41745010470E-02  0.10263818483E-01 -0.32026776575E-01  0.33889332343E-01  0.00000000000E+00 0. -1.
</event>
<event>
 5   0  0.4143600E+04  0.9118800E+02  0.7546771E-02  0.1180000E+00
      -11   -1    0    0    0    0  0.00000000000E+00  0.00000000000E+00  0.34996269501E-01  0.35000000000E-01  0.51099999109E-03 0.  1.
       11   -1    0    0    0    0 -0.00000000000E+00 -0.00000000000E+00 -0.34996269501E-01  0.35000000000E-01  0.51099999109E-03 0. -1.
       22    1    1    2    0    0 -0.42823485810E-02 -0.11618633914E-02 -0.29064941204E-01  0.29401687760E-01  0.00000000000E+00 0. -1.
       22    1    1    2    0    0  0.20300210878E-02  0.13106092913E-02  0.34566938116E-01  0.34651289919E-01  0.00000000000E+00 0.  1.
       22    1    1    2    0    0  0.22523274932E-02 -0.14874589996E-03 -0.55019969115E-02  0.59470223216E-02  0.00000000000E+00 0.  1.
</event>
<event>
 5   0  0.4143600E+04  0.9118800E+02  0.7546771E-02  0.1180000E+00
      -11   -1    0    0    0    0  0.00000000000E+00  0.00000000000E+00  0.34996269501E-01  0.35000000000E-01  0.51099999109E-03 0.  1.
       11   -1    0    0    0    0 -0.00000000000E+00 -0.00000000000E+00 -0.34996269501E-01  0.35000000000E-01  0.51099999109E-03 0. -1.
       22    1    1    2    0    0 -0.14901614927E-01  0.19077102369E-01 -0.25095439698E-01  0.34867966041E-01  0.00000000000E+00 0. -1.
       22    1    1    2    0    0  0.14308430723E-01 -0.18151484318E-01  0.24970653135E-01  0.34025594641E-01  0.00000000000E+00 0.  1.
       22    1    1    2    0    0  0.59318420424E-03 -0.92561805151E-03  0.12478656254E-03  0.11064393176E-02  0.00000000000E+00 0.  1.
</event>
<event>
 5   0  0.4143600E+04  0.9118800E+02  0.7546771E-02  0.1180000E+00
      -11   -1    0    0    0    0  0.00000000000E+00  0.00000000000E+00  0.34996269501E-01  0.35000000000E-01  0.51099999109E-03 0. -1.
       11   -1    0    0    0    0 -0.00000000000E+00 -0.00000000000E+00 -0.34996269501E-01  0.35000000000E-01  0.51099999109E-03 0. -1.
       22    1    1    2    0    0 -0.65712605428E-02  0.19556022518E-02 -0.95801982364E-02  0.11780748853E-01  0.00000000000E+00 0.  1.
       22    1    1    2    0    0  0.52087829348E-03  0.33877799693E-03  0.33466360888E-01  0.33472128642E-01  0.00000000000E+00 0. -1.
       22    1    1    2    0    0  0.60503822493E-02 -0.22943802487E-02 -0.23886162651E-01  0.24747122505E-01  0.00000000000E+00 0. -1.
</event>
<event>
 5   0  0.4143600E+04  0.9118800E+02  0.7546771E-02  0.1180000E+00
      -11   -1    0    0    0    0  0.00000000000E+00  0.00000000000E+00  0.34996269501E-01  0.35000000000E-01  0.51099999109E-03 0. -1.
       11   -1    0    0    0    0 -0.00000000000E+00 -0.00000000000E+00 -0.34996269501E-01  0.35000000000E-01  0.51099999109E-03 0.  1.
       22    1    1    2    0    0  0.21721551618E-02 -0.42934239294E-02  0.33935798329E-01  0.34275211966E-01  0.00000000000E+00 0. -1.
       22    1    1    2    0    0 -0.33525614222E-02  0.48960145118E-02 -0.91629538415E-02  0.10916517269E-01  0.00000000000E+00 0.  1.
       22    1    1    2    0    0  0.11804062604E-02 -0.60259058243E-03 -0.24772844487E-01  0.24808270765E-01  0.00000000000E+00 0.  1.
</event>
<event>
 5   0  0.4143600E+04  0.9118800E+02  0.7546771E-02  0.1180000E+00
      -11   -1    0    0    0    0  0.00000000000E+00  0.00000000000E+00  0.34996269501E-01  0.35000000000E-01  0.51099999109E-03 0.  1.
       11   -1    0    0    0    0 -0.00000000000E+00 -0.00000000000E+00 -0.34996269501E-01  0.35000000000E-01  0.51099999109E-03 0.  1.
       22    1    1    2    0    0 -0.18196608733E-03  0.12044002886E-03  0.34684890683E-01  0.34685577106E-01  0.00000000000E+00 0.  1.
       22    1    1    2    0    0  0.21487355097E-02 -0.16861246665E-02 -0.69745779589E-02  0.74903149725E-02  0.00000000000E+00 0. -1.
       22    1    1    2    0    0 -0.19667694223E-02  0.15656846376E-02 -0.27710312724E-01  0.27824107922E-01  0.00000000000E+00 0.  1.
</event>
<event>
 5   0  0.4143600E+04  0.9118800E+02  0.7546771E-02  0.1180000E+00
      -11   -1    0    0    0    0  0.00000000000E+00  0.00000000000E+00  0.34996269501E-01  0.35000000000E-01  0.51099999109E-03 0.  1.
       11   -1    0    0    0    0 -0.00000000000E+00 -0.00000000000E+00 -0.34996269501E-01  0.35000000000E-01  0.51099999109E-03 0. -1.
       22    1    1    2    0    0 -0.29994004951E-03 -0.47648062417E-02 -0.14319360655E-01  0.15094284750E-01  0.00000000000E+00 0.  1.
       22    1    1    2    0    0  0.75250418691E-02  0.47254193701E-02  0.33369045794E-01  0.34531855735E-01  0.00000000000E+00 0.  1.
       22    1    1    2    0    0 -0.72251018196E-02  0.39386871646E-04 -0.19049685139E-01  0.20373859515E-01  0.00000000000E+00 0. -1.
</event>
<event>
 5   0  0.4143600E+04  0.9118800E+02  0.7546771E-02  0.1180000E+00
      -11   -1    0    0    0    0  0.00000000000E+00  0.00000000000E+00  0.34996269501E-01  0.35000000000E-01  0.51099999109E-03 0. -1.
       11   -1    0    0    0    0 -0.00000000000E+00 -0.00000000000E+00 -0.34996269501E-01  0.35000000000E-01  0.51099999109E-03 0.  1.
       22    1    1    2    0    0  0.11581242106E-02  0.23075637508E-02 -0.33331575595E-01  0.33431422850E-01  0.00000000000E+00 0.  1.
       22    1    1    2    0    0 -0.50044008166E-04  0.64502508854E-03 -0.14795899994E-02  0.16148524187E-02  0.00000000000E+00 0. -1.
       22    1    1    2    0    0 -0.11080802024E-02 -0.29525888394E-02  0.34811165594E-01  0.34953724731E-01  0.00000000000E+00 0. -1.
</event>
<event>
 5   0  0.4143600E+04  0.9118800E+02  0.7546771E-02  0.1180000E+00
      -11   -1    0    0    0    0  0.00000000000E+00  0.00000000000E+00  0.34996269501E-01  0.35000000000E-01  0.51099999109E-03 0.  1.
       11   -1    0    0    0    0 -0.00000000000E+00 -0.00000000000E+00 -0.34996269501E-01  0.35000000000E-01  0.51099999109E-03 0. -1.
       22    1    1    2    0    0  0.76519661108E-02 -0.14065335284E-02  0.10423551422E-01  0.13006972983E-01  0.00000000000E+00 0.  1.
       22    1    1    2    0    0  0.12225477265E-01  0.14551731799E-01  0.13432485139E-01  0.23273307666E-01  0.00000000000E+00 0.  1.
       22    1    1    2    0    0 -0.19877443376E-01 -0.13145198271E-01 -0.23856036561E-01  0.33719719351E-01  0.00000000000E+00 0. -1.
</event>
<event>
 5   0  0.4143600E+04  0.9118800E+02  0.7546771E-02  0.1180000E+00
      -11   -1    0    0    0    0  0.00000000000E+00  0.00000000000E+00  0.34996269501E-01  0.35000000000E-01  0.51099999109E-03 0.  1.
       11   -1    0    0    0    0 -0.00000000000E+00 -0.00000000000E+00 -0.34996269501E-01  0.35000000000E-01  0.51099999109E-03 0. -1.
       22    1    1    2    0    0  0.93659498581E-02  0.19037892829E-01  0.25728505414E-01  0.33348438808E-01  0.00000000000E+00 0.  1.
       22    1    1    2    0    0 -0.45652726392E-03  0.10240429610E-02  0.13747487882E-02  0.17739829084E-02  0.00000000000E+00 0. -1.
       22    1    1    2    0    0 -0.89094225942E-02 -0.20061935790E-01 -0.27103254202E-01  0.34877578284E-01  0.00000000000E+00 0. -1.
</event>
<event>
 5   0  0.4143600E+04  0.9118800E+02  0.7546771E-02  0.1180000E+00
      -11   -1    0    0    0    0  0.00000000000E+00  0.00000000000E+00  0.34996269501E-01  0.35000000000E-01  0.51099999109E-03 0.  1.
       11   -1    0    0    0    0 -0.00000000000E+00 -0.00000000000E+00 -0.34996269501E-01  0.35000000000E-01  0.51099999109E-03 0. -1.
       22    1    1    2    0    0  0.40970618047E-03  0.16951030168E-04 -0.30660725398E-03  0.51201025373E-03  0.00000000000E+00 0. -1.
       22    1    1    2    0    0 -0.10698274474E-01  0.61998288567E-02  0.32687382439E-01  0.34947903017E-01  0.00000000000E+00 0.  1.
       22    1    1    2    0    0  0.10288568294E-01 -0.62167798869E-02 -0.32380775185E-01  0.34540086729E-01  0.00000000000E+00 0. -1.
</event>
<event>
 5   0  0.4143600E+04  0.9118800E+02  0.7546771E-02  0.1180000E+00
      -11   -1    0    0    0    0  0.00000000000E+00  0.00000000000E+00  0.34996269501E-01  0.35000000000E-01  0.51099999109E-03 0. -1.
       11   -1    0    0    0    0 -0.00000000000E+00 -0.00000000000E+00 -0.34996269501E-01  0.35000000000E-01  0.51099999109E-03 0.  1.
       22    1    1    2    0    0 -0.33567814998E-02 -0.21415783182E-01 -0.21960105898E-01  0.30856927948E-01  0.00000000000E+00 0.  1.
       22    1    1    2    0    0 -0.50832511434E-02 -0.32371498335E-02  0.64107525887E-02  0.87986550100E-02  0.00000000000E+00 0. -1.
       22    1    1    2    0    0  0.84400326431E-02  0.24652933016E-01  0.15549353309E-01  0.30344417042E-01  0.00000000000E+00 0. -1.
</event>
<event>
 5   0  0.4143600E+04  0.9118800E+02  0.7546771E-02  0.1180000E+00
      -11   -1    0    0    0    0  0.00000000000E+00  0.00000000000E+00  0.34996269501E-01  0.35000000000E-01  0.51099999109E-03 0.  1.
       11   -1    0    0    0    0 -0.00000000000E+00 -0.00000000000E+00 -0.34996269501E-01  0.35000000000E-01  0.51099999109E-03 0.  1.
       22    1    1    2    0    0  0.86171684328E-02 -0.89175599942E-02 -0.30789334192E-01  0.33192793918E-01  0.00000000000E+00 0.  1.
       22    1    1    2    0    0 -0.86171684328E-02  0.89175599942E-02  0.97633601909E-02  0.15782955055E-01  0.00000000000E+00 0. -1.
       22    1    1    2    0    0  0.00000000000E+00 -0.00000000000E+00  0.21025974001E-01  0.21024251027E-01  0.00000000000E+00 0.  1.
</event>
<event>
 5   0  0.4143600E+04  0.9118800E+02  0.7546771E-02  0.1180000E+00
      -11   -1    0    0    0    0  0.00000000000E+00  0.00000000000E+00  0.34996269501E-01  0.35000000000E-01  0.51099999109E-03 0. -1.
       11   -1    0    0    0    0 -0.00000000000E+00 -0.00000000000E+00 -0.34996269501E-01  0.35000000000E-01  0.51099999109E-03 0.  1.
       22    1    1    2    0    0 -0.41712463173E-03 -0.76994347480E-04 -0.87677923280E-02  0.87780466731E-02  0.00000000000E+00 0.  1.
       22    1    1    2    0    0  0.78006227783E-02  0.93839187265E-02  0.32481932676E-01  0.34698466778E-01  0.00000000000E+00 0. -1.
       22    1    1    2    0    0 -0.73834981465E-02 -0.93069243790E-02 -0.23714140348E-01  0.26523486549E-01  0.00000000000E+00 0.  1.
</event>
<event>
 5   0  0.4143600E+04  0.9118800E+02  0.7546771E-02  0.1180000E+00
      -11   -1    0    0    0    0  0.00000000000E+00  0.00000000000E+00  0.34996269501E-01  0.35000000000E-01  0.51099999109E-03 0. -1.
       11   -1    0    0    0    0 -0.00000000000E+00 -0.00000000000E+00 -0.34996269501E-01  0.35000000000E-01  0.51099999109E-03 0.  1.
       22    1    1    2    0    0 -0.21604312965E-01 -0.67117720416E-02  0.24515567735E-01  0.33358766224E-01  0.00000000000E+00 0. -1.
       22    1    1    2    0    0  0.65839670232E-03  0.25891501031E-02  0.14395812592E-02  0.30347287648E-02  0.00000000000E+00 0. -1.
       22    1    1    2    0    0  0.20945916263E-01  0.41226219384E-02 -0.25955148994E-01  0.33606505011E-01  0.00000000000E+00 0.  1.
</event>
<event>
 5   0  0.4143600E+04  0.9118800E+02  0.7546771E-02  0.1180000E+00
      -11   -1    0    0    0    0  0.00000000000E+00  0.00000000000E+00  0.34996269501E-01  0.35000000000E-01  0.51099999109E-03 0. -1.
       11   -1    0    0    0    0 -0.00000000000E+00 -0.00000000000E+00 -0.34996269501E-01  0.35000000000E-01  0.51099999109E-03 0. -1.
       22    1    1    2    0    0 -0.20539112735E-03  0.15214853324E-02 -0.31174797626E-01  0.31212579357E-01  0.00000000000E+00 0. -1.
       22    1    1    2    0    0  0.20539112735E-03 -0.15214853324E-02 -0.36527447776E-02  0.39622780748E-02  0.00000000000E+00 0.  1.
       22    1    1    2    0    0 -0.00000000000E+00  0.00000000000E+00  0.34827542403E-01  0.34825142568E-01  0.00000000000E+00 0. -1.
</event>
<event>
 5   0  0.4143600E+04  0.9118800E+02  0.7546771E-02  0.1180000E+00
      -11   -1    0    0    0    0  0.00000000000E+00  0.00000000000E+00  0.34996269501E-01  0.35000000000E-01  0.51099999109E-03 0.  1.
       11   -1    0    0    0    0 -0.00000000000E+00 -0.00000000000E+00 -0.34996269501E-01  0.35000000000E-01  0.51099999109E-03 0. -1.
       22    1    1    2    0    0 -0.13134557837E-02  0.32257040806E-02  0.31465234872E-01  0.31657405745E-01  0.00000000000E+00 0.  1.
       22    1    1    2    0    0 -0.72256210925E-02 -0.65664643624E-02 -0.64549877801E-02  0.11704482972E-01  0.00000000000E+00 0.  1.
       22    1    1    2    0    0  0.85390768762E-02  0.33407602818E-02 -0.25010247092E-01  0.26638111284E-01  0.00000000000E+00 0. -1.
</event>
<event>
 5   0  0.4143600E+04  0.9118800E+02  0.7546771E-02  0.1180000E+00
      -11   -1    0    0    0    0  0.00000000000E+00  0.00000000000E+00  0.34996269501E-01  0.35000000000E-01  0.51099999109E-03 0. -1.
       11   -1    0    0    0    0 -0.00000000000E+00 -0.00000000000E+00 -0.34996269501E-01  0.35000000000E-01  0.51099999109E-03 0.  1.
       22    1    1    2    0    0  0.21299478526E-01  0.90894981253E-03  0.61574730853E-02  0.22190278278E-01  0.00000000000E+00 0.  1.
       22    1    1    2    0    0 -0.20926359975E-01 -0.14662119194E-02 -0.22898741150E-01  0.31055026412E-01  0.00000000000E+00 0. -1.
       22    1    1    2    0    0 -0.37311855159E-03  0.55726210685E-03  0.16741268065E-01  0.16754695310E-01  0.00000000000E+00 0.  1.
</event>
<event>
 5   0  0.4143600E+04  0.9118800E+02  0.7546771E-02  0.1180000E+00
      -11   -1    0    0    0    0  0.00000000000E+00  0.00000000000E+00  0.34996269501E-01  0.35000000000E-01  0.51099999109E-03 0. -1.
       11   -1    0    0    0    0 -0.00000000000E+00 -0.00000000000E+00 -0.34996269501E-01  0.35000000000E-01  0.51099999109E-03 0.  1.
       22    1    1    2    0    0  0.43182243295E-04 -0.21986188808E-03 -0.78173812368E-02  0.78205916245E-02  0.00000000000E+00 0. -1.
       22    1    1    2    0    0  0.80790937609E-02 -0.74712325232E-02  0.32912925450E-01  0.34703771165E-01  0.00000000000E+00 0. -1.
       22    1    1    2    0    0 -0.81222760042E-02  0.76910944113E-02 -0.25095544213E-01  0.27475637210E-01  0.00000000000E+00 0.  1.
</event>
<event>
 5   0  0.4143600E+04  0.9118800E+02  0.7546771E-02  0.1180000E+00
      -11   -1    0    0    0    0  0.00000000000E+00  0.00000000000E+00  0.34996269501E-01  0.35000000000E-01  0.51099999109E-03 0. -1.
       11   -1    0    0    0    0 -0.00000000000E+00 -0.00000000000E+00 -0.34996269501E-01  0.35000000000E-01  0.51099999109E-03 0.  1.
       22    1    1    2    0    0  0.97133110659E-02 -0.58372006455E-02  0.31033145596E-01  0.33037515779E-01  0.00000000000E+00 0. -1.
       22    1    1    2    0    0  0.22861969218E-02  0.45450421823E-02 -0.19042546545E-02  0.54323374889E-02  0.00000000000E+00 0.  1.
       22    1    1    2    0    0 -0.11999507988E-01  0.12921584632E-02 -0.29128890942E-01  0.31530146732E-01  0.00000000000E+00 0.  1.
</event>
<event>
 5   0  0.4143600E+04  0.9118800E+02  0.7546771E-02  0.1180000E+00
      -11   -1    0    0    0    0  0.00000000000E+00  0.00000000000E+00  0.34996269501E-01  0.35000000000E-01  0.51099999109E-03 0.  1.
       11   -1    0    0    0    0 -0.00000000000E+00 -0.00000000000E+00 -0.34996269501E-01  0.35000000000E-01  0.51099999109E-03 0. -1.
       22    1    1    2    0    0 -0.79525754367E-02  0.52415402504E-02  0.33435961569E-01  0.34766085864E-01  0.00000000000E+00 0.  1.
       22    1    1    2    0    0  0.80741927193E-02 -0.51033990062E-02 -0.24501294180E-01  0.26297351311E-01  0.00000000000E+00 0. -1.
       22    1    1    2    0    0 -0.12161728257E-03 -0.13814124425E-03 -0.89346673894E-02  0.89365628251E-02  0.00000000000E+00 0.  1.
</event>
<event>
 5   0  0.4143600E+04  0.9118800E+02  0.7546771E-02  0.1180000E+00
      -11   -1    0    0    0    0  0.00000000000E+00  0.00000000000E+00  0.34996269501E-01  0.35000000000E-01  0.51099999109E-03 0.  1.
       11   -1    0    0    0    0 -0.00000000000E+00 -0.00000000000E+00 -0.34996269501E-01  0.35000000000E-01  0.51099999109E-03 0. -1.
       22    1    1    2    0    0 -0.29906569548E-02  0.66730796138E-02 -0.33190510512E-01  0.33986526868E-01  0.00000000000E+00 0. -1.
       22    1    1    2    0    0 -0.46009016658E-03  0.49641736470E-03 -0.83223232332E-03  0.10727179505E-02  0.00000000000E+00 0. -1.
       22    1    1    2    0    0  0.34507471214E-02 -0.71694969785E-02  0.34022742835E-01  0.34940755181E-01  0.00000000000E+00 0.  1.
</event>
<event>
 5   0  0.4143600E+04  0.9118800E+02  0.7546771E-02  0.1180000E+00
      -11   -1    0    0    0    0  0.00000000000E+00  0.00000000000E+00  0.34996269501E-01  0.35000000000E-01  0.51099999109E-03 0.  1.
       11   -1    0    0    0    0 -0.00000000000E+00 -0.00000000000E+00 -0.34996269501E-01  0.35000000000E-01  0.51099999109E-03 0. -1.
       22    1    1    2    0    0 -0.18775063361E-01 -0.18250175041E-02  0.25658437605E-01  0.31846335949E-01  0.00000000000E+00 0.  1.
       22    1    1    2    0    0  0.18859319063E-01  0.18699259562E-02 -0.29091046177E-01  0.34719727912E-01  0.00000000000E+00 0. -1.
       22    1    1    2    0    0 -0.84255702950E-04 -0.44908452082E-04  0.34326085724E-02  0.34339361386E-02  0.00000000000E+00 0. -1.
</event>
<event>
 5   0  0.4143600E+04  0.9118800E+02  0.7546771E-02  0.1180000E+00
      -11   -1    0    0    0    0  0.00000000000E+00  0.00000000000E+00  0.34996269501E-01  0.35000000000E-01  0.51099999109E-03 0.  1.
       11   -1    0    0    0    0 -0.00000000000E+00 -0.00000000000E+00 -0.34996269501E-01  0.35000000000E-01  0.51099999109E-03 0. -1.
       22    1    1    2    0    0  0.11401183700E-01  0.18217700663E-01 -0.27454001715E-01  0.34865367019E-01  0.00000000000E+00 0. -1.
       22    1    1    2    0    0  0.39665246908E-04 -0.18381385336E-03  0.15522164682E-02  0.15635654219E-02  0.00000000000E+00 0. -1.
       22    1    1    2    0    0 -0.11440848947E-01 -0.18033886809E-01  0.25901785247E-01  0.33571067559E-01  0.00000000000E+00 0.  1.
</event>
<event>
 5   0  0.4143600E+04  0.9118800E+02  0.7546771E-02  0.1180000E+00
      -11   -1    0    0    0    0  0.00000000000E+00  0.00000000000E+00  0.34996269501E-01  0.35000000000E-01  0.51099999109E-03 0.  1.
       11   -1    0    0    0    0 -0.00000000000E+00 -0.00000000000E+00 -0.34996269501E-01  0.35000000000E-01  0.51099999109E-03 0. -1.
       22    1    1    2    0    0  0.11226208462E-02  0.29168475582E-04 -0.73403709581E-02  0.74257776810E-02  0.00000000000E+00 0. -1.
       22    1    1    2    0    0  0.23708670196E-02 -0.12658994849E-01  0.32085332243E-01  0.34573685169E-01  0.00000000000E+00 0.  1.
       22    1    1    2    0    0 -0.34934878658E-02  0.12629826373E-01 -0.24744961285E-01  0.28000537150E-01  0.00000000000E+00 0. -1.
</event>
<event>
 5   0  0.4143600E+04  0.9118800E+02  0.7546771E-02  0.1180000E+00
      -11   -1    0    0    0    0  0.00000000000E+00  0.00000000000E+00  0.34996269501E-01  0.35000000000E-01  0.51099999109E-03 0.  1.
       11   -1    0    0    0    0 -0.00000000000E+00 -0.00000000000E+00 -0.34996269501E-01  0.35000000000E-01  0.51099999109E-03 0. -1.
       22    1    1    2    0    0 -0.13736180955E-03 -0.15357009241E-03  0.12062006380E-02  0.12236715324E-02  0.00000000000E+00 0.  1.
       22    1    1    2    0    0 -0.90367409544E-02 -0.70744471793E-02  0.31777219618E-01  0.33786124025E-01  0.00000000000E+00 0.  1.
       22    1    1    2    0    0  0.91741027639E-02  0.72280172717E-02 -0.32983420256E-01  0.34990204443E-01  0.00000000000E+00 0. -1.
</event>
<event>
 5   0  0.4143600E+04  0.9118800E+02  0.7546771E-02  0.1180000E+00
      -11   -1    0    0    0    0  0.00000000000E+00  0.00000000000E+00  0.34996269501E-01  0.35000000000E-01  0.51099999109E-03 0.  1.
       11   -1    0    0    0    0 -0.00000000000E+00 -0.00000000000E+00 -0.34996269501E-01  0.35000000000E-01  0.51099999109E-03 0. -1.
       22    1    1    2    0    0  0.14625466313E-01  0.60862085894E-02  0.30832732172E-01  0.34664154007E-01  0.00000000000E+00 0.  1.
       22    1    1    2    0    0 -0.73481036287E-03 -0.93145808057E-03 -0.81958010709E-02  0.82812266977E-02  0.00000000000E+00 0. -1.
       22    1    1    2    0    0 -0.13890655950E-01 -0.51547505089E-02 -0.22636931101E-01  0.27054619295E-01  0.00000000000E+00 0. -1.
</event>
<event>
 5   0  0.4143600E+04  0.9118800E+02  0.7546771E-02  0.1180000E+00
      -11   -1    0    0    0    0  0.00000000000E+00  0.00000000000E+00  0.34996269501E-01  0.35000000000E-01  0.51099999109E-03 0.  1.
       11   -1    0    0    0    0 -0.00000000000E+00 -0.00000000000E+00 -0.34996269501E-01  0.35000000000E-01  0.51099999109E-03 0. -1.
       22    1    1    2    0    0 -0.83406101658E-02  0.83267064287E-02 -0.32717233606E-01  0.34775238212E-01  0.00000000000E+00 0. -1.
       22    1    1    2    0    0  0.60774532639E-03  0.14140471066E-03  0.77075490346E-04  0.62872116646E-03  0.00000000000E+00 0.  1.
       22    1    1    2    0    0  0.77328648394E-02 -0.84681111393E-02  0.32640158115E-01  0.34596040622E-01  0.00000000000E+00 0.  1.
</event>
<event>
 5   0  0.4143600E+04  0.9118800E+02  0.7546771E-02  0.1180000E+00
      -11   -1    0    0    0    0  0.00000000000E+00  0.00000000000E+00  0.34996269501E-01  0.35000000000E-01  0.51099999109E-03 0. -1.
       11   -1    0    0    0    0 -0.00000000000E+00 -0.00000000000E+00 -0.34996269501E-01  0.35000000000E-01  0.51099999109E-03 0. -1.
       22    1    1    2    0    0 -0.41289760631E-02  0.40204204794E-02 -0.11833275301E-01  0.13162014607E-01  0.00000000000E+00 0.  1.
       22    1    1    2    0    0 -0.48135868638E-03  0.33141623457E-03  0.33886511188E-01  0.33891550324E-01  0.00000000000E+00 0. -1.
       22    1    1    2    0    0  0.46103347495E-02 -0.43518367140E-02 -0.22053235887E-01  0.22946435069E-01  0.00000000000E+00 0. -1.
</event>
<event>
 5   0  0.4143600E+04  0.9118800E+02  0.7546771E-02  0.1180000E+00
      -11   -1    0    0    0    0  0.00000000000E+00  0.00000000000E+00  0.34996269501E-01  0.35000000000E-01  0.51099999109E-03 0. -1.
       11   -1    0    0    0    0 -0.00000000000E+00 -0.00000000000E+00 -0.34996269501E-01  0.35000000000E-01  0.51099999109E-03 0.  1.
       22    1    1    2    0    0 -0.86952867036E-03  0.11705964437E-02 -0.40562766543E-02  0.43104241600E-02  0.00000000000E+00 0.  1.
       22    1    1    2    0    0  0.41287118417E-04 -0.10585118754E-02 -0.30802535546E-01  0.30820745417E-01  0.00000000000E+00 0.  1.
       22    1    1    2    0    0  0.82824155194E-03 -0.11208456827E-03  0.34858812200E-01  0.34868830423E-01  0.00000000000E+00 0. -1.
</event>
<event>
 5   0  0.4143600E+04  0.9118800E+02  0.7546771E-02  0.1180000E+00
      -11   -1    0    0    0    0  0.00000000000E+00  0.00000000000E+00  0.34996269501E-01  0.35000000000E-01  0.51099999109E-03 0. -1.
       11   -1    0    0    0    0 -0.00000000000E+00 -0.00000000000E+00 -0.34996269501E-01  0.35000000000E-01  0.51099999109E-03 0. -1.
       22    1    1    2    0    0  0.13189226442E-03  0.42554648716E-02 -0.28893977286E-01  0.29205963436E-01  0.00000000000E+00 0. -1.
       22    1    1    2    0    0 -0.19965416790E-03 -0.44885466108E-02 -0.51013492155E-02  0.67978435024E-02  0.00000000000E+00 0.  1.
       22    1    1    2    0    0  0.67761903482E-04  0.23308173914E-03  0.33995326501E-01  0.33996193062E-01  0.00000000000E+00 0. -1.
</event>
<event>
 5   0  0.4143600E+04  0.9118800E+02  0.7546771E-02  0.1180000E+00
      -11   -1    0    0    0    0  0.00000000000E+00  0.00000000000E+00  0.34996269501E-01  0.35000000000E-01  0.51099999109E-03 0.  1.
       11   -1    0    0    0    0 -0.00000000000E+00 -0.00000000000E+00 -0.34996269501E-01  0.35000000000E-01  0.51099999109E-03 0. -1.
       22    1    1    2    0    0 -0.73956140351E-03 -0.40184125839E-04  0.35367887715E-02  0.36135080805E-02  0.00000000000E+00 0.  1.
       22    1    1    2    0    0  0.18066274089E-01 -0.13167441196E-01 -0.26541915543E-01  0.34702234047E-01  0.00000000000E+00 0. -1.
       22    1    1    2    0    0 -0.17326712686E-01  0.13207625322E-01  0.23005126772E-01  0.31684257873E-01  0.00000000000E+00 0.  1.
</event>
<event>
 5   0  0.4143600E+04  0.9118800E+02  0.7546771E-02  0.1180000E+00
      -11   -1    0    0    0    0  0.00000000000E+00  0.00000000000E+00  0.34996269501E-01  0.35000000000E-01  0.51099999109E-03 0.  1.
       11   -1    0    0    0    0 -0.00000000000E+00 -0.00000000000E+00 -0.34996269501E-01  0.35000000000E-01  0.51099999109E-03 0. -1.
       22    1    1    2    0    0 -0.63429409702E-02  0.58913444463E-03 -0.28167227702E-02  0.69651925106E-02  0.00000000000E+00 0.  1.
       22    1    1    2    0    0  0.87639840066E-02  0.84989338846E-02 -0.28143659603E-01  0.30677432564E-01  0.00000000000E+00 0. -1.
       22    1    1    2    0    0 -0.24210430364E-02 -0.90880683292E-02  0.30960382374E-01  0.32357374925E-01  0.00000000000E+00 0.  1.
</event>
<event>
 5   0  0.4143600E+04  0.9118800E+02  0.7546771E-02  0.1180000E+00
      -11   -1    0    0    0    0  0.00000000000E+00  0.00000000000E+00  0.34996269501E-01  0.35000000000E-01  0.51099999109E-03 0.  1.
       11   -1    0    0    0    0 -0.00000000000E+00 -0.00000000000E+00 -0.34996269501E-01  0.35000000000E-01  0.51099999109E-03 0. -1.
       22    1    1    2    0    0 -0.17215283385E-03  0.10288782320E-02 -0.74873608348E-02  0.75596824857E-02  0.00000000000E+00 0. -1.
       22    1    1    2    0    0  0.80096156628E-02 -0.41518886946E-02 -0.26201448074E-01  0.27711153061E-01  0.00000000000E+00 0. -1.
       22    1    1    2    0    0 -0.78374628289E-02  0.31230104626E-02  0.33688808909E-01  0.34729164453E-01  0.00000000000E+00 0.  1.
</event>
<event>
 5   0  0.4143600E+04  0.9118800E+02  0.7546771E-02  0.1180000E+00
      -11   -1    0    0    0    0  0.00000000000E+00  0.00000000000E+00  0.34996269501E-01  0.35000000000E-01  0.51099999109E-03 0.  1.
       11   -1    0    0    0    0 -0.00000000000E+00 -0.00000000000E+00 -0.34996269501E-01  0.35000000000E-01  0.51099999109E-03 0. -1.
       22    1    1    2    0    0 -0.15745596850E-01  0.68905797446E-03  0.31218738123E-01  0.34971534582E-01  0.00000000000E+00 0.  1.
       22    1    1    2    0    0  0.46700658318E-04 -0.11115969932E-03 -0.63121285883E-03  0.64262516555E-03  0.00000000000E+00 0. -1.
       22    1    1    2    0    0  0.15698896192E-01 -0.57789827514E-03 -0.30587525264E-01  0.34385840252E-01  0.00000000000E+00 0. -1.
</event>
<event>
 5   0  0.4143600E+04  0.9118800E+02  0.7546771E-02  0.1180000E+00
      -11   -1    0    0    0    0  0.00000000000E+00  0.00000000000E+00  0.34996269501E-01  0.35000000000E-01  0.51099999109E-03 0. -1.
       11   -1    0    0    0    0 -0.00000000000E+00 -0.00000000000E+00 -0.34996269501E-01  0.35000000000E-01  0.51099999109E-03 0.  1.
       22    1    1    2    0    0 -0.28612181666E-07 -0.84919548772E-05  0.42389768808E-03  0.42398274031E-03  0.00000000000E+00 0.  1.
       22    1    1    2    0    0 -0.16648843718E-01  0.62174414840E-02  0.29694660105E-01  0.34606551612E-01  0.00000000000E+00 0. -1.
       22    1    1    2    0    0  0.16648872330E-01 -0.62089495291E-02 -0.30118557793E-01  0.34969465647E-01  0.00000000000E+00 0.  1.
</event>
<event>
 5   0  0.4143600E+04  0.9118800E+02  0.7546771E-02  0.1180000E+00
      -11   -1    0    0    0    0  0.00000000000E+00  0.00000000000E+00  0.34996269501E-01  0.35000000000E-01  0.51099999109E-03 0.  1.
       11   -1    0    0    0    0 -0.00000000000E+00 -0.00000000000E+00 -0.34996269501E-01  0.35000000000E-01  0.51099999109E-03 0. -1.
       22    1    1    2    0    0  0.12600234488E-03 -0.77511481037E-03  0.41122278538E-02  0.41865376484E-02  0.00000000000E+00 0. -1.
       22    1    1    2    0    0  0.20289066790E-02  0.15601886186E-01  0.27018165530E-01  0.31265261609E-01  0.00000000000E+00 0.  1.
       22    1    1    2    0    0 -0.21549090239E-02 -0.14826771375E-01 -0.31130393384E-01  0.34548200743E-01  0.00000000000E+00 0. -1.
</event>
<event>
 5   0  0.4143600E+04  0.9118800E+02  0.7546771E-02  0.1180000E+00
      -11   -1    0    0    0    0  0.00000000000E+00  0.00000000000E+00  0.34996269501E-01  0.35000000000E-01  0.51099999109E-03 0.  1.
       11   -1    0    0    0    0 -0.00000000000E+00 -0.00000000000E+00 -0.34996269501E-01  0.35000000000E-01  0.51099999109E-03 0. -1.
       22    1    1    2    0    0 -0.32167070968E-03 -0.93136634211E-02  0.32683666446E-01  0.33986318581E-01  0.00000000000E+00 0.  1.
       22    1    1    2    0    0  0.11003601242E-02 -0.19019518964E-02 -0.10377514467E-02  0.24300496876E-02  0.00000000000E+00 0. -1.
       22    1    1    2    0    0 -0.77868941455E-03  0.11215615317E-01 -0.31645914999E-01  0.33583631731E-01  0.00000000000E+00 0. -1.
</event>
<event>
 5   0  0.4143600E+04  0.9118800E+02  0.7546771E-02  0.1180000E+00
      -11   -1    0    0    0    0  0.00000000000E+00  0.00000000000E+00  0.34996269501E-01  0.35000000000E-01  0.51099999109E-03 0. -1.
       11   -1    0    0    0    0 -0.00000000000E+00 -0.00000000000E+00 -0.34996269501E-01  0.35000000000E-01  0.51099999109E-03 0.  1.
       22    1    1    2    0    0  0.66062311173E-03 -0.34061634367E-01  0.71746843636E-02  0.34815333609E-01  0.00000000000E+00 0. -1.
       22    1    1    2    0    0  0.15667898664E-03 -0.22920661246E-04 -0.39120408566E-03  0.42203589682E-03  0.00000000000E+00 0. -1.
       22    1    1    2    0    0 -0.81730209837E-03  0.34084555028E-01 -0.67834802779E-02  0.34762630494E-01  0.00000000000E+00 0.  1.
</event>
<event>
 5   0  0.4143600E+04  0.9118800E+02  0.7546771E-02  0.1180000E+00
      -11   -1    0    0    0    0  0.00000000000E+00  0.00000000000E+00  0.34996269501E-01  0.35000000000E-01  0.51099999109E-03 0. -1.
       11   -1    0    0    0    0 -0.00000000000E+00 -0.00000000000E+00 -0.34996269501E-01  0.35000000000E-01  0.51099999109E-03 0. -1.
       22    1    1    2    0    0  0.14397082990E-02 -0.43340647397E-03 -0.31321898300E-01  0.31357964129E-01  0.00000000000E+00 0. -1.
       22    1    1    2    0    0 -0.19247639843E-02  0.12034351837E-03 -0.34034639890E-02  0.39118750085E-02  0.00000000000E+00 0.  1.
       22    1    1    2    0    0  0.48505568536E-03  0.31306295561E-03  0.34725362289E-01  0.34730160863E-01  0.00000000000E+00 0. -1.
</event>
<event>
 5   0  0.4143600E+04  0.9118800E+02  0.7546771E-02  0.1180000E+00
      -11   -1    0    0    0    0  0.00000000000E+00  0.00000000000E+00  0.34996269501E-01  0.35000000000E-01  0.51099999109E-03 0. -1.
       11   -1    0    0    0    0 -0.00000000000E+00 -0.00000000000E+00 -0.34996269501E-01  0.35000000000E-01  0.51099999109E-03 0.  1.
       22    1    1    2    0    0  0.73425792579E-02  0.94986800840E-02 -0.32129798792E-01  0.34299597139E-01  0.00000000000E+00 0.  1.
       22    1    1    2    0    0 -0.48661388250E-02 -0.91302019911E-02  0.14051121429E-01  0.17449180751E-01  0.00000000000E+00 0. -1.
       22    1    1    2    0    0 -0.24764404329E-02 -0.36847809288E-03  0.18078677363E-01  0.18251222110E-01  0.00000000000E+00 0. -1.
</event>
<event>
 5   0  0.4143600E+04  0.9118800E+02  0.7546771E-02  0.1180000E+00
      -11   -1    0    0    0    0  0.00000000000E+00  0.00000000000E+00  0.34996269501E-01  0.35000000000E-01  0.51099999109E-03 0.  1.
       11   -1    0    0    0    0 -0.00000000000E+00 -0.00000000000E+00 -0.34996269501E-01  0.35000000000E-01  0.51099999109E-03 0.  1.
       22    1    1    2    0    0 -0.76482469481E-03 -0.22152962159E-03 -0.33066978902E-01  0.33076564603E-01  0.00000000000E+00 0.  1.
       22    1    1    2    0    0  0.76482469481E-03  0.22152962159E-03 -0.18462172673E-02  0.20106094561E-02  0.00000000000E+00 0. -1.
       22    1    1    2    0    0  0.00000000000E+00  0.00000000000E+00  0.34913196170E-01  0.34912825941E-01  0.00000000000E+00 0.  1.
</event>
<event>
 5   0  0.4143600E+04  0.9118800E+02  0.7546771E-02  0.1180000E+00
      -11   -1    0    0    0    0  0.00000000000E+00  0.00000000000E+00  0.34996269501E-01  0.35000000000E-01  0.51099999109E-03 0. -1.
       11   -1    0    0    0    0 -0.00000000000E+00 -0.00000000000E+00 -0.34996269501E-01  0.35000000000E-01  0.51099999109E-03 0.  1.
       22    1    1    2    0    0 -0.52025866282E-02 -0.16832832990E-01 -0.29972524002E-01  0.34767274399E-01  0.00000000000E+00 0.  1.
       22    1    1    2    0    0 -0.93674768351E-03  0.16556123329E-02  0.52188547621E-02  0.55547271263E-02  0.00000000000E+00 0.  1.
       22    1    1    2    0    0  0.61393343117E-02  0.15177220657E-01  0.24753669239E-01  0.29677998475E-01  0.00000000000E+00 0. -1.
</event>
<event>
 5   0  0.4143600E+04  0.9118800E+02  0.7546771E-02  0.1180000E+00
      -11   -1    0    0    0    0  0.00000000000E+00  0.00000000000E+00  0.34996269501E-01  0.35000000000E-01  0.51099999109E-03 0. -1.
       11   -1    0    0    0    0 -0.00000000000E+00 -0.00000000000E+00 -0.34996269501E-01  0.35000000000E-01  0.51099999109E-03 0.  1.
       22    1    1    2    0    0 -0.34101555628E-02  0.21892208071E-01  0.26571828284E-01  0.34597109612E-01  0.00000000000E+00 0. -1.
       22    1    1    2    0    0  0.34144770240E-02 -0.21992929005E-01 -0.26984134773E-01  0.34978437773E-01  0.00000000000E+00 0.  1.
       22    1    1    2    0    0 -0.43214612181E-05  0.10072093402E-03  0.41230648901E-03  0.42445261509E-03  0.00000000000E+00 0.  1.
</event>
<event>
 5   0  0.4143600E+04  0.9118800E+02  0.7546771E-02  0.1180000E+00
      -11   -1    0    0    0    0  0.00000000000E+00  0.00000000000E+00  0.34996269501E-01  0.35000000000E-01  0.51099999109E-03 0. -1.
       11   -1    0    0    0    0 -0.00000000000E+00 -0.00000000000E+00 -0.34996269501E-01  0.35000000000E-01  0.51099999109E-03 0.  1.
       22    1    1    2    0    0 -0.33245194192E-03  0.27999204158E-03 -0.23628147051E-01  0.23632144483E-01  0.00000000000E+00 0.  1.
       22    1    1    2    0    0  0.23202307729E-02  0.59714045370E-02  0.33724512872E-01  0.34327596937E-01  0.00000000000E+00 0. -1.
       22    1    1    2    0    0 -0.19877788310E-02 -0.62513965785E-02 -0.10096365822E-01  0.12040258580E-01  0.00000000000E+00 0.  1.
</event>
<event>
 5   0  0.4143600E+04  0.9118800E+02  0.7546771E-02  0.1180000E+00
      -11   -1    0    0    0    0  0.00000000000E+00  0.00000000000E+00  0.34996269501E-01  0.35000000000E-01  0.51099999109E-03 0.  1.
       11   -1    0    0    0    0 -0.00000000000E+00 -0.00000000000E+00 -0.34996269501E-01  0.35000000000E-01  0.51099999109E-03 0. -1.
       22    1    1    2    0    0 -0.75924054475E-02 -0.36093005165E-02  0.27346185537E-01  0.28609186184E-01  0.00000000000E+00 0.  1.
       22    1    1    2    0    0 -0.69363766955E-02 -0.51185756700E-02 -0.21984423499E-01  0.23614148621E-01  0.00000000000E+00 0. -1.
       22    1    1    2    0    0  0.14528782143E-01  0.87278761865E-02 -0.53617620382E-02  0.17776665195E-01  0.00000000000E+00 0. -1.
</event>
<event>
 5   0  0.4143600E+04  0.9118800E+02  0.7546771E-02  0.1180000E+00
      -11   -1    0    0    0    0  0.00000000000E+00  0.00000000000E+00  0.34996269501E-01  0.35000000000E-01  0.51099999109E-03 0. -1.
       11   -1    0    0    0    0 -0.00000000000E+00 -0.00000000000E+00 -0.34996269501E-01  0.35000000000E-01  0.51099999109E-03 0.  1.
       22    1    1    2    0    0 -0.15997784579E-03 -0.11026018119E-03 -0.46953081176E-03  0.50814309194E-03  0.00000000000E+00 0. -1.
       22    1    1    2    0    0 -0.19845875412E-01  0.19771984175E-01 -0.20294338000E-01  0.34592633377E-01  0.00000000000E+00 0. -1.
       22    1    1    2    0    0  0.20005853258E-01 -0.19661723994E-01  0.20763868812E-01  0.34899223531E-01  0.00000000000E+00 0.  1.
</event>
<event>
 5   0  0.4143600E+04  0.9118800E+02  0.7546771E-02  0.1180000E+00
      -11   -1    0    0    0    0  0.00000000000E+00  0.00000000000E+00  0.34996269501E-01  0.35000000000E-01  0.51099999109E-03 0. -1.
       11   -1    0    0    0    0 -0.00000000000E+00 -0.00000000000E+00 -0.34996269501E-01  0.35000000000E-01  0.51099999109E-03 0.  1.
       22    1    1    2    0    0  0.77493837605E-02 -0.13758692159E-01  0.28083146457E-01  0.32218281667E-01  0.00000000000E+00 0. -1.
       22    1    1    2    0    0 -0.64222097707E-04 -0.67949280964E-04  0.29488724641E-02  0.29503542825E-02  0.00000000000E+00 0. -1.
       22    1    1    2    0    0 -0.76851616628E-02  0.13826641440E-01 -0.31032018922E-01  0.34831364051E-01  0.00000000000E+00 0.  1.
</event>
<event>
 5   0  0.4143600E+04  0.9118800E+02  0.7546771E-02  0.1180000E+00
      -11   -1    0    0    0    0  0.00000000000E+00  0.00000000000E+00  0.34996269501E-01  0.35000000000E-01  0.51099999109E-03 0.  1.
       11   -1    0    0    0    0 -0.00000000000E+00 -0.00000000000E+00 -0.34996269501E-01  0.35000000000E-01  0.51099999109E-03 0. -1.
       22    1    1    2    0    0  0.81147322102E-02 -0.95439540969E-02 -0.29847765338E-01  0.32370125646E-01  0.00000000000E+00 0. -1.
       22    1    1    2    0    0 -0.11262061410E-01  0.13668012332E-01  0.23688747452E-01  0.29577108448E-01  0.00000000000E+00 0.  1.
       22    1    1    2    0    0  0.31473291993E-02 -0.41240582350E-02  0.61590178861E-02  0.80527659059E-02  0.00000000000E+00 0.  1.
</event>
<event>
 5   0  0.4143600E+04  0.9118800E+02  0.7546771E-02  0.1180000E+00
      -11   -1    0    0    0    0  0.00000000000E+00  0.00000000000E+00  0.34996269501E-01  0.35000000000E-01  0.51099999109E-03 0.  1.
       11   -1    0    0    0    0 -0.00000000000E+00 -0.00000000000E+00 -0.34996269501E-01  0.35000000000E-01  0.51099999109E-03 0. -1.
       22    1    1    2    0    0 -0.18948426288E-01 -0.89298141024E-02  0.27978303098E-01  0.34950963977E-01  0.00000000000E+00 0.  1.
       22    1    1    2    0    0  0.18638586344E-01  0.91066761433E-02 -0.27628222161E-01  0.34549198415E-01  0.00000000000E+00 0. -1.
       22    1    1    2    0    0  0.30983994419E-03 -0.17686204089E-03 -0.35008093640E-03  0.49983760818E-03  0.00000000000E+00 0.  1.
</event>
<event>
 5   0  0.4143600E+04  0.9118800E+02  0.7546771E-02  0.1180000E+00
      -11   -1    0    0    0    0  0.00000000000E+00  0.00000000000E+00  0.34996269501E-01  0.35000000000E-01  0.51099999109E-03 0.  1.
       11   -1    0    0    0    0 -0.00000000000E+00 -0.00000000000E+00 -0.34996269501E-01  0.35000000000E-01  0.51099999109E-03 0. -1.
       22    1    1    2    0    0 -0.85723795838E-02  0.85786721915E-02 -0.16159957639E-01  0.20204542538E-01  0.00000000000E+00 0. -1.
       22    1    1    2    0    0  0.42920040068E-02 -0.64776914276E-02  0.32167553049E-01  0.33092797612E-01  0.00000000000E+00 0.  1.
       22    1    1    2    0    0  0.42803755770E-02 -0.21009807639E-02 -0.16007595410E-01  0.16702659850E-01  0.00000000000E+00 0.  1.
</event>
<event>
 5   0  0.4143600E+04  0.9118800E+02  0.7546771E-02  0.1180000E+00
      -11   -1    0    0    0    0  0.00000000000E+00  0.00000000000E+00  0.34996269501E-01  0.35000000000E-01  0.51099999109E-03 0. -1.
       11   -1    0    0    0    0 -0.00000000000E+00 -0.00000000000E+00 -0.34996269501E-01  0.35000000000E-01  0.51099999109E-03 0.  1.
       22    1    1    2    0    0  0.14280824642E-01 -0.84229693443E-02 -0.30245530746E-01  0.34491745319E-01  0.00000000000E+00 0.  1.
       22    1    1    2    0    0  0.60169142683E-05 -0.21450003993E-03  0.63763557132E-02  0.63799654115E-02  0.00000000000E+00 0. -1.
       22    1    1    2    0    0 -0.14286841556E-01  0.86374693842E-02  0.23869175033E-01  0.29128289270E-01  0.00000000000E+00 0. -1.
</event>
<event>
 5   0  0.4143600E+04  0.9118800E+02  0.7546771E-02  0.1180000E+00
      -11   -1    0    0    0    0  0.00000000000E+00  0.00000000000E+00  0.34996269501E-01  0.35000000000E-01  0.51099999109E-03 0.  1.
       11   -1    0    0    0    0 -0.00000000000E+00 -0.00000000000E+00 -0.34996269501E-01  0.35000000000E-01  0.51099999109E-03 0. -1.
       22    1    1    2    0    0  0.11162163625E-01 -0.98605939881E-02  0.68070373614E-02  0.16375621155E-01  0.00000000000E+00 0.  1.
       22    1    1    2    0    0 -0.92599051620E-02  0.10223590428E-01 -0.28596277760E-01  0.31749247969E-01  0.00000000000E+00 0. -1.
       22    1    1    2    0    0 -0.19022584626E-02 -0.36299643969E-03  0.21789240399E-01  0.21875130876E-01  0.00000000000E+00 0.  1.
</event>
<event>
 5   0  0.4143600E+04  0.9118800E+02  0.7546771E-02  0.1180000E+00
      -11   -1    0    0    0    0  0.00000000000E+00  0.00000000000E+00  0.34996269501E-01  0.35000000000E-01  0.51099999109E-03 0. -1.
       11   -1    0    0    0    0 -0.00000000000E+00 -0.00000000000E+00 -0.34996269501E-01  0.35000000000E-01  0.51099999109E-03 0.  1.
       22    1    1    2    0    0  0.58755992174E-02  0.70422912533E-02  0.31762595633E-01  0.33060233115E-01  0.00000000000E+00 0. -1.
       22    1    1    2    0    0 -0.10519708050E-01 -0.81930276803E-02 -0.27367674093E-01  0.30443054139E-01  0.00000000000E+00 0.  1.
       22    1    1    2    0    0  0.46441088325E-02  0.11507364269E-02 -0.43949215398E-02  0.64967127467E-02  0.00000000000E+00 0. -1.
</event>
<event>
 5   0  0.4143600E+04  0.9118800E+02  0.7546771E-02  0.1180000E+00
      -11   -1    0    0    0    0  0.00000000000E+00  0.00000000000E+00  0.34996269501E-01  0.35000000000E-01  0.51099999109E-03 0.  1.
       11   -1    0    0    0    0 -0.00000000000E+00 -0.00000000000E+00 -0.34996269501E-01  0.35000000000E-01  0.51099999109E-03 0. -1.
       22    1    1    2    0    0  0.16180446309E-01  0.34371965480E-02 -0.25718229966E-01  0.30578563005E-01  0.00000000000E+00 0. -1.
       22    1    1    2    0    0 -0.72284882630E-04 -0.43823713543E-03 -0.47799561573E-02  0.48005476517E-02  0.00000000000E+00 0.  1.
       22    1    1    2    0    0 -0.16108161426E-01 -0.29989594126E-02  0.30498186124E-01  0.34620889343E-01  0.00000000000E+00 0.  1.
</event>
<event>
 5   0  0.4143600E+04  0.9118800E+02  0.7546771E-02  0.1180000E+00
      -11   -1    0    0    0    0  0.00000000000E+00  0.00000000000E+00  0.34996269501E-01  0.35000000000E-01  0.51099999109E-03 0. -1.
       11   -1    0    0    0    0 -0.00000000000E+00 -0.00000000000E+00 -0.34996269501E-01  0.35000000000E-01  0.51099999109E-03 0.  1.
       22    1    1    2    0    0 -0.13400085373E-01  0.16259901788E-01  0.27792060990E-01  0.34876142967E-01  0.00000000000E+00 0. -1.
       22    1    1    2    0    0  0.13637108376E-01 -0.16272663209E-01 -0.27367085157E-01  0.34637084790E-01  0.00000000000E+00 0.  1.
       22    1    1    2    0    0 -0.23702300326E-03  0.12761420575E-04 -0.42497583277E-03  0.48677224280E-03  0.00000000000E+00 0.  1.
</event>
<event>
 5   0  0.4143600E+04  0.9118800E+02  0.7546771E-02  0.1180000E+00
      -11   -1    0    0    0    0  0.00000000000E+00  0.00000000000E+00  0.34996269501E-01  0.35000000000E-01  0.51099999109E-03 0.  1.
       11   -1    0    0    0    0 -0.00000000000E+00 -0.00000000000E+00 -0.34996269501E-01  0.35000000000E-01  0.51099999109E-03 0. -1.
       22    1    1    2    0    0 -0.15843379283E-03  0.18675307618E-03  0.16022341644E-02  0.16208430818E-02  0.00000000000E+00 0.  1.
       22    1    1    2    0    0 -0.89537407100E-02 -0.89122215934E-02 -0.32573165908E-01  0.34937205150E-01  0.00000000000E+00 0. -1.
       22    1    1    2    0    0  0.91121745028E-02  0.87254685172E-02  0.30970931743E-01  0.33441951768E-01  0.00000000000E+00 0.  1.
</event>
<event>
 5   0  0.4143600E+04  0.9118800E+02  0.7546771E-02  0.1180000E+00
      -11   -1    0    0    0    0  0.00000000000E+00  0.00000000000E+00  0.34996269501E-01  0.35000000000E-01  0.51099999109E-03 0. -1.
       11   -1    0    0    0    0 -0.00000000000E+00 -0.00000000000E+00 -0.34996269501E-01  0.35000000000E-01  0.51099999109E-03 0.  1.
       22    1    1    2    0    0 -0.20288265221E-01  0.95086645043E-02 -0.22207778613E-01  0.31547009958E-01  0.00000000000E+00 0.  1.
       22    1    1    2    0    0  0.19437101570E-01 -0.95117550798E-02  0.26422640259E-01  0.34153042623E-01  0.00000000000E+00 0. -1.
       22    1    1    2    0    0  0.85116365128E-03  0.30905755899E-05 -0.42148616462E-02  0.42999474194E-02  0.00000000000E+00 0. -1.
</event>
<event>
 5   0  0.4143600E+04  0.9118800E+02  0.7546771E-02  0.1180000E+00
      -11   -1    0    0    0    0  0.00000000000E+00  0.00000000000E+00  0.34996269501E-01  0.35000000000E-01  0.51099999109E-03 0.  1.
       11   -1    0    0    0    0 -0.00000000000E+00 -0.00000000000E+00 -0.34996269501E-01  0.35000000000E-01  0.51099999109E-03 0. -1.
       22    1    1    2    0    0 -0.42359582119E-03 -0.48314523706E-04 -0.46687245311E-03  0.63224805291E-03  0.00000000000E+00 0. -1.
       22    1    1    2    0    0  0.17781706558E-01  0.91875411358E-02  0.28699120956E-01  0.34989134655E-01  0.00000000000E+00 0.  1.
       22    1    1    2    0    0 -0.17358110737E-01 -0.91392266121E-02 -0.28232248503E-01  0.34378617292E-01  0.00000000000E+00 0. -1.
</event>
<event>
 5   0  0.4143600E+04  0.9118800E+02  0.7546771E-02  0.1180000E+00
      -11   -1    0    0    0    0  0.00000000000E+00  0.00000000000E+00  0.34996269501E-01  0.35000000000E-01  0.51099999109E-03 0.  1.
       11   -1    0    0    0    0 -0.00000000000E+00 -0.00000000000E+00 -0.34996269501E-01  0.35000000000E-01  0.51099999109E-03 0. -1.
       22    1    1    2    0    0 -0.15896212216E-02 -0.29677209964E-02 -0.22336347738E-01  0.22588640814E-01  0.00000000000E+00 0. -1.
       22    1    1    2    0    0  0.97829168154E-02  0.36218337754E-02  0.32619499530E-01  0.34246969076E-01  0.00000000000E+00 0.  1.
       22    1    1    2    0    0 -0.81932955937E-02 -0.65411277894E-03 -0.10283151791E-01  0.13164390110E-01  0.00000000000E+00 0. -1.
</event>
<event>
 5   0  0.4143600E+04  0.9118800E+02  0.7546771E-02  0.1180000E+00
      -11   -1    0    0    0    0  0.00000000000E+00  0.00000000000E+00  0.34996269501E-01  0.35000000000E-01  0.51099999109E-03 0.  1.
       11   -1    0    0    0    0 -0.00000000000E+00 -0.00000000000E+00 -0.34996269501E-01  0.35000000000E-01  0.51099999109E-03 0. -1.
       22    1    1    2    0    0 -0.13556382847E-01  0.13500731634E-01 -0.28412206455E-01  0.34253448676E-01  0.00000000000E+00 0. -1.
       22    1    1    2    0    0  0.22339011711E-03 -0.21682977318E-03  0.79073637016E-02  0.79134896857E-02  0.00000000000E+00 0. -1.
       22    1    1    2    0    0  0.13332992730E-01 -0.13283901861E-01  0.20504842754E-01  0.27833061638E-01  0.00000000000E+00 0.  1.
</event>
<event>
 5   0  0.4143600E+04  0.9118800E+02  0.7546771E-02  0.1180000E+00
      -11   -1    0    0    0    0  0.00000000000E+00  0.00000000000E+00  0.34996269501E-01  0.35000000000E-01  0.51099999109E-03 0. -1.
       11   -1    0    0    0    0 -0.00000000000E+00 -0.00000000000E+00 -0.34996269501E-01  0.35000000000E-01  0.51099999109E-03 0.  1.
       22    1    1    2    0    0  0.21073802635E-01 -0.60243638194E-02 -0.26613718638E-01  0.34477356869E-01  0.00000000000E+00 0.  1.
       22    1    1    2    0    0 -0.21235192433E-01  0.57598471979E-02  0.27123827107E-01  0.34925796116E-01  0.00000000000E+00 0. -1.
       22    1    1    2    0    0  0.16138979825E-03  0.26451662150E-03 -0.51010846882E-03  0.59684701557E-03  0.00000000000E+00 0. -1.
</event>
<event>
 5   0  0.4143600E+04  0.9118800E+02  0.7546771E-02  0.1180000E+00
      -11   -1    0    0    0    0  0.00000000000E+00  0.00000000000E+00  0.34996269501E-01  0.35000000000E-01  0.51099999109E-03 0.  1.
       11   -1    0    0    0    0 -0.00000000000E+00 -0.00000000000E+00 -0.34996269501E-01  0.35000000000E-01  0.51099999109E-03 0. -1.
       22    1    1    2    0    0  0.73768546499E-02  0.41370507898E-02 -0.21166516803E-02  0.87185657134E-02  0.00000000000E+00 0. -1.
       22    1    1    2    0    0  0.15011697922E-02 -0.16277055079E-01 -0.25235496299E-01  0.30067030220E-01  0.00000000000E+00 0. -1.
       22    1    1    2    0    0 -0.88780244421E-02  0.12140004289E-01  0.27352147980E-01  0.31214404067E-01  0.00000000000E+00 0.  1.
</event>
<event>
 5   0  0.4143600E+04  0.9118800E+02  0.7546771E-02  0.1180000E+00
      -11   -1    0    0    0    0  0.00000000000E+00  0.00000000000E+00  0.34996269501E-01  0.35000000000E-01  0.51099999109E-03 0. -1.
       11   -1    0    0    0    0 -0.00000000000E+00 -0.00000000000E+00 -0.34996269501E-01  0.35000000000E-01  0.51099999109E-03 0.  1.
       22    1    1    2    0    0  0.11712834322E-02 -0.67459082967E-03  0.11611329087E-01  0.11689736559E-01  0.00000000000E+00 0. -1.
       22    1    1    2    0    0 -0.14037481736E-01 -0.11594971497E-01 -0.28480004598E-01  0.33802439548E-01  0.00000000000E+00 0.  1.
       22    1    1    2    0    0  0.12866198304E-01  0.12269562327E-01  0.16868675511E-01  0.24507823893E-01  0.00000000000E+00 0. -1.
</event>
<event>
 5   0  0.4143600E+04  0.9118800E+02  0.7546771E-02  0.1180000E+00
      -11   -1    0    0    0    0  0.00000000000E+00  0.00000000000E+00  0.34996269501E-01  0.35000000000E-01  0.51099999109E-03 0. -1.
       11   -1    0    0    0    0 -0.00000000000E+00 -0.00000000000E+00 -0.34996269501E-01  0.35000000000E-01  0.51099999109E-03 0.  1.
       22    1    1    2    0    0 -0.13751198559E-01  0.13034106883E-02  0.28479922766E-01  0.31652809386E-01  0.00000000000E+00 0. -1.
       22    1    1    2    0    0 -0.30829986280E-03  0.47939633487E-03  0.34061458708E-02  0.34535053705E-02  0.00000000000E+00 0.  1.
       22    1    1    2    0    0  0.14059498422E-01 -0.17828070232E-02 -0.31886068637E-01  0.34893685244E-01  0.00000000000E+00 0.  1.
</event>
<event>
 5   0  0.4143600E+04  0.9118800E+02  0.7546771E-02  0.1180000E+00
      -11   -1    0    0    0    0  0.00000000000E+00  0.00000000000E+00  0.34996269501E-01  0.35000000000E-01  0.51099999109E-03 0. -1.
       11   -1    0    0    0    0 -0.00000000000E+00 -0.00000000000E+00 -0.34996269501E-01  0.35000000000E-01  0.51099999109E-03 0.  1.
       22    1    1    2    0    0  0.29617725445E-02 -0.19674192837E-02  0.28260944258E-03  0.35668898694E-02  0.00000000000E+00 0.  1.
       22    1    1    2    0    0  0.26698222095E-02  0.13256351620E-01 -0.30676657733E-01  0.33524858517E-01  0.00000000000E+00 0.  1.
       22    1    1    2    0    0 -0.56315947540E-02 -0.11288932337E-01  0.30394048291E-01  0.32908251614E-01  0.00000000000E+00 0. -1.
</event>
<event>
 5   0  0.4143600E+04  0.9118800E+02  0.7546771E-02  0.1180000E+00
      -11   -1    0    0    0    0  0.00000000000E+00  0.00000000000E+00  0.34996269501E-01  0.35000000000E-01  0.51099999109E-03 0. -1.
       11   -1    0    0    0    0 -0.00000000000E+00 -0.00000000000E+00 -0.34996269501E-01  0.35000000000E-01  0.51099999109E-03 0.  1.
       22    1    1    2    0    0 -0.22618954795E-02  0.26685240166E-02 -0.29647381293E-01  0.29853046898E-01  0.00000000000E+00 0.  1.
       22    1    1    2    0    0  0.61512733787E-03 -0.16542000061E-02 -0.50737806731E-02  0.53719651544E-02  0.00000000000E+00 0. -1.
       22    1    1    2    0    0  0.16467681417E-02 -0.10143240105E-02  0.34721161966E-01  0.34774987948E-01  0.00000000000E+00 0. -1.
</event>
<event>
 5   0  0.4143600E+04  0.9118800E+02  0.7546771E-02  0.1180000E+00
      -11   -1    0    0    0    0  0.00000000000E+00  0.00000000000E+00  0.34996269501E-01  0.35000000000E-01  0.51099999109E-03 0.  1.
       11   -1    0    0    0    0 -0.00000000000E+00 -0.00000000000E+00 -0.34996269501E-01  0.35000000000E-01  0.51099999109E-03 0. -1.
       22    1    1    2    0    0  0.77740435961E-04  0.94342382276E-04  0.27800858064E-03  0.30369858640E-03  0.00000000000E+00 0. -1.
       22    1    1    2    0    0 -0.15676735573E-01  0.16776180242E-01 -0.26346110295E-01  0.34947357402E-01  0.00000000000E+00 0. -1.
       22    1    1    2    0    0  0.15598995137E-01 -0.16870522625E-01  0.26068101714E-01  0.34748944011E-01  0.00000000000E+00 0.  1.
</event>
<event>
 5   0  0.4143600E+04  0.9118800E+02  0.7546771E-02  0.1180000E+00
      -11   -1    0    0    0    0  0.00000000000E+00  0.00000000000E+00  0.34996269501E-01  0.35000000000E-01  0.51099999109E-03 0. -1.
       11   -1    0    0    0    0 -0.00000000000E+00 -0.00000000000E+00 -0.34996269501E-01  0.35000000000E-01  0.51099999109E-03 0.  1.
       22    1    1    2    0    0  0.18402641883E-01 -0.20292512978E-01  0.18360275857E-01  0.32977917472E-01  0.00000000000E+00 0. -1.
       22    1    1    2    0    0 -0.73201664077E-02  0.12969020321E-01 -0.18485289013E-01  0.23737864989E-01  0.00000000000E+00 0.  1.
       22    1    1    2    0    0 -0.11082475475E-01  0.73234926571E-02  0.12501315624E-03  0.13284217540E-01  0.00000000000E+00 0.  1.
</event>
<event>
 5   0  0.4143600E+04  0.9118800E+02  0.7546771E-02  0.1180000E+00
      -11   -1    0    0    0    0  0.00000000000E+00  0.00000000000E+00  0.34996269501E-01  0.35000000000E-01  0.51099999109E-03 0.  1.
       11   -1    0    0    0    0 -0.00000000000E+00 -0.00000000000E+00 -0.34996269501E-01  0.35000000000E-01  0.51099999109E-03 0. -1.
       22    1    1    2    0    0 -0.20281598512E-01  0.19883917224E-03  0.28483177211E-01  0.34966757918E-01  0.00000000000E+00 0.  1.
       22    1    1    2    0    0  0.35815623395E-03 -0.17447016798E-03 -0.22452924917E-03  0.45730636467E-03  0.00000000000E+00 0. -1.
       22    1    1    2    0    0  0.19923442279E-01 -0.24369004257E-04 -0.28258647962E-01  0.34575935717E-01  0.00000000000E+00 0. -1.
</event>
<event>
 5   0  0.4143600E+04  0.9118800E+02  0.7546771E-02  0.1180000E+00
      -11   -1    0    0    0    0  0.00000000000E+00  0.00000000000E+00  0.34996269501E-01  0.35000000000E-01  0.51099999109E-03 0. -1.
       11   -1    0    0    0    0 -0.00000000000E+00 -0.00000000000E+00 -0.34996269501E-01  0.35000000000E-01  0.51099999109E-03 0.  1.
       22    1    1    2    0    0 -0.61762699492E-04  0.36746619187E-03  0.16287847546E-02  0.16708637916E-02  0.00000000000E+00 0. -1.
       22    1    1    2    0    0  0.55696633237E-03 -0.16232080248E-01 -0.30969699593E-01  0.34970172055E-01  0.00000000000E+00 0.  1.
       22    1    1    2    0    0 -0.49520363288E-03  0.15864614056E-01  0.29340914839E-01  0.33358964153E-01  0.00000000000E+00 0. -1.
</event>
<event>
 5   0  0.4143600E+04  0.9118800E+02  0.7546771E-02  0.1180000E+00
      -11   -1    0    0    0    0  0.00000000000E+00  0.00000000000E+00  0.34996269501E-01  0.35000000000E-01  0.51099999109E-03 0. -1.
       11   -1    0    0    0    0 -0.00000000000E+00 -0.00000000000E+00 -0.34996269501E-01  0.35000000000E-01  0.51099999109E-03 0. -1.
       22    1    1    2    0    0  0.45684170254E-05  0.34230988756E-03  0.30818631079E-01  0.30820532417E-01  0.00000000000E+00 0. -1.
       22    1    1    2    0    0 -0.91634162518E-02 -0.32992107743E-02 -0.37251646763E-02  0.10427360213E-01  0.00000000000E+00 0.  1.
       22    1    1    2    0    0  0.91588478348E-02  0.29569008867E-02 -0.27093466402E-01  0.28752107370E-01  0.00000000000E+00 0. -1.
</event>
<event>
 5   0  0.4143600E+04  0.9118800E+02  0.7546771E-02  0.1180000E+00
      -11   -1    0    0    0    0  0.00000000000E+00  0.00000000000E+00  0.34996269501E-01  0.35000000000E-01  0.51099999109E-03 0.  1.
       11   -1    0    0    0    0 -0.00000000000E+00 -0.00000000000E+00 -0.34996269501E-01  0.35000000000E-01  0.51099999109E-03 0. -1.
       22    1    1    2    0    0  0.15651298083E-01 -0.29638118559E-02  0.31082009128E-01  0.34926187938E-01  0.00000000000E+00 0.  1.
       22    1    1    2    0    0 -0.14762027528E-01  0.30320518365E-02 -0.30467050428E-01  0.33990468618E-01  0.00000000000E+00 0. -1.
       22    1    1    2    0    0 -0.88927055480E-03 -0.68239980554E-04 -0.61495870040E-03  0.10833434441E-02  0.00000000000E+00 0.  1.
</event>
<event>
 5   0  0.4143600E+04  0.9118800E+02  0.7546771E-02  0.1180000E+00
      -11   -1    0    0    0    0  0.00000000000E+00  0.00000000000E+00  0.34996269501E-01  0.35000000000E-01  0.51099999109E-03 0. -1.
       11   -1    0    0    0    0 -0.00000000000E+00 -0.00000000000E+00 -0.34996269501E-01  0.35000000000E-01  0.51099999109E-03 0.  1.
       22    1    1    2    0    0  0.21713785582E-03 -0.12155097358E-02 -0.33647646206E-01  0.33670294147E-01  0.00000000000E+00 0.  1.
       22    1    1    2    0    0  0.31094733445E-03  0.11283126236E-02  0.34925074199E-01  0.34944678928E-01  0.00000000000E+00 0. -1.
       22    1    1    2    0    0 -0.52808519027E-03  0.87197112195E-04 -0.12774279927E-02  0.13850269244E-02  0.00000000000E+00 0. -1.
</event>
<event>
 5   0  0.4143600E+04  0.9118800E+02  0.7546771E-02  0.1180000E+00
      -11   -1    0    0    0    0  0.00000000000E+00  0.00000000000E+00  0.34996269501E-01  0.35000000000E-01  0.51099999109E-03 0. -1.
       11   -1    0    0    0    0 -0.00000000000E+00 -0.00000000000E+00 -0.34996269501E-01  0.35000000000E-01  0.51099999109E-03 0.  1.
       22    1    1    2    0    0  0.11506261687E-01  0.97904461953E-02 -0.31371801661E-01  0.34820063672E-01  0.00000000000E+00 0.  1.
       22    1    1    2    0    0 -0.11133560159E-01 -0.10081511378E-01  0.27990459759E-01  0.31765687006E-01  0.00000000000E+00 0. -1.
       22    1    1    2    0    0 -0.37270152858E-03  0.29106518276E-03  0.33813419020E-02  0.34142493214E-02  0.00000000000E+00 0. -1.
</event>
<event>
 5   0  0.4143600E+04  0.9118800E+02  0.7546771E-02  0.1180000E+00
      -11   -1    0    0    0    0  0.00000000000E+00  0.00000000000E+00  0.34996269501E-01  0.35000000000E-01  0.51099999109E-03 0.  1.
       11   -1    0    0    0    0 -0.00000000000E+00 -0.00000000000E+00 -0.34996269501E-01  0.35000000000E-01  0.51099999109E-03 0. -1.
       22    1    1    2    0    0  0.12658101094E-01  0.19434015329E-01  0.26164842064E-01  0.34964373802E-01  0.00000000000E+00 0.  1.
       22    1    1    2    0    0 -0.49496572532E-03 -0.18298574227E-03 -0.54864399057E-03  0.76123917366E-03  0.00000000000E+00 0.  1.
       22    1    1    2    0    0 -0.12163135368E-01 -0.19251029587E-01 -0.25616198074E-01  0.34274387024E-01  0.00000000000E+00 0. -1.
</event>
<event>
 5   0  0.4143600E+04  0.9118800E+02  0.7546771E-02  0.1180000E+00
      -11   -1    0    0    0    0  0.00000000000E+00  0.00000000000E+00  0.34996269501E-01  0.35000000000E-01  0.51099999109E-03 0. -1.
       11   -1    0    0    0    0 -0.00000000000E+00 -0.00000000000E+00 -0.34996269501E-01  0.35000000000E-01  0.51099999109E-03 0.  1.
       22    1    1    2    0    0 -0.13959168576E-02 -0.15698936069E-01  0.30801580552E-01  0.34599747717E-01  0.00000000000E+00 0. -1.
       22    1    1    2    0    0 -0.95076160081E-03  0.98499263321E-02 -0.24783907117E-01  0.26686458146E-01  0.00000000000E+00 0.  1.
       22    1    1    2    0    0  0.23466784585E-02  0.58490097371E-02 -0.60176734347E-02  0.87137941368E-02  0.00000000000E+00 0.  1.
</event>
<event>
 5   0  0.4143600E+04  0.9118800E+02  0.7546771E-02  0.1180000E+00
      -11   -1    0    0    0    0  0.00000000000E+00  0.00000000000E+00  0.34996269501E-01  0.35000000000E-01  0.51099999109E-03 0. -1.
       11   -1    0    0    0    0 -0.00000000000E+00 -0.00000000000E+00 -0.34996269501E-01  0.35000000000E-01  0.51099999109E-03 0.  1.
       22    1    1    2    0    0 -0.27192509949E-02  0.12855362761E-01  0.20865531373E-01  0.24658164513E-01  0.00000000000E+00 0. -1.
       22    1    1    2    0    0  0.10641696699E-02 -0.15510024246E-01 -0.31030086731E-01  0.34706765792E-01  0.00000000000E+00 0.  1.
       22    1    1    2    0    0  0.16550813250E-02  0.26546614854E-02  0.10164555358E-01  0.10635069695E-01  0.00000000000E+00 0. -1.
</event>
<event>
 5   0  0.4143600E+04  0.9118800E+02  0.7546771E-02  0.1180000E+00
      -11   -1    0    0    0    0  0.00000000000E+00  0.00000000000E+00  0.34996269501E-01  0.35000000000E-01  0.51099999109E-03 0.  1.
       11   -1    0    0    0    0 -0.00000000000E+00 -0.00000000000E+00 -0.34996269501E-01  0.35000000000E-01  0.51099999109E-03 0. -1.
       22    1    1    2    0    0  0.14411942462E-03  0.51007822585E-03 -0.75087939954E-03  0.91911374579E-03  0.00000000000E+00 0. -1.
       22    1    1    2    0    0  0.17751153734E-02  0.17509800960E-03 -0.34111946214E-01  0.34158550444E-01  0.00000000000E+00 0. -1.
       22    1    1    2    0    0 -0.19192347980E-02 -0.68517623544E-03  0.34862825614E-01  0.34922335810E-01  0.00000000000E+00 0.  1.
</event>
<event>
 5   0  0.4143600E+04  0.9118800E+02  0.7546771E-02  0.1180000E+00
      -11   -1    0    0    0    0  0.00000000000E+00  0.00000000000E+00  0.34996269501E-01  0.35000000000E-01  0.51099999109E-03 0.  1.
       11   -1    0    0    0    0 -0.00000000000E+00 -0.00000000000E+00 -0.34996269501E-01  0.35000000000E-01  0.51099999109E-03 0.  1.
       22    1    1    2    0    0 -0.36228071963E-02 -0.54451671772E-02 -0.77356859511E-02  0.10129926688E-01  0.00000000000E+00 0. -1.
       22    1    1    2    0    0  0.36897745333E-02  0.53751830787E-02 -0.25659454475E-01  0.26474792411E-01  0.00000000000E+00 0.  1.
       22    1    1    2    0    0 -0.66967337009E-04  0.69984098448E-04  0.33395140426E-01  0.33395280901E-01  0.00000000000E+00 0.  1.
</event>
<event>
 5   0  0.4143600E+04  0.9118800E+02  0.7546771E-02  0.1180000E+00
      -11   -1    0    0    0    0  0.00000000000E+00  0.00000000000E+00  0.34996269501E-01  0.35000000000E-01  0.51099999109E-03 0. -1.
       11   -1    0    0    0    0 -0.00000000000E+00 -0.00000000000E+00 -0.34996269501E-01  0.35000000000E-01  0.51099999109E-03 0.  1.
       22    1    1    2    0    0  0.87788772065E-02 -0.34908082590E-02 -0.19576757202E-01  0.21737153674E-01  0.00000000000E+00 0.  1.
       22    1    1    2    0    0 -0.10854450520E-01  0.17636143332E-02 -0.12169467457E-01  0.16401992861E-01  0.00000000000E+00 0. -1.
       22    1    1    2    0    0  0.20755733131E-02  0.17271939257E-02  0.31746224659E-01  0.31860853466E-01  0.00000000000E+00 0. -1.
</event>
<event>
 5   0  0.4143600E+04  0.9118800E+02  0.7546771E-02  0.1180000E+00
      -11   -1    0    0    0    0  0.00000000000E+00  0.00000000000E+00  0.34996269501E-01  0.35000000000E-01  0.51099999109E-03 0. -1.
       11   -1    0    0    0    0 -0.00000000000E+00 -0.00000000000E+00 -0.34996269501E-01  0.35000000000E-01  0.51099999109E-03 0.  1.
       22    1    1    2    0    0 -0.15219991845E-01 -0.10978871102E-01  0.29277125712E-01  0.34775477745E-01  0.00000000000E+00 0. -1.
       22    1    1    2    0    0 -0.17121973213E-03  0.52123178064E-04 -0.22587131415E-02  0.22657930351E-02  0.00000000000E+00 0.  1.
       22    1    1    2    0    0  0.15391211577E-01  0.10926747924E-01 -0.27018412570E-01  0.32958729220E-01  0.00000000000E+00 0.  1.
</event>
<event>
 5   0  0.4143600E+04  0.9118800E+02  0.7546771E-02  0.1180000E+00
      -11   -1    0    0    0    0  0.00000000000E+00  0.00000000000E+00  0.34996269501E-01  0.35000000000E-01  0.51099999109E-03 0. -1.
       11   -1    0    0    0    0 -0.00000000000E+00 -0.00000000000E+00 -0.34996269501E-01  0.35000000000E-01  0.51099999109E-03 0.  1.
       22    1    1    2    0    0  0.14059343011E-02  0.21936863678E-01 -0.26727937664E-01  0.34606145279E-01  0.00000000000E+00 0.  1.
       22    1    1    2    0    0 -0.39467447848E-04  0.20793625827E-03  0.26266735928E-02  0.26351867733E-02  0.00000000000E+00 0.  1.
       22    1    1    2    0    0 -0.13664668533E-02 -0.22144799936E-01  0.24101264071E-01  0.32758667948E-01  0.00000000000E+00 0. -1.
</event>
<event>
 5   0  0.4143600E+04  0.9118800E+02  0.7546771E-02  0.1180000E+00
      -11   -1    0    0    0    0  0.00000000000E+00  0.00000000000E+00  0.34996269501E-01  0.35000000000E-01  0.51099999109E-03 0. -1.
       11   -1    0    0    0    0 -0.00000000000E+00 -0.00000000000E+00 -0.34996269501E-01  0.35000000000E-01  0.51099999109E-03 0.  1.
       22    1    1    2    0    0  0.13685983051E-01 -0.74441045846E-02  0.31258864265E-01  0.34926170994E-01  0.00000000000E+00 0. -1.
       22    1    1    2    0    0  0.14288886196E-03  0.24768250901E-03 -0.31856314229E-03  0.42807280662E-03  0.00000000000E+00 0. -1.
       22    1    1    2    0    0 -0.13828871913E-01  0.71964220756E-02 -0.30940301123E-01  0.34645756200E-01  0.00000000000E+00 0.  1.
</event>
<event>
 5   0  0.4143600E+04  0.9118800E+02  0.7546771E-02  0.1180000E+00
      -11   -1    0    0    0    0  0.00000000000E+00  0.00000000000E+00  0.34996269501E-01  0.35000000000E-01  0.51099999109E-03 0. -1.
       11   -1    0    0    0    0 -0.00000000000E+00 -0.00000000000E+00 -0.34996269501E-01  0.35000000000E-01  0.51099999109E-03 0.  1.
       22    1    1    2    0    0  0.10478382199E-01 -0.17751740300E-01 -0.28044624811E-01  0.34805484596E-01  0.00000000000E+00 0.  1.
       22    1    1    2    0    0 -0.67872946679E-04  0.14816301956E-04  0.20347956015E-02  0.20359811884E-02  0.00000000000E+00 0. -1.
       22    1    1    2    0    0 -0.10410509252E-01  0.17736923998E-01  0.26009829210E-01  0.33158534215E-01  0.00000000000E+00 0. -1.
</event>
<event>
 5   0  0.4143600E+04  0.9118800E+02  0.7546771E-02  0.1180000E+00
      -11   -1    0    0    0    0  0.00000000000E+00  0.00000000000E+00  0.34996269501E-01  0.35000000000E-01  0.51099999109E-03 0.  1.
       11   -1    0    0    0    0 -0.00000000000E+00 -0.00000000000E+00 -0.34996269501E-01  0.35000000000E-01  0.51099999109E-03 0. -1.
       22    1    1    2    0    0 -0.96297119217E-02  0.61462954474E-02 -0.32925872638E-01  0.34851418743E-01  0.00000000000E+00 0. -1.
       22    1    1    2    0    0 -0.25932071173E-03  0.13322574677E-03  0.29609810463E-02  0.29752991593E-02  0.00000000000E+00 0.  1.
       22    1    1    2    0    0  0.98890326334E-02 -0.62795211942E-02  0.29964891592E-01  0.32173282098E-01  0.00000000000E+00 0.  1.
</event>
<event>
 5   0  0.4143600E+04  0.9118800E+02  0.7546771E-02  0.1180000E+00
      -11   -1    0    0    0    0  0.00000000000E+00  0.00000000000E+00  0.34996269501E-01  0.35000000000E-01  0.51099999109E-03 0.  1.
       11   -1    0    0    0    0 -0.00000000000E+00 -0.00000000000E+00 -0.34996269501E-01  0.35000000000E-01  0.51099999109E-03 0. -1.
       22    1    1    2    0    0  0.75894773717E-02  0.21901170651E-01 -0.25593420004E-01  0.34529474223E-01  0.00000000000E+00 0. -1.
       22    1    1    2    0    0 -0.75823127714E-02 -0.21919208810E-01  0.22293455487E-01  0.32170504183E-01  0.00000000000E+00 0.  1.
       22    1    1    2    0    0 -0.71646002549E-05  0.18038159413E-04  0.32999645163E-02  0.33000215932E-02  0.00000000000E+00 0.  1.
</event>
<event>
 5   0  0.4143600E+04  0.9118800E+02  0.7546771E-02  0.1180000E+00
      -11   -1    0    0    0    0  0.00000000000E+00  0.00000000000E+00  0.34996269501E-01  0.35000000000E-01  0.51099999109E-03 0.  1.
       11   -1    0    0    0    0 -0.00000000000E+00 -0.00000000000E+00 -0.34996269501E-01  0.35000000000E-01  0.51099999109E-03 0. -1.
       22    1    1    2    0    0 -0.11112102617E-01  0.55740403902E-02 -0.17996453685E-03  0.12433066319E-01  0.00000000000E+00 0.  1.
       22    1    1    2    0    0  0.36377431883E-02  0.33989894799E-02  0.27451945401E-01  0.27899742136E-01  0.00000000000E+00 0.  1.
       22    1    1    2    0    0  0.74743594291E-02 -0.89730298700E-02 -0.27271980864E-01  0.29667191545E-01  0.00000000000E+00 0. -1.
</event>
<event>
 5   0  0.4143600E+04  0.9118800E+02  0.7546771E-02  0.1180000E+00
      -11   -1    0    0    0    0  0.00000000000E+00  0.00000000000E+00  0.34996269501E-01  0.35000000000E-01  0.51099999109E-03 0. -1.
       11   -1    0    0    0    0 -0.00000000000E+00 -0.00000000000E+00 -0.34996269501E-01  0.35000000000E-01  0.51099999109E-03 0.  1.
       22    1    1    2    0    0  0.11054277771E-03 -0.18215086067E-02 -0.31626017235E-02  0.36513234548E-02  0.00000000000E+00 0.  1.
       22    1    1    2    0    0  0.11051932511E-02  0.60080350205E-02 -0.31158559864E-01  0.31751752546E-01  0.00000000000E+00 0.  1.
       22    1    1    2    0    0 -0.12157360289E-02 -0.41865264138E-02  0.34321161588E-01  0.34596923999E-01  0.00000000000E+00 0. -1.
</event>
<event>
 5   0  0.4143600E+04  0.9118800E+02  0.7546771E-02  0.1180000E+00
      -11   -1    0    0    0    0  0.00000000000E+00  0.00000000000E+00  0.34996269501E-01  0.35000000000E-01  0.51099999109E-03 0. -1.
       11   -1    0    0    0    0 -0.00000000000E+00 -0.00000000000E+00 -0.34996269501E-01  0.35000000000E-01  0.51099999109E-03 0.  1.
       22    1    1    2    0    0 -0.10456866685E-02  0.69751630509E-02 -0.20126839604E-01  0.21326885208E-01  0.00000000000E+00 0.  1.
       22    1    1    2    0    0  0.12836107215E-02 -0.65347703138E-02  0.34073127513E-01  0.34717846968E-01  0.00000000000E+00 0. -1.
       22    1    1    2    0    0 -0.23792405294E-03 -0.44039273714E-03 -0.13946287909E-01  0.13955267825E-01  0.00000000000E+00 0.  1.
</event>
<event>
 5   0  0.4143600E+04  0.9118800E+02  0.7546771E-02  0.1180000E+00
      -11   -1    0    0    0    0  0.00000000000E+00  0.00000000000E+00  0.34996269501E-01  0.35000000000E-01  0.51099999109E-03 0. -1.
       11   -1    0    0    0    0 -0.00000000000E+00 -0.00000000000E+00 -0.34996269501E-01  0.35000000000E-01  0.51099999109E-03 0.  1.
       22    1    1    2    0    0 -0.26767907282E-02 -0.48377582125E-02  0.32595991466E-01  0.33061575473E-01  0.00000000000E+00 0. -1.
       22    1    1    2    0    0 -0.65542792433E-03 -0.53583213867E-02 -0.51091999755E-02  0.74327059835E-02  0.00000000000E+00 0. -1.
       22    1    1    2    0    0  0.33322186526E-02  0.10196079599E-01 -0.27486791490E-01  0.29505718544E-01  0.00000000000E+00 0.  1.
</event>
<event>
 5   0  0.4143600E+04  0.9118800E+02  0.7546771E-02  0.1180000E+00
      -11   -1    0    0    0    0  0.00000000000E+00  0.00000000000E+00  0.34996269501E-01  0.35000000000E-01  0.51099999109E-03 0. -1.
       11   -1    0    0    0    0 -0.00000000000E+00 -0.00000000000E+00 -0.34996269501E-01  0.35000000000E-01  0.51099999109E-03 0.  1.
       22    1    1    2    0    0  0.18380062855E-03  0.21421323991E-03  0.36526619395E-02  0.36635514500E-02  0.00000000000E+00 0. -1.
       22    1    1    2    0    0 -0.71972340399E-02  0.12123074010E-01 -0.31815902547E-01  0.34799723507E-01  0.00000000000E+00 0.  1.
       22    1    1    2    0    0  0.70134334114E-02 -0.12337287250E-01  0.28163240608E-01  0.31536725043E-01  0.00000000000E+00 0. -1.
</event>
<event>
 5   0  0.4143600E+04  0.9118800E+02  0.7546771E-02  0.1180000E+00
      -11   -1    0    0    0    0  0.00000000000E+00  0.00000000000E+00  0.34996269501E-01  0.35000000000E-01  0.51099999109E-03 0. -1.
       11   -1    0    0    0    0 -0.00000000000E+00 -0.00000000000E+00 -0.34996269501E-01  0.35000000000E-01  0.51099999109E-03 0.  1.
       22    1    1    2    0    0  0.92788459235E-03 -0.61587752530E-02  0.34408439455E-01  0.34967587680E-01  0.00000000000E+00 0. -1.
       22    1    1    2    0    0  0.36669230307E-03  0.57242268096E-03 -0.18100769032E-02  0.19335225280E-02  0.00000000000E+00 0. -1.
       22    1    1    2    0    0 -0.12945768954E-02  0.55863525720E-02 -0.32598362552E-01  0.33098889792E-01  0.00000000000E+00 0.  1.
</event>
<event>
 5   0  0.4143600E+04  0.9118800E+02  0.7546771E-02  0.1180000E+00
      -11   -1    0    0    0    0  0.00000000000E+00  0.00000000000E+00  0.34996269501E-01  0.35000000000E-01  0.51099999109E-03 0.  1.
       11   -1    0    0    0    0 -0.00000000000E+00 -0.00000000000E+00 -0.34996269501E-01  0.35000000000E-01  0.51099999109E-03 0.  1.
       22    1    1    2    0    0  0.71085396335E-03  0.74835874748E-04 -0.33747932478E-01  0.33755501186E-01  0.00000000000E+00 0.  1.
       22    1    1    2    0    0 -0.00000000000E+00  0.00000000000E+00  0.34894298952E-01  0.34893547350E-01  0.00000000000E+00 0.  1.
       22    1    1    2    0    0 -0.71085396335E-03 -0.74835874748E-04 -0.11463664737E-02  0.13509514637E-02  0.00000000000E+00 0. -1.
</event>
<event>
 5   0  0.4143600E+04  0.9118800E+02  0.7546771E-02  0.1180000E+00
      -11   -1    0    0    0    0  0.00000000000E+00  0.00000000000E+00  0.34996269501E-01  0.35000000000E-01  0.51099999109E-03 0.  1.
       11   -1    0    0    0    0 -0.00000000000E+00 -0.00000000000E+00 -0.34996269501E-01  0.35000000000E-01  0.51099999109E-03 0. -1.
       22    1    1    2    0    0  0.16035161139E-03 -0.56970335505E-03 -0.14316357671E-02  0.15491467076E-02  0.00000000000E+00 0. -1.
       22    1    1    2    0    0  0.93206066875E-02 -0.88833307263E-02 -0.30889975993E-01  0.33466070738E-01  0.00000000000E+00 0. -1.
       22    1    1    2    0    0 -0.94809582989E-02  0.94530340813E-02  0.32321611760E-01  0.34984782554E-01  0.00000000000E+00 0.  1.
</event>
<event>
 5   0  0.4143600E+04  0.9118800E+02  0.7546771E-02  0.1180000E+00
      -11   -1    0    0    0    0  0.00000000000E+00  0.00000000000E+00  0.34996269501E-01  0.35000000000E-01  0.51099999109E-03 0. -1.
       11   -1    0    0    0    0 -0.00000000000E+00 -0.00000000000E+00 -0.34996269501E-01  0.35000000000E-01  0.51099999109E-03 0.  1.
       22    1    1    2    0    0  0.56294273505E-03 -0.11968429068E-02 -0.11545739574E-02  0.17556703818E-02  0.00000000000E+00 0. -1.
       22    1    1    2    0    0 -0.75002837142E-02  0.13565896145E-01 -0.30136537510E-01  0.33889507035E-01  0.00000000000E+00 0.  1.
       22    1    1    2    0    0  0.69373409792E-02 -0.12369053238E-01  0.31291111467E-01  0.34354822583E-01  0.00000000000E+00 0. -1.
</event>
<event>
 5   0  0.4143600E+04  0.9118800E+02  0.7546771E-02  0.1180000E+00
      -11   -1    0    0    0    0  0.00000000000E+00  0.00000000000E+00  0.34996269501E-01  0.35000000000E-01  0.51099999109E-03 0. -1.
       11   -1    0    0    0    0 -0.00000000000E+00 -0.00000000000E+00 -0.34996269501E-01  0.35000000000E-01  0.51099999109E-03 0.  1.
       22    1    1    2    0    0  0.11231710461E-01 -0.96551119019E-02 -0.31644058312E-01  0.34938788361E-01  0.00000000000E+00 0.  1.
       22    1    1    2    0    0 -0.11252070716E-01  0.96925545374E-02  0.30571545153E-01  0.33987851976E-01  0.00000000000E+00 0. -1.
       22    1    1    2    0    0  0.20360254788E-04 -0.37442635554E-04  0.10725131584E-02  0.10733596629E-02  0.00000000000E+00 0. -1.
</event>
<event>
 5   0  0.4143600E+04  0.9118800E+02  0.7546771E-02  0.1180000E+00
      -11   -1    0    0    0    0  0.00000000000E+00  0.00000000000E+00  0.34996269501E-01  0.35000000000E-01  0.51099999109E-03 0.  1.
       11   -1    0    0    0    0 -0.00000000000E+00 -0.00000000000E+00 -0.34996269501E-01  0.35000000000E-01  0.51099999109E-03 0. -1.
       22    1    1    2    0    0 -0.10443773501E-03 -0.15085750871E-03 -0.50392823054E-03  0.53629179554E-03  0.00000000000E+00 0. -1.
       22    1    1    2    0    0  0.23442776316E-02  0.53530386839E-02 -0.33999716771E-01  0.34498281135E-01  0.00000000000E+00 0. -1.
       22    1    1    2    0    0 -0.22398398966E-02 -0.52021811752E-02  0.34503645002E-01  0.34965427069E-01  0.00000000000E+00 0.  1.
</event>
<event>
 5   0  0.4143600E+04  0.9118800E+02  0.7546771E-02  0.1180000E+00
      -11   -1    0    0    0    0  0.00000000000E+00  0.00000000000E+00  0.34996269501E-01  0.35000000000E-01  0.51099999109E-03 0.  1.
       11   -1    0    0    0    0 -0.00000000000E+00 -0.00000000000E+00 -0.34996269501E-01  0.35000000000E-01  0.51099999109E-03 0. -1.
       22    1    1    2    0    0 -0.64517299630E-04  0.53980178058E-04  0.32000323260E-03  0.33087521885E-03  0.00000000000E+00 0.  1.
       22    1    1    2    0    0 -0.20014905508E-02  0.15472738926E-01  0.30969827208E-01  0.34677684634E-01  0.00000000000E+00 0.  1.
       22    1    1    2    0    0  0.20660078504E-02 -0.15526719104E-01 -0.31289830441E-01  0.34991440147E-01  0.00000000000E+00 0. -1.
</event>
<event>
 5   0  0.4143600E+04  0.9118800E+02  0.7546771E-02  0.1180000E+00
      -11   -1    0    0    0    0  0.00000000000E+00  0.00000000000E+00  0.34996269501E-01  0.35000000000E-01  0.51099999109E-03 0. -1.
       11   -1    0    0    0    0 -0.00000000000E+00 -0.00000000000E+00 -0.34996269501E-01  0.35000000000E-01  0.51099999109E-03 0.  1.
       22    1    1    2    0    0 -0.83825486369E-02 -0.38184746067E-02 -0.24403221820E-01  0.26083809254E-01  0.00000000000E+00 0.  1.
       22    1    1    2    0    0  0.61055899733E-02  0.23473172841E-02  0.33650176566E-01  0.34280059952E-01  0.00000000000E+00 0. -1.
       22    1    1    2    0    0  0.22769586636E-02  0.14711573226E-02 -0.92469547456E-02  0.96361307947E-02  0.00000000000E+00 0.  1.
</event>
<event>
 5   0  0.4143600E+04  0.9118800E+02  0.7546771E-02  0.1180000E+00
      -11   -1    0    0    0    0  0.00000000000E+00  0.00000000000E+00  0.34996269501E-01  0.35000000000E-01  0.51099999109E-03 0. -1.
       11   -1    0    0    0    0 -0.00000000000E+00 -0.00000000000E+00 -0.34996269501E-01  0.35000000000E-01  0.51099999109E-03 0.  1.
       22    1    1    2    0    0 -0.83925524441E-02  0.24276600577E-02 -0.24423777052E-01  0.25939339917E-01  0.00000000000E+00 0.  1.
       22    1    1    2    0    0  0.80216914713E-02 -0.22856289735E-02  0.33729983416E-01  0.34745984158E-01  0.00000000000E+00 0. -1.
       22    1    1    2    0    0  0.37086097286E-03 -0.14203108418E-03 -0.93062063642E-02  0.93146759248E-02  0.00000000000E+00 0. -1.
</event>
<event>
 5   0  0.4143600E+04  0.9118800E+02  0.7546771E-02  0.1180000E+00
      -11   -1    0    0    0    0  0.00000000000E+00  0.00000000000E+00  0.34996269501E-01  0.35000000000E-01  0.51099999109E-03 0.  1.
       11   -1    0    0    0    0 -0.00000000000E+00 -0.00000000000E+00 -0.34996269501E-01  0.35000000000E-01  0.51099999109E-03 0. -1.
       22    1    1    2    0    0 -0.76850683114E-05 -0.14603289446E-03 -0.43585723478E-02  0.43610248311E-02  0.00000000000E+00 0. -1.
       22    1    1    2    0    0 -0.15262944757E-01  0.12310899903E-01  0.28497858568E-01  0.34592537953E-01  0.00000000000E+00 0.  1.
       22    1    1    2    0    0  0.15270629825E-01 -0.12164867009E-01 -0.24139286220E-01  0.31046437216E-01  0.00000000000E+00 0. -1.
</event>
<event>
 5   0  0.4143600E+04  0.9118800E+02  0.7546771E-02  0.1180000E+00
      -11   -1    0    0    0    0  0.00000000000E+00  0.00000000000E+00  0.34996269501E-01  0.35000000000E-01  0.51099999109E-03 0.  1.
       11   -1    0    0    0    0 -0.00000000000E+00 -0.00000000000E+00 -0.34996269501E-01  0.35000000000E-01  0.51099999109E-03 0.  1.
       22    1    1    2    0    0  0.17350964680E-03  0.27000432651E-04  0.34974031850E-01  0.34974472669E-01  0.00000000000E+00 0.  1.
       22    1    1    2    0    0 -0.30558968398E-03 -0.25307933369E-03 -0.34301927016E-01  0.34304221769E-01  0.00000000000E+00 0.  1.
       22    1    1    2    0    0  0.13208003718E-03  0.22607890104E-03 -0.67210483431E-03  0.72130556217E-03  0.00000000000E+00 0. -1.
</event>
<event>
 5   0  0.4143600E+04  0.9118800E+02  0.7546771E-02  0.1180000E+00
      -11   -1    0    0    0    0  0.00000000000E+00  0.00000000000E+00  0.34996269501E-01  0.35000000000E-01  0.51099999109E-03 0. -1.
       11   -1    0    0    0    0 -0.00000000000E+00 -0.00000000000E+00 -0.34996269501E-01  0.35000000000E-01  0.51099999109E-03 0.  1.
       22    1    1    2    0    0 -0.21467180389E-02  0.17402319897E-02 -0.47636882162E-02  0.55072253575E-02  0.00000000000E+00 0.  1.
       22    1    1    2    0    0 -0.11728634725E-02  0.51666830530E-03 -0.29734362905E-01  0.29761970570E-01  0.00000000000E+00 0.  1.
       22    1    1    2    0    0  0.33195815114E-02 -0.22569002950E-02  0.34498051121E-01  0.34730804072E-01  0.00000000000E+00 0. -1.
</event>
<event>
 5   0  0.4143600E+04  0.9118800E+02  0.7546771E-02  0.1180000E+00
      -11   -1    0    0    0    0  0.00000000000E+00  0.00000000000E+00  0.34996269501E-01  0.35000000000E-01  0.51099999109E-03 0.  1.
       11   -1    0    0    0    0 -0.00000000000E+00 -0.00000000000E+00 -0.34996269501E-01  0.35000000000E-01  0.51099999109E-03 0. -1.
       22    1    1    2    0    0 -0.95730260623E-02 -0.21127939736E-02 -0.23529381545E-01  0.25489969051E-01  0.00000000000E+00 0. -1.
       22    1    1    2    0    0 -0.40260820791E-02 -0.36103122754E-02 -0.80247634671E-02  0.96768032085E-02  0.00000000000E+00 0.  1.
       22    1    1    2    0    0  0.13599108141E-01  0.57231062490E-02  0.31554145012E-01  0.34833227740E-01  0.00000000000E+00 0.  1.
</event>
<event>
 5   0  0.4143600E+04  0.9118800E+02  0.7546771E-02  0.1180000E+00
      -11   -1    0    0    0    0  0.00000000000E+00  0.00000000000E+00  0.34996269501E-01  0.35000000000E-01  0.51099999109E-03 0. -1.
       11   -1    0    0    0    0 -0.00000000000E+00 -0.00000000000E+00 -0.34996269501E-01  0.35000000000E-01  0.51099999109E-03 0.  1.
       22    1    1    2    0    0  0.20451911826E-03 -0.22471475608E-03  0.45140710034E-02  0.45242857795E-02  0.00000000000E+00 0.  1.
       22    1    1    2    0    0 -0.16936856992E-01 -0.98691855458E-02  0.23950095697E-01  0.30949394695E-01  0.00000000000E+00 0. -1.
       22    1    1    2    0    0  0.16732337874E-01  0.10093900302E-01 -0.28464166700E-01  0.34526319525E-01  0.00000000000E+00 0.  1.
</event>
<event>
 5   0  0.4143600E+04  0.9118800E+02  0.7546771E-02  0.1180000E+00
      -11   -1    0    0    0    0  0.00000000000E+00  0.00000000000E+00  0.34996269501E-01  0.35000000000E-01  0.51099999109E-03 0. -1.
       11   -1    0    0    0    0 -0.00000000000E+00 -0.00000000000E+00 -0.34996269501E-01  0.35000000000E-01  0.51099999109E-03 0.  1.
       22    1    1    2    0    0  0.93830166732E-02  0.73366087849E-02 -0.31829664364E-01  0.33985208016E-01  0.00000000000E+00 0.  1.
       22    1    1    2    0    0 -0.42865764888E-03  0.15656200953E-02 -0.15247261770E-03  0.16303869363E-02  0.00000000000E+00 0. -1.
       22    1    1    2    0    0 -0.89543590243E-02 -0.89022288803E-02  0.31982136982E-01  0.34384405048E-01  0.00000000000E+00 0. -1.
</event>
<event>
 5   0  0.4143600E+04  0.9118800E+02  0.7546771E-02  0.1180000E+00
      -11   -1    0    0    0    0  0.00000000000E+00  0.00000000000E+00  0.34996269501E-01  0.35000000000E-01  0.51099999109E-03 0. -1.
       11   -1    0    0    0    0 -0.00000000000E+00 -0.00000000000E+00 -0.34996269501E-01  0.35000000000E-01  0.51099999109E-03 0.  1.
       22    1    1    2    0    0  0.10274884793E-01 -0.31682205904E-02 -0.24192129154E-01  0.26473949313E-01  0.00000000000E+00 0.  1.
       22    1    1    2    0    0 -0.20908346197E-03  0.20918936822E-03 -0.88516791871E-02  0.88566190229E-02  0.00000000000E+00 0. -1.
       22    1    1    2    0    0 -0.10065801331E-01  0.29590312222E-02  0.33043808341E-01  0.34669431664E-01  0.00000000000E+00 0. -1.
</event>
<event>
 5   0  0.4143600E+04  0.9118800E+02  0.7546771E-02  0.1180000E+00
      -11   -1    0    0    0    0  0.00000000000E+00  0.00000000000E+00  0.34996269501E-01  0.35000000000E-01  0.51099999109E-03 0.  1.
       11   -1    0    0    0    0 -0.00000000000E+00 -0.00000000000E+00 -0.34996269501E-01  0.35000000000E-01  0.51099999109E-03 0. -1.
       22    1    1    2    0    0 -0.10467110507E-01  0.11802464644E-01 -0.31207768093E-01  0.34968319425E-01  0.00000000000E+00 0. -1.
       22    1    1    2    0    0  0.27790728603E-03  0.43213383686E-04  0.41252412031E-03  0.49927548107E-03  0.00000000000E+00 0. -1.
       22    1    1    2    0    0  0.10189203221E-01 -0.11845678028E-01  0.30795243973E-01  0.34532405094E-01  0.00000000000E+00 0.  1.
</event>
<event>
 5   0  0.4143600E+04  0.9118800E+02  0.7546771E-02  0.1180000E+00
      -11   -1    0    0    0    0  0.00000000000E+00  0.00000000000E+00  0.34996269501E-01  0.35000000000E-01  0.51099999109E-03 0.  1.
       11   -1    0    0    0    0 -0.00000000000E+00 -0.00000000000E+00 -0.34996269501E-01  0.35000000000E-01  0.51099999109E-03 0. -1.
       22    1    1    2    0    0 -0.39799747644E-02  0.86934449038E-03 -0.53357855058E-02  0.67131636307E-02  0.00000000000E+00 0. -1.
       22    1    1    2    0    0  0.19511408351E-02  0.13582298475E-02  0.34191598078E-01  0.34274146495E-01  0.00000000000E+00 0.  1.
       22    1    1    2    0    0  0.20288339293E-02 -0.22275743379E-02 -0.28855812572E-01  0.29012689874E-01  0.00000000000E+00 0. -1.
</event>
<event>
 5   0  0.4143600E+04  0.9118800E+02  0.7546771E-02  0.1180000E+00
      -11   -1    0    0    0    0  0.00000000000E+00  0.00000000000E+00  0.34996269501E-01  0.35000000000E-01  0.51099999109E-03 0. -1.
       11   -1    0    0    0    0 -0.00000000000E+00 -0.00000000000E+00 -0.34996269501E-01  0.35000000000E-01  0.51099999109E-03 0.  1.
       22    1    1    2    0    0 -0.12064784128E-02 -0.27506470350E-03 -0.27068762307E-01  0.27097032007E-01  0.00000000000E+00 0.  1.
       22    1    1    2    0    0 -0.20480408706E-02 -0.23404346854E-02 -0.74810732700E-02  0.81017629684E-02  0.00000000000E+00 0.  1.
       22    1    1    2    0    0  0.32545192835E-02  0.26154993889E-02  0.34549835577E-01  0.34801205025E-01  0.00000000000E+00 0. -1.
</event>
<event>
 5   0  0.4143600E+04  0.9118800E+02  0.7546771E-02  0.1180000E+00
      -11   -1    0    0    0    0  0.00000000000E+00  0.00000000000E+00  0.34996269501E-01  0.35000000000E-01  0.51099999109E-03 0. -1.
       11   -1    0    0    0    0 -0.00000000000E+00 -0.00000000000E+00 -0.34996269501E-01  0.35000000000E-01  0.51099999109E-03 0.  1.
       22    1    1    2    0    0 -0.78280437989E-02  0.54697383179E-02 -0.27652155922E-01  0.29254709605E-01  0.00000000000E+00 0.  1.
       22    1    1    2    0    0 -0.71092951543E-03 -0.60531380858E-03 -0.58024770062E-02  0.58771221691E-02  0.00000000000E+00 0.  1.
       22    1    1    2    0    0  0.85389733143E-02 -0.48644245093E-02  0.33454632928E-01  0.34868168226E-01  0.00000000000E+00 0. -1.
</event>
<event>
 5   0  0.4143600E+04  0.9118800E+02  0.7546771E-02  0.1180000E+00
      -11   -1    0    0    0    0  0.00000000000E+00  0.00000000000E+00  0.34996269501E-01  0.35000000000E-01  0.51099999109E-03 0. -1.
       11   -1    0    0    0    0 -0.00000000000E+00 -0.00000000000E+00 -0.34996269501E-01  0.35000000000E-01  0.51099999109E-03 0.  1.
       22    1    1    2    0    0  0.35163719371E-03 -0.29719362844E-03  0.76399360542E-03  0.89199719613E-03  0.00000000000E+00 0.  1.
       22    1    1    2    0    0 -0.25105795623E-03 -0.14046456443E-01  0.31121052639E-01  0.34145071183E-01  0.00000000000E+00 0. -1.
       22    1    1    2    0    0 -0.10057923748E-03  0.14343650072E-01 -0.31885046244E-01  0.34962931621E-01  0.00000000000E+00 0.  1.
</event>
<event>
 5   0  0.4143600E+04  0.9118800E+02  0.7546771E-02  0.1180000E+00
      -11   -1    0    0    0    0  0.00000000000E+00  0.00000000000E+00  0.34996269501E-01  0.35000000000E-01  0.51099999109E-03 0. -1.
       11   -1    0    0    0    0 -0.00000000000E+00 -0.00000000000E+00 -0.34996269501E-01  0.35000000000E-01  0.51099999109E-03 0.  1.
       22    1    1    2    0    0 -0.76429521696E-02  0.58922052439E-02 -0.11163905922E-01  0.14756883002E-01  0.00000000000E+00 0.  1.
       22    1    1    2    0    0  0.35419589808E-02  0.40584563411E-02 -0.20815506030E-01  0.21501205375E-01  0.00000000000E+00 0. -1.
       22    1    1    2    0    0  0.41009931888E-02 -0.99506615849E-02  0.31979411952E-01  0.33741911622E-01  0.00000000000E+00 0. -1.
</event>
<event>
 5   0  0.4143600E+04  0.9118800E+02  0.7546771E-02  0.1180000E+00
      -11   -1    0    0    0    0  0.00000000000E+00  0.00000000000E+00  0.34996269501E-01  0.35000000000E-01  0.51099999109E-03 0. -1.
       11   -1    0    0    0    0 -0.00000000000E+00 -0.00000000000E+00 -0.34996269501E-01  0.35000000000E-01  0.51099999109E-03 0.  1.
       22    1    1    2    0    0 -0.89129729248E-05 -0.17752945058E-05  0.48918722739E-03  0.48927163845E-03  0.00000000000E+00 0. -1.
       22    1    1    2    0    0  0.24119342288E-01 -0.55691778664E-02  0.24155214326E-01  0.34586598469E-01  0.00000000000E+00 0. -1.
       22    1    1    2    0    0 -0.24110429315E-01  0.55709531609E-02 -0.24644401553E-01  0.34924129893E-01  0.00000000000E+00 0.  1.
</event>
<event>
 5   0  0.4143600E+04  0.9118800E+02  0.7546771E-02  0.1180000E+00
      -11   -1    0    0    0    0  0.00000000000E+00  0.00000000000E+00  0.34996269501E-01  0.35000000000E-01  0.51099999109E-03 0. -1.
       11   -1    0    0    0    0 -0.00000000000E+00 -0.00000000000E+00 -0.34996269501E-01  0.35000000000E-01  0.51099999109E-03 0. -1.
       22    1    1    2    0    0 -0.10610490827E-02  0.41550106140E-02 -0.47045633611E-02  0.63657564183E-02  0.00000000000E+00 0.  1.
       22    1    1    2    0    0  0.27506961835E-04 -0.36702510911E-02 -0.29340934636E-01  0.29569611851E-01  0.00000000000E+00 0. -1.
       22    1    1    2    0    0  0.10335421209E-02 -0.48475952297E-03  0.34045497997E-01  0.34064631731E-01  0.00000000000E+00 0. -1.
</event>
<event>
 5   0  0.4143600E+04  0.9118800E+02  0.7546771E-02  0.1180000E+00
      -11   -1    0    0    0    0  0.00000000000E+00  0.00000000000E+00  0.34996269501E-01  0.35000000000E-01  0.51099999109E-03 0.  1.
       11   -1    0    0    0    0 -0.00000000000E+00 -0.00000000000E+00 -0.34996269501E-01  0.35000000000E-01  0.51099999109E-03 0. -1.
       22    1    1    2    0    0  0.21880669668E-03  0.95947300672E-04 -0.54105375725E-03  0.59145703415E-03  0.00000000000E+00 0. -1.
       22    1    1    2    0    0 -0.64346137661E-02  0.18198430794E-02 -0.33800921561E-01  0.34456035487E-01  0.00000000000E+00 0. -1.
       22    1    1    2    0    0  0.62158070694E-02 -0.19157903801E-02  0.34341975318E-01  0.34952507479E-01  0.00000000000E+00 0.  1.
</event>
<event>
 5   0  0.4143600E+04  0.9118800E+02  0.7546771E-02  0.1180000E+00
      -11   -1    0    0    0    0  0.00000000000E+00  0.00000000000E+00  0.34996269501E-01  0.35000000000E-01  0.51099999109E-03 0. -1.
       11   -1    0    0    0    0 -0.00000000000E+00 -0.00000000000E+00 -0.34996269501E-01  0.35000000000E-01  0.51099999109E-03 0. -1.
       22    1    1    2    0    0 -0.15703525395E-02  0.30366769233E-02 -0.31930391848E-01  0.32112884290E-01  0.00000000000E+00 0. -1.
       22    1    1    2    0    0  0.53897433596E-03 -0.10200128814E-02  0.34467040418E-01  0.34486342148E-01  0.00000000000E+00 0. -1.
       22    1    1    2    0    0  0.10313782036E-02 -0.20166640419E-02 -0.25366485696E-02  0.34007735624E-02  0.00000000000E+00 0. -1.
</event>
<event>
 5   0  0.4143600E+04  0.9118800E+02  0.7546771E-02  0.1180000E+00
      -11   -1    0    0    0    0  0.00000000000E+00  0.00000000000E+00  0.34996269501E-01  0.35000000000E-01  0.51099999109E-03 0.  1.
       11   -1    0    0    0    0 -0.00000000000E+00 -0.00000000000E+00 -0.34996269501E-01  0.35000000000E-01  0.51099999109E-03 0. -1.
       22    1    1    2    0    0 -0.11155117631E-01  0.16156200463E-01 -0.27313489146E-01  0.33637570544E-01  0.00000000000E+00 0. -1.
       22    1    1    2    0    0 -0.39664975240E-03 -0.49532178019E-03  0.10860317357E-01  0.10878840370E-01  0.00000000000E+00 0.  1.
       22    1    1    2    0    0  0.11551767383E-01 -0.15660878683E-01  0.16453171789E-01  0.25483589086E-01  0.00000000000E+00 0.  1.
</event>
<event>
 5   0  0.4143600E+04  0.9118800E+02  0.7546771E-02  0.1180000E+00
      -11   -1    0    0    0    0  0.00000000000E+00  0.00000000000E+00  0.34996269501E-01  0.35000000000E-01  0.51099999109E-03 0.  1.
       11   -1    0    0    0    0 -0.00000000000E+00 -0.00000000000E+00 -0.34996269501E-01  0.35000000000E-01  0.51099999109E-03 0. -1.
       22    1    1    2    0    0  0.19083778708E-01 -0.65753321895E-02 -0.28278767690E-01  0.34743550556E-01  0.00000000000E+00 0. -1.
       22    1    1    2    0    0 -0.18960034091E-01  0.65172521382E-02  0.28588495756E-01  0.34917897384E-01  0.00000000000E+00 0.  1.
       22    1    1    2    0    0 -0.12374461655E-03  0.58080051298E-04 -0.30972806609E-03  0.33855206011E-03  0.00000000000E+00 0.  1.
</event>
<event>
 5   0  0.4143600E+04  0.9118800E+02  0.7546771E-02  0.1180000E+00
      -11   -1    0    0    0    0  0.00000000000E+00  0.00000000000E+00  0.34996269501E-01  0.35000000000E-01  0.51099999109E-03 0.  1.
       11   -1    0    0    0    0 -0.00000000000E+00 -0.00000000000E+00 -0.34996269501E-01  0.35000000000E-01  0.51099999109E-03 0. -1.
       22    1    1    2    0    0 -0.15294567627E-02 -0.54183391205E-03 -0.33818388005E-01  0.33857291522E-01  0.00000000000E+00 0. -1.
       22    1    1    2    0    0  0.10652121972E-02  0.81563025120E-03  0.34904471788E-01  0.34930245927E-01  0.00000000000E+00 0.  1.
       22    1    1    2    0    0  0.46424456550E-03 -0.27379633914E-03 -0.10860837834E-02  0.12124625505E-02  0.00000000000E+00 0. -1.
</event>
<event>
 5   0  0.4143600E+04  0.9118800E+02  0.7546771E-02  0.1180000E+00
      -11   -1    0    0    0    0  0.00000000000E+00  0.00000000000E+00  0.34996269501E-01  0.35000000000E-01  0.51099999109E-03 0. -1.
       11   -1    0    0    0    0 -0.00000000000E+00 -0.00000000000E+00 -0.34996269501E-01  0.35000000000E-01  0.51099999109E-03 0.  1.
       22    1    1    2    0    0  0.28487930297E-02  0.77153806882E-03  0.34865023496E-01  0.34989723578E-01  0.00000000000E+00 0. -1.
       22    1    1    2    0    0 -0.26577817001E-02 -0.74888554300E-03 -0.34344953913E-01  0.34455775893E-01  0.00000000000E+00 0.  1.
       22    1    1    2    0    0 -0.19101132958E-03 -0.22652525821E-04 -0.52006958340E-03  0.55450052889E-03  0.00000000000E+00 0. -1.
</event>
<event>
 5   0  0.4143600E+04  0.9118800E+02  0.7546771E-02  0.1180000E+00
      -11   -1    0    0    0    0  0.00000000000E+00  0.00000000000E+00  0.34996269501E-01  0.35000000000E-01  0.51099999109E-03 0.  1.
       11   -1    0    0    0    0 -0.00000000000E+00 -0.00000000000E+00 -0.34996269501E-01  0.35000000000E-01  0.51099999109E-03 0. -1.
       22    1    1    2    0    0  0.97152212276E-02  0.21381685304E-01  0.25527871974E-01  0.34687666935E-01  0.00000000000E+00 0.  1.
       22    1    1    2    0    0 -0.31837280993E-03  0.47232388406E-03 -0.94875251715E-03  0.11066085290E-02  0.00000000000E+00 0. -1.
       22    1    1    2    0    0 -0.93968484176E-02 -0.21854009188E-01 -0.24579119456E-01  0.34205724536E-01  0.00000000000E+00 0. -1.
</event>
<event>
 5   0  0.4143600E+04  0.9118800E+02  0.7546771E-02  0.1180000E+00
      -11   -1    0    0    0    0  0.00000000000E+00  0.00000000000E+00  0.34996269501E-01  0.35000000000E-01  0.51099999109E-03 0.  1.
       11   -1    0    0    0    0 -0.00000000000E+00 -0.00000000000E+00 -0.34996269501E-01  0.35000000000E-01  0.51099999109E-03 0. -1.
       22    1    1    2    0    0 -0.17587229494E-01 -0.10249363715E-02 -0.30014077864E-01  0.34802385060E-01  0.00000000000E+00 0. -1.
       22    1    1    2    0    0 -0.91287906720E-04 -0.10296584247E-03  0.23107630518E-02  0.23148566539E-02  0.00000000000E+00 0. -1.
       22    1    1    2    0    0  0.17678517401E-01  0.11279022140E-02  0.27703314812E-01  0.32882758286E-01  0.00000000000E+00 0.  1.
</event>
<event>
 5   0  0.4143600E+04  0.9118800E+02  0.7546771E-02  0.1180000E+00
      -11   -1    0    0    0    0  0.00000000000E+00  0.00000000000E+00  0.34996269501E-01  0.35000000000E-01  0.51099999109E-03 0. -1.
       11   -1    0    0    0    0 -0.00000000000E+00 -0.00000000000E+00 -0.34996269501E-01  0.35000000000E-01  0.51099999109E-03 0.  1.
       22    1    1    2    0    0  0.55081342182E-02 -0.57141332718E-02 -0.16259418312E-01  0.18093080044E-01  0.00000000000E+00 0.  1.
       22    1    1    2    0    0  0.45847705227E-02  0.36505129191E-02 -0.16529540082E-01  0.17537732482E-01  0.00000000000E+00 0.  1.
       22    1    1    2    0    0 -0.10092904741E-01  0.20636203528E-02  0.32788958394E-01  0.34369187474E-01  0.00000000000E+00 0. -1.
</event>
<event>
 5   0  0.4143600E+04  0.9118800E+02  0.7546771E-02  0.1180000E+00
      -11   -1    0    0    0    0  0.00000000000E+00  0.00000000000E+00  0.34996269501E-01  0.35000000000E-01  0.51099999109E-03 0.  1.
       11   -1    0    0    0    0 -0.00000000000E+00 -0.00000000000E+00 -0.34996269501E-01  0.35000000000E-01  0.51099999109E-03 0. -1.
       22    1    1    2    0    0  0.59923456796E-03  0.20201142705E-02  0.34834056870E-01  0.34897728604E-01  0.00000000000E+00 0.  1.
       22    1    1    2    0    0 -0.53660287588E-03 -0.57725408978E-03 -0.11905849042E-02  0.14278155850E-02  0.00000000000E+00 0. -1.
       22    1    1    2    0    0 -0.62631692081E-04 -0.14428601807E-02 -0.33643471966E-01  0.33674455811E-01  0.00000000000E+00 0. -1.
</event>
<event>
 5   0  0.4143600E+04  0.9118800E+02  0.7546771E-02  0.1180000E+00
      -11   -1    0    0    0    0  0.00000000000E+00  0.00000000000E+00  0.34996269501E-01  0.35000000000E-01  0.51099999109E-03 0.  1.
       11   -1    0    0    0    0 -0.00000000000E+00 -0.00000000000E+00 -0.34996269501E-01  0.35000000000E-01  0.51099999109E-03 0. -1.
       22    1    1    2    0    0  0.22398231377E-01 -0.53177108287E-02  0.22481653691E-01  0.32177376679E-01  0.00000000000E+00 0.  1.
       22    1    1    2    0    0 -0.22317350133E-01  0.60673488410E-02 -0.25666826270E-01  0.34549425606E-01  0.00000000000E+00 0. -1.
       22    1    1    2    0    0 -0.80881243890E-04 -0.74963801235E-03  0.31851725785E-02  0.32731977148E-02  0.00000000000E+00 0.  1.
</event>
<event>
 5   0  0.4143600E+04  0.9118800E+02  0.7546771E-02  0.1180000E+00
      -11   -1    0    0    0    0  0.00000000000E+00  0.00000000000E+00  0.34996269501E-01  0.35000000000E-01  0.51099999109E-03 0. -1.
       11   -1    0    0    0    0 -0.00000000000E+00 -0.00000000000E+00 -0.34996269501E-01  0.35000000000E-01  0.51099999109E-03 0.  1.
       22    1    1    2    0    0 -0.35387604677E-03  0.30641181118E-03  0.22843643050E-03  0.52086433674E-03  0.00000000000E+00 0.  1.
       22    1    1    2    0    0 -0.14149094757E-02  0.12308525883E-01  0.32273584401E-01  0.34570016319E-01  0.00000000000E+00 0. -1.
       22    1    1    2    0    0  0.17687855224E-02 -0.12614937694E-01 -0.32502020831E-01  0.34909119344E-01  0.00000000000E+00 0.  1.
</event>
<event>
 5   0  0.4143600E+04  0.9118800E+02  0.7546771E-02  0.1180000E+00
      -11   -1    0    0    0    0  0.00000000000E+00  0.00000000000E+00  0.34996269501E-01  0.35000000000E-01  0.51099999109E-03 0.  1.
       11   -1    0    0    0    0 -0.00000000000E+00 -0.00000000000E+00 -0.34996269501E-01  0.35000000000E-01  0.51099999109E-03 0. -1.
       22    1    1    2    0    0 -0.13753029138E-01 -0.19850507091E-01  0.22797039239E-01  0.33209839510E-01  0.00000000000E+00 0.  1.
       22    1    1    2    0    0 -0.21309595825E-03  0.76232839192E-03  0.22233618408E-02  0.23600619355E-02  0.00000000000E+00 0.  1.
       22    1    1    2    0    0  0.13966125096E-01  0.19088178699E-01 -0.25020401080E-01  0.34430098554E-01  0.00000000000E+00 0. -1.
</event>
<event>
 5   0  0.4143600E+04  0.9118800E+02  0.7546771E-02  0.1180000E+00
      -11   -1    0    0    0    0  0.00000000000E+00  0.00000000000E+00  0.34996269501E-01  0.35000000000E-01  0.51099999109E-03 0.  1.
       11   -1    0    0    0    0 -0.00000000000E+00 -0.00000000000E+00 -0.34996269501E-01  0.35000000000E-01  0.51099999109E-03 0. -1.
       22    1    1    2    0    0  0.17734769793E-02  0.19464889642E-02  0.34866004870E-01  0.34965301879E-01  0.00000000000E+00 0.  1.
       22    1    1    2    0    0 -0.15035163809E-02 -0.20084192982E-02 -0.34408796139E-01  0.34500138569E-01  0.00000000000E+00 0. -1.
       22    1    1    2    0    0 -0.26996059843E-03  0.61930333968E-04 -0.45720873101E-03  0.53455955204E-03  0.00000000000E+00 0.  1.
</event>
<event>
 5   0  0.4143600E+04  0.9118800E+02  0.7546771E-02  0.1180000E+00
      -11   -1    0    0    0    0  0.00000000000E+00  0.00000000000E+00  0.34996269501E-01  0.35000000000E-01  0.51099999109E-03 0. -1.
       11   -1    0    0    0    0 -0.00000000000E+00 -0.00000000000E+00 -0.34996269501E-01  0.35000000000E-01  0.51099999109E-03 0.  1.
       22    1    1    2    0    0  0.75770662410E-02  0.13593764742E-01  0.24649680159E-01  0.29151485462E-01  0.00000000000E+00 0. -1.
       22    1    1    2    0    0 -0.12183720624E-01  0.10481774255E-03  0.10404018305E-03  0.12184615684E-01  0.00000000000E+00 0.  1.
       22    1    1    2    0    0  0.46066543835E-02 -0.13698582485E-01 -0.24753720342E-01  0.28663898854E-01  0.00000000000E+00 0. -1.
</event>
<event>
 5   0  0.4143600E+04  0.9118800E+02  0.7546771E-02  0.1180000E+00
      -11   -1    0    0    0    0  0.00000000000E+00  0.00000000000E+00  0.34996269501E-01  0.35000000000E-01  0.51099999109E-03 0.  1.
       11   -1    0    0    0    0 -0.00000000000E+00 -0.00000000000E+00 -0.34996269501E-01  0.35000000000E-01  0.51099999109E-03 0. -1.
       22    1    1    2    0    0  0.10366244996E-01  0.96558592907E-02  0.30008409420E-01  0.33184322954E-01  0.00000000000E+00 0.  1.
       22    1    1    2    0    0 -0.10301350420E-01 -0.95908798907E-02 -0.31928626271E-01  0.34893265441E-01  0.00000000000E+00 0. -1.
       22    1    1    2    0    0 -0.64894575707E-04 -0.64979400076E-04  0.19202168507E-02  0.19224116058E-02  0.00000000000E+00 0. -1.
</event>
<event>
 5   0  0.4143600E+04  0.9118800E+02  0.7546771E-02  0.1180000E+00
      -11   -1    0    0    0    0  0.00000000000E+00  0.00000000000E+00  0.34996269501E-01  0.35000000000E-01  0.51099999109E-03 0. -1.
       11   -1    0    0    0    0 -0.00000000000E+00 -0.00000000000E+00 -0.34996269501E-01  0.35000000000E-01  0.51099999109E-03 0.  1.
       22    1    1    2    0    0 -0.26857916365E-02 -0.22666616920E-02 -0.28339875947E-02  0.45147223201E-02  0.00000000000E+00 0. -1.
       22    1    1    2    0    0  0.14935621577E-01 -0.50160563139E-02 -0.27656054453E-01  0.31829089851E-01  0.00000000000E+00 0.  1.
       22    1    1    2    0    0 -0.12249829941E-01  0.72827180059E-02  0.30490042047E-01  0.33656187829E-01  0.00000000000E+00 0. -1.
</event>
<event>
 5   0  0.4143600E+04  0.9118800E+02  0.7546771E-02  0.1180000E+00
      -11   -1    0    0    0    0  0.00000000000E+00  0.00000000000E+00  0.34996269501E-01  0.35000000000E-01  0.51099999109E-03 0.  1.
       11   -1    0    0    0    0 -0.00000000000E+00 -0.00000000000E+00 -0.34996269501E-01  0.35000000000E-01  0.51099999109E-03 0. -1.
       22    1    1    2    0    0  0.19216489193E-02 -0.13834619293E-02 -0.12576721970E-02  0.26811267843E-02  0.00000000000E+00 0. -1.
       22    1    1    2    0    0  0.20307114126E-01 -0.10500652364E-01 -0.22933792261E-01  0.32382115614E-01  0.00000000000E+00 0. -1.
       22    1    1    2    0    0 -0.22228763046E-01  0.11884114293E-01  0.24191464458E-01  0.34936757601E-01  0.00000000000E+00 0.  1.
</event>
<event>
 5   0  0.4143600E+04  0.9118800E+02  0.7546771E-02  0.1180000E+00
      -11   -1    0    0    0    0  0.00000000000E+00  0.00000000000E+00  0.34996269501E-01  0.35000000000E-01  0.51099999109E-03 0. -1.
       11   -1    0    0    0    0 -0.00000000000E+00 -0.00000000000E+00 -0.34996269501E-01  0.35000000000E-01  0.51099999109E-03 0.  1.
       22    1    1    2    0    0 -0.22756260137E-01 -0.41339989193E-02  0.25255615831E-01  0.34245926086E-01  0.00000000000E+00 0. -1.
       22    1    1    2    0    0 -0.31277439843E-03 -0.62077332115E-03  0.49693222828E-03  0.85447585108E-03  0.00000000000E+00 0.  1.
       22    1    1    2    0    0  0.23069034535E-01  0.47547722404E-02 -0.25752548059E-01  0.34899598063E-01  0.00000000000E+00 0.  1.
</event>
<event>
 5   0  0.4143600E+04  0.9118800E+02  0.7546771E-02  0.1180000E+00
      -11   -1    0    0    0    0  0.00000000000E+00  0.00000000000E+00  0.34996269501E-01  0.35000000000E-01  0.51099999109E-03 0. -1.
       11   -1    0    0    0    0 -0.00000000000E+00 -0.00000000000E+00 -0.34996269501E-01  0.35000000000E-01  0.51099999109E-03 0.  1.
       22    1    1    2    0    0  0.73345827091E-02  0.22234416500E-01 -0.62552868267E-02  0.24234149333E-01  0.00000000000E+00 0. -1.
       22    1    1    2    0    0 -0.85296734002E-02 -0.13680268188E-01  0.22315882193E-01  0.27530050201E-01  0.00000000000E+00 0.  1.
       22    1    1    2    0    0  0.11950906911E-02 -0.85541483117E-02 -0.16060595367E-01  0.18235800466E-01  0.00000000000E+00 0.  1.
</event>
<event>
 5   0  0.4143600E+04  0.9118800E+02  0.7546771E-02  0.1180000E+00
      -11   -1    0    0    0    0  0.00000000000E+00  0.00000000000E+00  0.34996269501E-01  0.35000000000E-01  0.51099999109E-03 0.  1.
       11   -1    0    0    0    0 -0.00000000000E+00 -0.00000000000E+00 -0.34996269501E-01  0.35000000000E-01  0.51099999109E-03 0. -1.
       22    1    1    2    0    0  0.96657092424E-03 -0.12663235785E-01 -0.32591666470E-01  0.34978686699E-01  0.00000000000E+00 0. -1.
       22    1    1    2    0    0 -0.27099232717E-04 -0.21906986280E-04  0.49292283701E-03  0.49415302053E-03  0.00000000000E+00 0. -1.
       22    1    1    2    0    0 -0.93947169152E-03  0.12685142771E-01  0.32098743633E-01  0.34527160280E-01  0.00000000000E+00 0.  1.
</event>
<event>
 5   0  0.4143600E+04  0.9118800E+02  0.7546771E-02  0.1180000E+00
      -11   -1    0    0    0    0  0.00000000000E+00  0.00000000000E+00  0.34996269501E-01  0.35000000000E-01  0.51099999109E-03 0.  1.
       11   -1    0    0    0    0 -0.00000000000E+00 -0.00000000000E+00 -0.34996269501E-01  0.35000000000E-01  0.51099999109E-03 0. -1.
       22    1    1    2    0    0 -0.21892976333E-02 -0.19711162547E-02  0.71602596650E-02  0.77425862531E-02  0.00000000000E+00 0.  1.
       22    1    1    2    0    0  0.15091656031E-01  0.81444905404E-02 -0.30437945837E-01  0.34936504615E-01  0.00000000000E+00 0. -1.
       22    1    1    2    0    0 -0.12902358397E-01 -0.61733742857E-02  0.23277686172E-01  0.27320909132E-01  0.00000000000E+00 0.  1.
</event>
<event>
 5   0  0.4143600E+04  0.9118800E+02  0.7546771E-02  0.1180000E+00
      -11   -1    0    0    0    0  0.00000000000E+00  0.00000000000E+00  0.34996269501E-01  0.35000000000E-01  0.51099999109E-03 0. -1.
       11   -1    0    0    0    0 -0.00000000000E+00 -0.00000000000E+00 -0.34996269501E-01  0.35000000000E-01  0.51099999109E-03 0.  1.
       22    1    1    2    0    0 -0.63507891017E-02 -0.18977337949E-01  0.28251825134E-01  0.34621344591E-01  0.00000000000E+00 0. -1.
       22    1    1    2    0    0  0.15824725046E-04 -0.27799397713E-03 -0.29274386483E-02  0.29406509675E-02  0.00000000000E+00 0. -1.
       22    1    1    2    0    0  0.63349643766E-02  0.19255331926E-01 -0.25324386486E-01  0.32438004442E-01  0.00000000000E+00 0.  1.
</event>
<event>
 5   0  0.4143600E+04  0.9118800E+02  0.7546771E-02  0.1180000E+00
      -11   -1    0    0    0    0  0.00000000000E+00  0.00000000000E+00  0.34996269501E-01  0.35000000000E-01  0.51099999109E-03 0.  1.
       11   -1    0    0    0    0 -0.00000000000E+00 -0.00000000000E+00 -0.34996269501E-01  0.35000000000E-01  0.51099999109E-03 0. -1.
       22    1    1    2    0    0 -0.24349583752E-01  0.17076003444E-01 -0.18087736074E-01  0.34808882757E-01  0.00000000000E+00 0. -1.
       22    1    1    2    0    0  0.22669864943E-03 -0.27745877321E-04 -0.31461440270E-03  0.38877285624E-03  0.00000000000E+00 0. -1.
       22    1    1    2    0    0  0.24122885103E-01 -0.17048257567E-01  0.18402350477E-01  0.34802344387E-01  0.00000000000E+00 0.  1.
</event>
<event>
 5   0  0.4143600E+04  0.9118800E+02  0.7546771E-02  0.1180000E+00
      -11   -1    0    0    0    0  0.00000000000E+00  0.00000000000E+00  0.34996269501E-01  0.35000000000E-01  0.51099999109E-03 0. -1.
       11   -1    0    0    0    0 -0.00000000000E+00 -0.00000000000E+00 -0.34996269501E-01  0.35000000000E-01  0.51099999109E-03 0.  1.
       22    1    1    2    0    0  0.21813547887E-02 -0.25261587525E-02  0.34528566526E-01  0.34689504076E-01  0.00000000000E+00 0. -1.
       22    1    1    2    0    0  0.75196770327E-03 -0.12449228214E-02 -0.22424183314E-02  0.26727753798E-02  0.00000000000E+00 0. -1.
       22    1    1    2    0    0 -0.29333224920E-02  0.37710815739E-02 -0.32286148194E-01  0.32637720544E-01  0.00000000000E+00 0.  1.
</event>
<event>
 5   0  0.4143600E+04  0.9118800E+02  0.7546771E-02  0.1180000E+00
      -11   -1    0    0    0    0  0.00000000000E+00  0.00000000000E+00  0.34996269501E-01  0.35000000000E-01  0.51099999109E-03 0.  1.
       11   -1    0    0    0    0 -0.00000000000E+00 -0.00000000000E+00 -0.34996269501E-01  0.35000000000E-01  0.51099999109E-03 0. -1.
       22    1    1    2    0    0 -0.17094311141E-01  0.85919333324E-02  0.29278092849E-01  0.34974898322E-01  0.00000000000E+00 0.  1.
       22    1    1    2    0    0  0.69113738038E-04  0.76236986184E-06 -0.48000965770E-03  0.48496037104E-03  0.00000000000E+00 0. -1.
       22    1    1    2    0    0  0.17025197403E-01 -0.85926957023E-02 -0.28798083191E-01  0.34540141307E-01  0.00000000000E+00 0. -1.
</event>
<event>
 5   0  0.4143600E+04  0.9118800E+02  0.7546771E-02  0.1180000E+00
      -11   -1    0    0    0    0  0.00000000000E+00  0.00000000000E+00  0.34996269501E-01  0.35000000000E-01  0.51099999109E-03 0.  1.
       11   -1    0    0    0    0 -0.00000000000E+00 -0.00000000000E+00 -0.34996269501E-01  0.35000000000E-01  0.51099999109E-03 0. -1.
       22    1    1    2    0    0  0.64840013540E-02  0.50089399515E-02  0.33834221648E-01  0.34812157467E-01  0.00000000000E+00 0.  1.
       22    1    1    2    0    0 -0.56632019742E-02 -0.43314564534E-02 -0.18650005811E-01  0.19966373941E-01  0.00000000000E+00 0. -1.
       22    1    1    2    0    0 -0.82079937976E-03 -0.67748349806E-03 -0.15184215837E-01  0.15221468592E-01  0.00000000000E+00 0. -1.
</event>
<event>
 5   0  0.4143600E+04  0.9118800E+02  0.7546771E-02  0.1180000E+00
      -11   -1    0    0    0    0  0.00000000000E+00  0.00000000000E+00  0.34996269501E-01  0.35000000000E-01  0.51099999109E-03 0. -1.
       11   -1    0    0    0    0 -0.00000000000E+00 -0.00000000000E+00 -0.34996269501E-01  0.35000000000E-01  0.51099999109E-03 0.  1.
       22    1    1    2    0    0 -0.18841349322E-01 -0.81704487759E-02 -0.28306690692E-01  0.34971723083E-01  0.00000000000E+00 0.  1.
       22    1    1    2    0    0  0.28871268862E-06  0.77946793402E-05  0.30424487998E-03  0.30434484943E-03  0.00000000000E+00 0. -1.
       22    1    1    2    0    0  0.18841060609E-01  0.81626540966E-02  0.28002445812E-01  0.34723932068E-01  0.00000000000E+00 0. -1.
</event>
<event>
 5   0  0.4143600E+04  0.9118800E+02  0.7546771E-02  0.1180000E+00
      -11   -1    0    0    0    0  0.00000000000E+00  0.00000000000E+00  0.34996269501E-01  0.35000000000E-01  0.51099999109E-03 0. -1.
       11   -1    0    0    0    0 -0.00000000000E+00 -0.00000000000E+00 -0.34996269501E-01  0.35000000000E-01  0.51099999109E-03 0.  1.
       22    1    1    2    0    0 -0.35509070941E-02  0.16110790595E-02 -0.17718994489E-01  0.18142967856E-01  0.00000000000E+00 0. -1.
       22    1    1    2    0    0 -0.41205390000E-02 -0.12283370117E-01  0.30738173869E-01  0.33357088541E-01  0.00000000000E+00 0. -1.
       22    1    1    2    0    0  0.76714460941E-02  0.10672291058E-01 -0.13019179381E-01  0.18499943604E-01  0.00000000000E+00 0.  1.
</event>
<event>
 5   0  0.4143600E+04  0.9118800E+02  0.7546771E-02  0.1180000E+00
      -11   -1    0    0    0    0  0.00000000000E+00  0.00000000000E+00  0.34996269501E-01  0.35000000000E-01  0.51099999109E-03 0. -1.
       11   -1    0    0    0    0 -0.00000000000E+00 -0.00000000000E+00 -0.34996269501E-01  0.35000000000E-01  0.51099999109E-03 0.  1.
       22    1    1    2    0    0 -0.21769934443E-02  0.45752150895E-02  0.34623159925E-01  0.34991929023E-01  0.00000000000E+00 0. -1.
       22    1    1    2    0    0  0.13367270933E-03 -0.92355254114E-04 -0.39394738153E-03  0.42613662785E-03  0.00000000000E+00 0.  1.
       22    1    1    2    0    0  0.20433207350E-02 -0.44828598354E-02 -0.34229212544E-01  0.34581934349E-01  0.00000000000E+00 0.  1.
</event>
<event>
 5   0  0.4143600E+04  0.9118800E+02  0.7546771E-02  0.1180000E+00
      -11   -1    0    0    0    0  0.00000000000E+00  0.00000000000E+00  0.34996269501E-01  0.35000000000E-01  0.51099999109E-03 0. -1.
       11   -1    0    0    0    0 -0.00000000000E+00 -0.00000000000E+00 -0.34996269501E-01  0.35000000000E-01  0.51099999109E-03 0.  1.
       22    1    1    2    0    0  0.19027015527E-01 -0.11260808069E-01  0.23135786162E-01  0.32001526832E-01  0.00000000000E+00 0. -1.
       22    1    1    2    0    0  0.17058718333E-02  0.19308201842E-02  0.25987593602E-02  0.36594556299E-02  0.00000000000E+00 0.  1.
       22    1    1    2    0    0 -0.20732887360E-01  0.93299878852E-02 -0.25734545523E-01  0.34339017538E-01  0.00000000000E+00 0.  1.
</event>
<event>
 5   0  0.4143600E+04  0.9118800E+02  0.7546771E-02  0.1180000E+00
      -11   -1    0    0    0    0  0.00000000000E+00  0.00000000000E+00  0.34996269501E-01  0.35000000000E-01  0.51099999109E-03 0.  1.
       11   -1    0    0    0    0 -0.00000000000E+00 -0.00000000000E+00 -0.34996269501E-01  0.35000000000E-01  0.51099999109E-03 0. -1.
       22    1    1    2    0    0  0.23878080454E-02  0.47652047461E-02 -0.24686164348E-01  0.25255009676E-01  0.00000000000E+00 0. -1.
       22    1    1    2    0    0  0.42066768204E-03  0.38018988890E-03  0.33856454494E-01  0.33861202232E-01  0.00000000000E+00 0.  1.
       22    1    1    2    0    0 -0.28084757274E-02 -0.51453946350E-02 -0.91702901468E-02  0.10883788092E-01  0.00000000000E+00 0.  1.
</event>
<event>
 5   0  0.4143600E+04  0.9118800E+02  0.7546771E-02  0.1180000E+00
      -11   -1    0    0    0    0  0.00000000000E+00  0.00000000000E+00  0.34996269501E-01  0.35000000000E-01  0.51099999109E-03 0. -1.
       11   -1    0    0    0    0 -0.00000000000E+00 -0.00000000000E+00 -0.34996269501E-01  0.35000000000E-01  0.51099999109E-03 0.  1.
       22    1    1    2    0    0  0.14676938837E-01 -0.16195126557E-01 -0.26906129923E-01  0.34664599886E-01  0.00000000000E+00 0.  1.
       22    1    1    2    0    0 -0.14604763538E-01  0.16769075871E-01  0.26631868039E-01  0.34695207433E-01  0.00000000000E+00 0. -1.
       22    1    1    2    0    0 -0.72175299431E-04 -0.57394931389E-03  0.27426188375E-03  0.64019268166E-03  0.00000000000E+00 0.  1.
</event>
<event>
 5   0  0.4143600E+04  0.9118800E+02  0.7546771E-02  0.1180000E+00
      -11   -1    0    0    0    0  0.00000000000E+00  0.00000000000E+00  0.34996269501E-01  0.35000000000E-01  0.51099999109E-03 0.  1.
       11   -1    0    0    0    0 -0.00000000000E+00 -0.00000000000E+00 -0.34996269501E-01  0.35000000000E-01  0.51099999109E-03 0.  1.
       22    1    1    2    0    0  0.00000000000E+00 -0.00000000000E+00  0.31810756354E-01  0.31809080768E-01  0.00000000000E+00 0.  1.
       22    1    1    2    0    0 -0.56527651418E-02  0.84829416099E-02 -0.10877303101E-01  0.14907373171E-01  0.00000000000E+00 0.  1.
       22    1    1    2    0    0  0.56527651418E-02 -0.84829416099E-02 -0.20933453253E-01  0.23283546062E-01  0.00000000000E+00 0. -1.
</event>
<event>
 5   0  0.4143600E+04  0.9118800E+02  0.7546771E-02  0.1180000E+00
      -11   -1    0    0    0    0  0.00000000000E+00  0.00000000000E+00  0.34996269501E-01  0.35000000000E-01  0.51099999109E-03 0. -1.
       11   -1    0    0    0    0 -0.00000000000E+00 -0.00000000000E+00 -0.34996269501E-01  0.35000000000E-01  0.51099999109E-03 0.  1.
       22    1    1    2    0    0  0.76346748232E-02 -0.15276179550E-01  0.30164942130E-01  0.34663722463E-01  0.00000000000E+00 0. -1.
       22    1    1    2    0    0 -0.74732901389E-02  0.15101800782E-01 -0.30547206148E-01  0.34886190044E-01  0.00000000000E+00 0.  1.
       22    1    1    2    0    0 -0.16138468428E-03  0.17437876851E-03  0.38226401807E-03  0.45008749232E-03  0.00000000000E+00 0.  1.
</event>
<event>
 5   0  0.4143600E+04  0.9118800E+02  0.7546771E-02  0.1180000E+00
      -11   -1    0    0    0    0  0.00000000000E+00  0.00000000000E+00  0.34996269501E-01  0.35000000000E-01  0.51099999109E-03 0. -1.
       11   -1    0    0    0    0 -0.00000000000E+00 -0.00000000000E+00 -0.34996269501E-01  0.35000000000E-01  0.51099999109E-03 0.  1.
       22    1    1    2    0    0  0.17593060724E-01 -0.14954617558E-01 -0.25579679647E-01  0.34459779204E-01  0.00000000000E+00 0.  1.
       22    1    1    2    0    0  0.76750246084E-04 -0.16288470947E-03 -0.53975954494E-03  0.56900122601E-03  0.00000000000E+00 0. -1.
       22    1    1    2    0    0 -0.17669810970E-01  0.15117502268E-01  0.26119439191E-01  0.34971219570E-01  0.00000000000E+00 0. -1.
</event>
<event>
 5   0  0.4143600E+04  0.9118800E+02  0.7546771E-02  0.1180000E+00
      -11   -1    0    0    0    0  0.00000000000E+00  0.00000000000E+00  0.34996269501E-01  0.35000000000E-01  0.51099999109E-03 0. -1.
       11   -1    0    0    0    0 -0.00000000000E+00 -0.00000000000E+00 -0.34996269501E-01  0.35000000000E-01  0.51099999109E-03 0.  1.
       22    1    1    2    0    0 -0.43592918010E-03  0.13981237802E-02 -0.24737933297E-02  0.28747935218E-02  0.00000000000E+00 0. -1.
       22    1    1    2    0    0 -0.21018282074E-02 -0.26113460685E-02 -0.32181666743E-01  0.32355779769E-01  0.00000000000E+00 0.  1.
       22    1    1    2    0    0  0.25377573875E-02  0.12132222883E-02  0.34655460072E-01  0.34769426710E-01  0.00000000000E+00 0. -1.
</event>
<event>
 5   0  0.4143600E+04  0.9118800E+02  0.7546771E-02  0.1180000E+00
      -11   -1    0    0    0    0  0.00000000000E+00  0.00000000000E+00  0.34996269501E-01  0.35000000000E-01  0.51099999109E-03 0. -1.
       11   -1    0    0    0    0 -0.00000000000E+00 -0.00000000000E+00 -0.34996269501E-01  0.35000000000E-01  0.51099999109E-03 0.  1.
       22    1    1    2    0    0  0.23270550739E-03 -0.70072508819E-03 -0.62730825805E-02  0.63163860367E-02  0.00000000000E+00 0. -1.
       22    1    1    2    0    0  0.87798085057E-02  0.53427043446E-02  0.33283070737E-01  0.34833781374E-01  0.00000000000E+00 0. -1.
       22    1    1    2    0    0 -0.90125140131E-02 -0.46419792564E-02 -0.27009988156E-01  0.28849832590E-01  0.00000000000E+00 0.  1.
</event>
<event>
 5   0  0.4143600E+04  0.9118800E+02  0.7546771E-02  0.1180000E+00
      -11   -1    0    0    0    0  0.00000000000E+00  0.00000000000E+00  0.34996269501E-01  0.35000000000E-01  0.51099999109E-03 0. -1.
       11   -1    0    0    0    0 -0.00000000000E+00 -0.00000000000E+00 -0.34996269501E-01  0.35000000000E-01  0.51099999109E-03 0.  1.
       22    1    1    2    0    0  0.33946951012E-02 -0.16478580811E-01 -0.29495079457E-01  0.33956255573E-01  0.00000000000E+00 0.  1.
       22    1    1    2    0    0 -0.34735280211E-02  0.16559856931E-01  0.30582117670E-01  0.34950825165E-01  0.00000000000E+00 0. -1.
       22    1    1    2    0    0  0.78832919850E-04 -0.81276120502E-04 -0.10870382134E-02  0.10929192625E-02  0.00000000000E+00 0. -1.
</event>
<event>
 5   0  0.4143600E+04  0.9118800E+02  0.7546771E-02  0.1180000E+00
      -11   -1    0    0    0    0  0.00000000000E+00  0.00000000000E+00  0.34996269501E-01  0.35000000000E-01  0.51099999109E-03 0.  1.
       11   -1    0    0    0    0 -0.00000000000E+00 -0.00000000000E+00 -0.34996269501E-01  0.35000000000E-01  0.51099999109E-03 0. -1.
       22    1    1    2    0    0  0.15778260404E-01  0.12571597460E-02  0.31108590449E-01  0.34903844368E-01  0.00000000000E+00 0.  1.
       22    1    1    2    0    0 -0.14296040410E-01 -0.52601018490E-03 -0.29520104178E-01  0.32803810888E-01  0.00000000000E+00 0. -1.
       22    1    1    2    0    0 -0.14822199940E-02 -0.73114956107E-03 -0.15884862711E-02  0.22923447438E-02  0.00000000000E+00 0.  1.
</event>
<event>
 5   0  0.4143600E+04  0.9118800E+02  0.7546771E-02  0.1180000E+00
      -11   -1    0    0    0    0  0.00000000000E+00  0.00000000000E+00  0.34996269501E-01  0.35000000000E-01  0.51099999109E-03 0. -1.
       11   -1    0    0    0    0 -0.00000000000E+00 -0.00000000000E+00 -0.34996269501E-01  0.35000000000E-01  0.51099999109E-03 0.  1.
       22    1    1    2    0    0  0.81714354889E-02 -0.12927086171E-01  0.30575903505E-01  0.34187246013E-01  0.00000000000E+00 0. -1.
       22    1    1    2    0    0 -0.87704435460E-02  0.10122783058E-01 -0.15582723720E-01  0.20547814856E-01  0.00000000000E+00 0.  1.
       22    1    1    2    0    0  0.59900805706E-03  0.28043031137E-02 -0.14993179784E-01  0.15264939130E-01  0.00000000000E+00 0.  1.
</event>
<event>
 5   0  0.4143600E+04  0.9118800E+02  0.7546771E-02  0.1180000E+00
      -11   -1    0    0    0    0  0.00000000000E+00  0.00000000000E+00  0.34996269501E-01  0.35000000000E-01  0.51099999109E-03 0.  1.
       11   -1    0    0    0    0 -0.00000000000E+00 -0.00000000000E+00 -0.34996269501E-01  0.35000000000E-01  0.51099999109E-03 0. -1.
       22    1    1    2    0    0 -0.12199859712E-01  0.83318238000E-02 -0.31342510579E-01  0.34649802802E-01  0.00000000000E+00 0. -1.
       22    1    1    2    0    0 -0.49638449035E-03 -0.34982920919E-03  0.50094391939E-02  0.50461132642E-02  0.00000000000E+00 0. -1.
       22    1    1    2    0    0  0.12696244202E-01 -0.79819945908E-02  0.26333071385E-01  0.30304083934E-01  0.00000000000E+00 0.  1.
</event>
<event>
 5   0  0.4143600E+04  0.9118800E+02  0.7546771E-02  0.1180000E+00
      -11   -1    0    0    0    0  0.00000000000E+00  0.00000000000E+00  0.34996269501E-01  0.35000000000E-01  0.51099999109E-03 0. -1.
       11   -1    0    0    0    0 -0.00000000000E+00 -0.00000000000E+00 -0.34996269501E-01  0.35000000000E-01  0.51099999109E-03 0.  1.
       22    1    1    2    0    0 -0.11175127703E-01 -0.13506677756E-01  0.26276482978E-01  0.31587456069E-01  0.00000000000E+00 0. -1.
       22    1    1    2    0    0  0.11202943656E-01  0.13471909245E-01 -0.29971491885E-01  0.34717266757E-01  0.00000000000E+00 0.  1.
       22    1    1    2    0    0 -0.27815953605E-04  0.34768510719E-04  0.36950089065E-02  0.36952771744E-02  0.00000000000E+00 0. -1.
</event>
<event>
 5   0  0.4143600E+04  0.9118800E+02  0.7546771E-02  0.1180000E+00
      -11   -1    0    0    0    0  0.00000000000E+00  0.00000000000E+00  0.34996269501E-01  0.35000000000E-01  0.51099999109E-03 0.  1.
       11   -1    0    0    0    0 -0.00000000000E+00 -0.00000000000E+00 -0.34996269501E-01  0.35000000000E-01  0.51099999109E-03 0. -1.
       22    1    1    2    0    0 -0.18235485433E-02 -0.75714162605E-03 -0.36122358249E-02  0.41166540280E-02  0.00000000000E+00 0.  1.
       22    1    1    2    0    0  0.95290896975E-03 -0.22554898228E-02 -0.31016456028E-01  0.31112952518E-01  0.00000000000E+00 0. -1.
       22    1    1    2    0    0  0.87063957351E-03  0.30126314489E-02  0.34628691853E-01  0.34770393454E-01  0.00000000000E+00 0.  1.
</event>
<event>
 5   0  0.4143600E+04  0.9118800E+02  0.7546771E-02  0.1180000E+00
      -11   -1    0    0    0    0  0.00000000000E+00  0.00000000000E+00  0.34996269501E-01  0.35000000000E-01  0.51099999109E-03 0. -1.
       11   -1    0    0    0    0 -0.00000000000E+00 -0.00000000000E+00 -0.34996269501E-01  0.35000000000E-01  0.51099999109E-03 0.  1.
       22    1    1    2    0    0  0.17930432053E-03 -0.18103455491E-02 -0.33016072603E-01  0.33066154164E-01  0.00000000000E+00 0.  1.
       22    1    1    2    0    0  0.52370426407E-03  0.66706247181E-03 -0.18535760405E-02  0.20383774517E-02  0.00000000000E+00 0.  1.
       22    1    1    2    0    0 -0.70300858460E-03  0.11432830772E-02  0.34869648644E-01  0.34895468385E-01  0.00000000000E+00 0. -1.
</event>
<event>
 5   0  0.4143600E+04  0.9118800E+02  0.7546771E-02  0.1180000E+00
      -11   -1    0    0    0    0  0.00000000000E+00  0.00000000000E+00  0.34996269501E-01  0.35000000000E-01  0.51099999109E-03 0.  1.
       11   -1    0    0    0    0 -0.00000000000E+00 -0.00000000000E+00 -0.34996269501E-01  0.35000000000E-01  0.51099999109E-03 0. -1.
       22    1    1    2    0    0  0.58269263638E-02 -0.10942501440E-01 -0.22712624824E-01  0.25875755738E-01  0.00000000000E+00 0. -1.
       22    1    1    2    0    0 -0.29226440470E-02 -0.82205102373E-02 -0.51892162150E-02  0.10151187207E-01  0.00000000000E+00 0. -1.
       22    1    1    2    0    0 -0.29042823168E-02  0.19163011677E-01  0.27901841039E-01  0.33973057055E-01  0.00000000000E+00 0.  1.
</event>
<event>
 5   0  0.4143600E+04  0.9118800E+02  0.7546771E-02  0.1180000E+00
      -11   -1    0    0    0    0  0.00000000000E+00  0.00000000000E+00  0.34996269501E-01  0.35000000000E-01  0.51099999109E-03 0.  1.
       11   -1    0    0    0    0 -0.00000000000E+00 -0.00000000000E+00 -0.34996269501E-01  0.35000000000E-01  0.51099999109E-03 0. -1.
       22    1    1    2    0    0 -0.15648272183E-02  0.29755330175E-03  0.21553792861E-01  0.21612570622E-01  0.00000000000E+00 0.  1.
       22    1    1    2    0    0 -0.75492864262E-02  0.12936925508E-01 -0.27449947410E-01  0.31270679238E-01  0.00000000000E+00 0. -1.
       22    1    1    2    0    0  0.91141136445E-02 -0.13234478810E-01  0.58961545494E-02  0.17116750140E-01  0.00000000000E+00 0.  1.
</event>
<event>
 5   0  0.4143600E+04  0.9118800E+02  0.7546771E-02  0.1180000E+00
      -11   -1    0    0    0    0  0.00000000000E+00  0.00000000000E+00  0.34996269501E-01  0.35000000000E-01  0.51099999109E-03 0. -1.
       11   -1    0    0    0    0 -0.00000000000E+00 -0.00000000000E+00 -0.34996269501E-01  0.35000000000E-01  0.51099999109E-03 0.  1.
       22    1    1    2    0    0  0.32094993846E-03  0.71715211075E-03 -0.13870547620E-02  0.15941257559E-02  0.00000000000E+00 0. -1.
       22    1    1    2    0    0  0.59497510149E-02 -0.39761481445E-02 -0.32761391646E-01  0.33533834761E-01  0.00000000000E+00 0.  1.
       22    1    1    2    0    0 -0.62707009534E-02  0.32589960337E-02  0.34148446408E-01  0.34872039483E-01  0.00000000000E+00 0. -1.
</event>
<event>
 5   0  0.4143600E+04  0.9118800E+02  0.7546771E-02  0.1180000E+00
      -11   -1    0    0    0    0  0.00000000000E+00  0.00000000000E+00  0.34996269501E-01  0.35000000000E-01  0.51099999109E-03 0.  1.
       11   -1    0    0    0    0 -0.00000000000E+00 -0.00000000000E+00 -0.34996269501E-01  0.35000000000E-01  0.51099999109E-03 0. -1.
       22    1    1    2    0    0 -0.22937062854E-03 -0.12882246704E-02 -0.18023391802E-01  0.18070826924E-01  0.00000000000E+00 0. -1.
       22    1    1    2    0    0 -0.81526339514E-02 -0.21812270961E-02  0.33195694946E-01  0.34251676674E-01  0.00000000000E+00 0.  1.
       22    1    1    2    0    0  0.83820045799E-02  0.34694517665E-02 -0.15172303144E-01  0.17677496402E-01  0.00000000000E+00 0. -1.
</event>
<event>
 5   0  0.4143600E+04  0.9118800E+02  0.7546771E-02  0.1180000E+00
      -11   -1    0    0    0    0  0.00000000000E+00  0.00000000000E+00  0.34996269501E-01  0.35000000000E-01  0.51099999109E-03 0.  1.
       11   -1    0    0    0    0 -0.00000000000E+00 -0.00000000000E+00 -0.34996269501E-01  0.35000000000E-01  0.51099999109E-03 0.  1.
       22    1    1    2    0    0  0.24327088112E-02 -0.33631859633E-03  0.34893216400E-01  0.34979533060E-01  0.00000000000E+00 0.  1.
       22    1    1    2    0    0  0.11263101847E-04 -0.15324079968E-03 -0.29530903009E-03  0.33289190949E-03  0.00000000000E+00 0.  1.
       22    1    1    2    0    0 -0.24439719130E-02  0.48955939601E-03 -0.34597907370E-01  0.34687575030E-01  0.00000000000E+00 0.  1.
</event>
<event>
 5   0  0.4143600E+04  0.9118800E+02  0.7546771E-02  0.1180000E+00
      -11   -1    0    0    0    0  0.00000000000E+00  0.00000000000E+00  0.34996269501E-01  0.35000000000E-01  0.51099999109E-03 0.  1.
       11   -1    0    0    0    0 -0.00000000000E+00 -0.00000000000E+00 -0.34996269501E-01  0.35000000000E-01  0.51099999109E-03 0. -1.
       22    1    1    2    0    0 -0.40535593524E-03 -0.12674703670E-02  0.12376563392E-01  0.12447896046E-01  0.00000000000E+00 0.  1.
       22    1    1    2    0    0 -0.14935454262E-01 -0.15442198916E-01  0.11708521372E-01  0.24466687028E-01  0.00000000000E+00 0.  1.
       22    1    1    2    0    0  0.15340810198E-01  0.16709669283E-01 -0.24085084764E-01  0.33085416926E-01  0.00000000000E+00 0. -1.
</event>
<event>
 5   0  0.4143600E+04  0.9118800E+02  0.7546771E-02  0.1180000E+00
      -11   -1    0    0    0    0  0.00000000000E+00  0.00000000000E+00  0.34996269501E-01  0.35000000000E-01  0.51099999109E-03 0. -1.
       11   -1    0    0    0    0 -0.00000000000E+00 -0.00000000000E+00 -0.34996269501E-01  0.35000000000E-01  0.51099999109E-03 0.  1.
       22    1    1    2    0    0 -0.19678554434E-01  0.69704179359E-02 -0.28045835354E-01  0.34962853309E-01  0.00000000000E+00 0.  1.
       22    1    1    2    0    0 -0.69941534008E-05  0.30747139001E-04  0.31366351900E-03  0.31524452080E-03  0.00000000000E+00 0. -1.
       22    1    1    2    0    0  0.19685548587E-01 -0.70011650749E-02  0.27732171835E-01  0.34721902170E-01  0.00000000000E+00 0. -1.
</event>
<event>
 5   0  0.4143600E+04  0.9118800E+02  0.7546771E-02  0.1180000E+00
      -11   -1    0    0    0    0  0.00000000000E+00  0.00000000000E+00  0.34996269501E-01  0.35000000000E-01  0.51099999109E-03 0.  1.
       11   -1    0    0    0    0 -0.00000000000E+00 -0.00000000000E+00 -0.34996269501E-01  0.35000000000E-01  0.51099999109E-03 0. -1.
       22    1    1    2    0    0 -0.29201597541E-02  0.98013258452E-02 -0.24766065872E-01  0.26794614012E-01  0.00000000000E+00 0. -1.
       22    1    1    2    0    0  0.31851273956E-03 -0.12711096280E-01  0.32304282221E-01  0.34716567642E-01  0.00000000000E+00 0.  1.
       22    1    1    2    0    0  0.26016470146E-02  0.29097704350E-02 -0.75382163496E-02  0.84888183457E-02  0.00000000000E+00 0. -1.
</event>
<event>
 5   0  0.4143600E+04  0.9118800E+02  0.7546771E-02  0.1180000E+00
      -11   -1    0    0    0    0  0.00000000000E+00  0.00000000000E+00  0.34996269501E-01  0.35000000000E-01  0.51099999109E-03 0. -1.
       11   -1    0    0    0    0 -0.00000000000E+00 -0.00000000000E+00 -0.34996269501E-01  0.35000000000E-01  0.51099999109E-03 0.  1.
       22    1    1    2    0    0  0.13501570779E-02 -0.34560682661E-03  0.34943885399E-01  0.34971667032E-01  0.00000000000E+00 0. -1.
       22    1    1    2    0    0 -0.18790496801E-04 -0.22065364391E-03 -0.42583413119E-03  0.47997481249E-03  0.00000000000E+00 0.  1.
       22    1    1    2    0    0 -0.13313665811E-02  0.56626047053E-03 -0.34518051268E-01  0.34548358155E-01  0.00000000000E+00 0.  1.
</event>
<event>
 5   0  0.4143600E+04  0.9118800E+02  0.7546771E-02  0.1180000E+00
      -11   -1    0    0    0    0  0.00000000000E+00  0.00000000000E+00  0.34996269501E-01  0.35000000000E-01  0.51099999109E-03 0.  1.
       11   -1    0    0    0    0 -0.00000000000E+00 -0.00000000000E+00 -0.34996269501E-01  0.35000000000E-01  0.51099999109E-03 0. -1.
       22    1    1    2    0    0 -0.36584192801E-04  0.33502139373E-05  0.68991515434E-03  0.69089257289E-03  0.00000000000E+00 0.  1.
       22    1    1    2    0    0 -0.12449487915E-01 -0.15224318876E-01 -0.28870764858E-01  0.34932659476E-01  0.00000000000E+00 0. -1.
       22    1    1    2    0    0  0.12486072108E-01  0.15220968663E-01  0.28180849704E-01  0.34376447951E-01  0.00000000000E+00 0.  1.
</event>
<event>
 5   0  0.4143600E+04  0.9118800E+02  0.7546771E-02  0.1180000E+00
      -11   -1    0    0    0    0  0.00000000000E+00  0.00000000000E+00  0.34996269501E-01  0.35000000000E-01  0.51099999109E-03 0.  1.
       11   -1    0    0    0    0 -0.00000000000E+00 -0.00000000000E+00 -0.34996269501E-01  0.35000000000E-01  0.51099999109E-03 0. -1.
       22    1    1    2    0    0 -0.14058857628E-01 -0.13106021947E-01  0.29186454649E-01  0.34946651114E-01  0.00000000000E+00 0.  1.
       22    1    1    2    0    0  0.14140547433E-01  0.12824487331E-01 -0.28946481849E-01  0.34674506031E-01  0.00000000000E+00 0. -1.
       22    1    1    2    0    0 -0.81689805348E-04  0.28153461624E-03 -0.23997280008E-03  0.37884285557E-03  0.00000000000E+00 0. -1.
</event>
<event>
 5   0  0.4143600E+04  0.9118800E+02  0.7546771E-02  0.1180000E+00
      -11   -1    0    0    0    0  0.00000000000E+00  0.00000000000E+00  0.34996269501E-01  0.35000000000E-01  0.51099999109E-03 0. -1.
       11   -1    0    0    0    0 -0.00000000000E+00 -0.00000000000E+00 -0.34996269501E-01  0.35000000000E-01  0.51099999109E-03 0.  1.
       22    1    1    2    0    0 -0.49750370014E-02  0.15102183188E-01 -0.30706983244E-01  0.34579556824E-01  0.00000000000E+00 0.  1.
       22    1    1    2    0    0  0.49074029451E-02 -0.15074084344E-01  0.31160406280E-01  0.34961143317E-01  0.00000000000E+00 0. -1.
       22    1    1    2    0    0  0.67634056361E-04 -0.28098844435E-04 -0.45342303625E-03  0.45929985895E-03  0.00000000000E+00 0. -1.
</event>
<event>
 5   0  0.4143600E+04  0.9118800E+02  0.7546771E-02  0.1180000E+00
      -11   -1    0    0    0    0  0.00000000000E+00  0.00000000000E+00  0.34996269501E-01  0.35000000000E-01  0.51099999109E-03 0. -1.
       11   -1    0    0    0    0 -0.00000000000E+00 -0.00000000000E+00 -0.34996269501E-01  0.35000000000E-01  0.51099999109E-03 0.  1.
       22    1    1    2    0    0  0.29210825045E-02 -0.56251032964E-03 -0.33776847904E-01  0.33907589050E-01  0.00000000000E+00 0.  1.
       22    1    1    2    0    0 -0.30993903736E-02  0.60851539758E-04  0.34800650923E-01  0.34938449139E-01  0.00000000000E+00 0. -1.
       22    1    1    2    0    0  0.17830786910E-03  0.50165878988E-03 -0.10238030190E-02  0.11539618102E-02  0.00000000000E+00 0. -1.
</event>
<event>
 5   0  0.4143600E+04  0.9118800E+02  0.7546771E-02  0.1180000E+00
      -11   -1    0    0    0    0  0.00000000000E+00  0.00000000000E+00  0.34996269501E-01  0.35000000000E-01  0.51099999109E-03 0.  1.
       11   -1    0    0    0    0 -0.00000000000E+00 -0.00000000000E+00 -0.34996269501E-01  0.35000000000E-01  0.51099999109E-03 0. -1.
       22    1    1    2    0    0 -0.21389833788E-02 -0.73697205972E-02 -0.17279270765E-01  0.18906645121E-01  0.00000000000E+00 0. -1.
       22    1    1    2    0    0 -0.51316654848E-02  0.45847542401E-02 -0.15734737208E-01  0.17173698410E-01  0.00000000000E+00 0. -1.
       22    1    1    2    0    0  0.72706488636E-02  0.27849663571E-02  0.33014007973E-01  0.33919656468E-01  0.00000000000E+00 0.  1.
</event>
<event>
 5   0  0.4143600E+04  0.9118800E+02  0.7546771E-02  0.1180000E+00
      -11   -1    0    0    0    0  0.00000000000E+00  0.00000000000E+00  0.34996269501E-01  0.35000000000E-01  0.51099999109E-03 0.  1.
       11   -1    0    0    0    0 -0.00000000000E+00 -0.00000000000E+00 -0.34996269501E-01  0.35000000000E-01  0.51099999109E-03 0. -1.
       22    1    1    2    0    0  0.11584327203E-01 -0.45819488410E-02 -0.32140082454E-01  0.34469925908E-01  0.00000000000E+00 0. -1.
       22    1    1    2    0    0 -0.10382093285E-01  0.41176172667E-02  0.32350499888E-01  0.34224223526E-01  0.00000000000E+00 0.  1.
       22    1    1    2    0    0 -0.12022339180E-02  0.46433157438E-03 -0.21041743407E-03  0.13058505661E-02  0.00000000000E+00 0. -1.
</event>
<event>
 5   0  0.4143600E+04  0.9118800E+02  0.7546771E-02  0.1180000E+00
      -11   -1    0    0    0    0  0.00000000000E+00  0.00000000000E+00  0.34996269501E-01  0.35000000000E-01  0.51099999109E-03 0. -1.
       11   -1    0    0    0    0 -0.00000000000E+00 -0.00000000000E+00 -0.34996269501E-01  0.35000000000E-01  0.51099999109E-03 0.  1.
       22    1    1    2    0    0  0.70986107230E-04 -0.43391953943E-03  0.23468119339E-02  0.23876455866E-02  0.00000000000E+00 0.  1.
       22    1    1    2    0    0  0.31509445607E-02 -0.18840924318E-01  0.26562141247E-01  0.32717827379E-01  0.00000000000E+00 0. -1.
       22    1    1    2    0    0 -0.32219306680E-02  0.19274843857E-01 -0.28908953181E-01  0.34894527034E-01  0.00000000000E+00 0.  1.
</event>
<event>
 5   0  0.4143600E+04  0.9118800E+02  0.7546771E-02  0.1180000E+00
      -11   -1    0    0    0    0  0.00000000000E+00  0.00000000000E+00  0.34996269501E-01  0.35000000000E-01  0.51099999109E-03 0. -1.
       11   -1    0    0    0    0 -0.00000000000E+00 -0.00000000000E+00 -0.34996269501E-01  0.35000000000E-01  0.51099999109E-03 0.  1.
       22    1    1    2    0    0 -0.24736762166E-02  0.24316902970E-03  0.34831141858E-01  0.34919717186E-01  0.00000000000E+00 0. -1.
       22    1    1    2    0    0  0.30214151539E-02 -0.25605939989E-03 -0.33552012630E-01  0.33688752833E-01  0.00000000000E+00 0.  1.
       22    1    1    2    0    0 -0.54773893731E-03  0.12890370191E-04 -0.12791292281E-02  0.13915299807E-02  0.00000000000E+00 0. -1.
</event>
<event>
 5   0  0.4143600E+04  0.9118800E+02  0.7546771E-02  0.1180000E+00
      -11   -1    0    0    0    0  0.00000000000E+00  0.00000000000E+00  0.34996269501E-01  0.35000000000E-01  0.51099999109E-03 0.  1.
       11   -1    0    0    0    0 -0.00000000000E+00 -0.00000000000E+00 -0.34996269501E-01  0.35000000000E-01  0.51099999109E-03 0. -1.
       22    1    1    2    0    0  0.38788223032E-03 -0.40016101881E-03 -0.74021500698E-03  0.92655260084E-03  0.00000000000E+00 0.  1.
       22    1    1    2    0    0  0.86631395244E-03 -0.32807541099E-02 -0.33973533375E-01  0.34142566063E-01  0.00000000000E+00 0. -1.
       22    1    1    2    0    0 -0.12541961828E-02  0.36809151287E-02  0.34713748382E-01  0.34930881336E-01  0.00000000000E+00 0.  1.
</event>
<event>
 5   0  0.4143600E+04  0.9118800E+02  0.7546771E-02  0.1180000E+00
      -11   -1    0    0    0    0  0.00000000000E+00  0.00000000000E+00  0.34996269501E-01  0.35000000000E-01  0.51099999109E-03 0. -1.
       11   -1    0    0    0    0 -0.00000000000E+00 -0.00000000000E+00 -0.34996269501E-01  0.35000000000E-01  0.51099999109E-03 0.  1.
       22    1    1    2    0    0  0.16571380767E-01 -0.76264084935E-02  0.29375468380E-01  0.34578763852E-01  0.00000000000E+00 0. -1.
       22    1    1    2    0    0 -0.16561917847E-01  0.76290449015E-02 -0.29832582666E-01  0.34964016323E-01  0.00000000000E+00 0.  1.
       22    1    1    2    0    0 -0.94629204650E-05 -0.26364080318E-05  0.45711428648E-03  0.45721982505E-03  0.00000000000E+00 0. -1.
</event>
<event>
 5   0  0.4143600E+04  0.9118800E+02  0.7546771E-02  0.1180000E+00
      -11   -1    0    0    0    0  0.00000000000E+00  0.00000000000E+00  0.34996269501E-01  0.35000000000E-01  0.51099999109E-03 0.  1.
       11   -1    0    0    0    0 -0.00000000000E+00 -0.00000000000E+00 -0.34996269501E-01  0.35000000000E-01  0.51099999109E-03 0. -1.
       22    1    1    2    0    0 -0.37087490861E-03  0.20318757151E-02 -0.31363096621E-01  0.31431033975E-01  0.00000000000E+00 0. -1.
       22    1    1    2    0    0  0.24625597939E-02 -0.14758764353E-02 -0.29914999872E-02  0.41462614684E-02  0.00000000000E+00 0. -1.
       22    1    1    2    0    0 -0.20916848853E-02 -0.55599927983E-03  0.34354596608E-01  0.34422704556E-01  0.00000000000E+00 0.  1.
</event>
<event>
 5   0  0.4143600E+04  0.9118800E+02  0.7546771E-02  0.1180000E+00
      -11   -1    0    0    0    0  0.00000000000E+00  0.00000000000E+00  0.34996269501E-01  0.35000000000E-01  0.51099999109E-03 0.  1.
       11   -1    0    0    0    0 -0.00000000000E+00 -0.00000000000E+00 -0.34996269501E-01  0.35000000000E-01  0.51099999109E-03 0. -1.
       22    1    1    2    0    0 -0.24971443726E-02 -0.80920927051E-02 -0.21322559032E-01  0.22942737806E-01  0.00000000000E+00 0. -1.
       22    1    1    2    0    0  0.21445636100E-02  0.37632404393E-02  0.33680736464E-01  0.33958108611E-01  0.00000000000E+00 0.  1.
       22    1    1    2    0    0  0.35258076256E-03  0.43288522658E-02 -0.12358177432E-01  0.13099153582E-01  0.00000000000E+00 0.  1.
</event>
<event>
 5   0  0.4143600E+04  0.9118800E+02  0.7546771E-02  0.1180000E+00
      -11   -1    0    0    0    0  0.00000000000E+00  0.00000000000E+00  0.34996269501E-01  0.35000000000E-01  0.51099999109E-03 0.  1.
       11   -1    0    0    0    0 -0.00000000000E+00 -0.00000000000E+00 -0.34996269501E-01  0.35000000000E-01  0.51099999109E-03 0. -1.
       22    1    1    2    0    0  0.13233912417E-01  0.83429562448E-02 -0.98539004406E-02  0.18488934817E-01  0.00000000000E+00 0. -1.
       22    1    1    2    0    0  0.70301441520E-03 -0.28108987642E-02  0.27898983497E-01  0.28049040292E-01  0.00000000000E+00 0.  1.
       22    1    1    2    0    0 -0.13936926832E-01 -0.55320574807E-02 -0.18045083056E-01  0.23462024891E-01  0.00000000000E+00 0.  1.
</event>
<event>
 5   0  0.4143600E+04  0.9118800E+02  0.7546771E-02  0.1180000E+00
      -11   -1    0    0    0    0  0.00000000000E+00  0.00000000000E+00  0.34996269501E-01  0.35000000000E-01  0.51099999109E-03 0. -1.
       11   -1    0    0    0    0 -0.00000000000E+00 -0.00000000000E+00 -0.34996269501E-01  0.35000000000E-01  0.51099999109E-03 0.  1.
       22    1    1    2    0    0  0.12062668780E-01 -0.10614618527E-01  0.30229267572E-01  0.34234291617E-01  0.00000000000E+00 0. -1.
       22    1    1    2    0    0 -0.96693966894E-04 -0.14238747221E-03  0.79699188329E-03  0.81536493517E-03  0.00000000000E+00 0. -1.
       22    1    1    2    0    0 -0.11965974813E-01  0.10757006000E-01 -0.31026259456E-01  0.34950343448E-01  0.00000000000E+00 0.  1.
</event>
<event>
 5   0  0.4143600E+04  0.9118800E+02  0.7546771E-02  0.1180000E+00
      -11   -1    0    0    0    0  0.00000000000E+00  0.00000000000E+00  0.34996269501E-01  0.35000000000E-01  0.51099999109E-03 0. -1.
       11   -1    0    0    0    0 -0.00000000000E+00 -0.00000000000E+00 -0.34996269501E-01  0.35000000000E-01  0.51099999109E-03 0.  1.
       22    1    1    2    0    0 -0.12413808215E-01  0.10095162072E-01 -0.25382820051E-01  0.30005041000E-01  0.00000000000E+00 0.  1.
       22    1    1    2    0    0  0.12557914853E-01 -0.91517734223E-02  0.30798183613E-01  0.34496149004E-01  0.00000000000E+00 0. -1.
       22    1    1    2    0    0 -0.14410663841E-03 -0.94338864992E-03 -0.54153635616E-02  0.54988099960E-02  0.00000000000E+00 0. -1.
</event>
<event>
 5   0  0.4143600E+04  0.9118800E+02  0.7546771E-02  0.1180000E+00
      -11   -1    0    0    0    0  0.00000000000E+00  0.00000000000E+00  0.34996269501E-01  0.35000000000E-01  0.51099999109E-03 0. -1.
       11   -1    0    0    0    0 -0.00000000000E+00 -0.00000000000E+00 -0.34996269501E-01  0.35000000000E-01  0.51099999109E-03 0.  1.
       22    1    1    2    0    0  0.37399834673E-03 -0.15078228987E-04 -0.70254486170E-03  0.79603479763E-03  0.00000000000E+00 0.  1.
       22    1    1    2    0    0  0.85977865326E-03  0.24257139637E-03  0.34936054673E-01  0.34947474535E-01  0.00000000000E+00 0. -1.
       22    1    1    2    0    0 -0.12337770000E-02 -0.22749316738E-03 -0.34233509812E-01  0.34256490668E-01  0.00000000000E+00 0.  1.
</event>
<event>
 5   0  0.4143600E+04  0.9118800E+02  0.7546771E-02  0.1180000E+00
      -11   -1    0    0    0    0  0.00000000000E+00  0.00000000000E+00  0.34996269501E-01  0.35000000000E-01  0.51099999109E-03 0. -1.
       11   -1    0    0    0    0 -0.00000000000E+00 -0.00000000000E+00 -0.34996269501E-01  0.35000000000E-01  0.51099999109E-03 0.  1.
       22    1    1    2    0    0  0.80102566328E-03 -0.23507854337E-02  0.86522505712E-02  0.90016261984E-02  0.00000000000E+00 0. -1.
       22    1    1    2    0    0 -0.77650635403E-02 -0.74451724736E-02  0.23947908092E-01  0.26253173273E-01  0.00000000000E+00 0. -1.
       22    1    1    2    0    0  0.69640378770E-02  0.97959579073E-02 -0.32600158663E-01  0.34745200528E-01  0.00000000000E+00 0.  1.
</event>
<event>
 5   0  0.4143600E+04  0.9118800E+02  0.7546771E-02  0.1180000E+00
      -11   -1    0    0    0    0  0.00000000000E+00  0.00000000000E+00  0.34996269501E-01  0.35000000000E-01  0.51099999109E-03 0. -1.
       11   -1    0    0    0    0 -0.00000000000E+00 -0.00000000000E+00 -0.34996269501E-01  0.35000000000E-01  0.51099999109E-03 0.  1.
       22    1    1    2    0    0  0.13367057896E-04 -0.15557344349E-03 -0.31479154900E-03  0.35139079936E-03  0.00000000000E+00 0. -1.
       22    1    1    2    0    0 -0.24116404232E-02  0.10052376407E-01 -0.33120845820E-01  0.34696638293E-01  0.00000000000E+00 0.  1.
       22    1    1    2    0    0  0.23982733653E-02 -0.98968029636E-02  0.33435637369E-01  0.34951970908E-01  0.00000000000E+00 0. -1.
</event>
<event>
 5   0  0.4143600E+04  0.9118800E+02  0.7546771E-02  0.1180000E+00
      -11   -1    0    0    0    0  0.00000000000E+00  0.00000000000E+00  0.34996269501E-01  0.35000000000E-01  0.51099999109E-03 0.  1.
       11   -1    0    0    0    0 -0.00000000000E+00 -0.00000000000E+00 -0.34996269501E-01  0.35000000000E-01  0.51099999109E-03 0. -1.
       22    1    1    2    0    0 -0.11628249829E-01  0.52433953169E-02  0.32566194629E-01  0.34975225820E-01  0.00000000000E+00 0.  1.
       22    1    1    2    0    0 -0.27899474199E-04  0.37166158292E-04 -0.46084812546E-03  0.46318538267E-03  0.00000000000E+00 0. -1.
       22    1    1    2    0    0  0.11656149303E-01 -0.52805614752E-02 -0.32105346504E-01  0.34561588797E-01  0.00000000000E+00 0. -1.
</event>
<event>
 5   0  0.4143600E+04  0.9118800E+02  0.7546771E-02  0.1180000E+00
      -11   -1    0    0    0    0  0.00000000000E+00  0.00000000000E+00  0.34996269501E-01  0.35000000000E-01  0.51099999109E-03 0. -1.
       11   -1    0    0    0    0 -0.00000000000E+00 -0.00000000000E+00 -0.34996269501E-01  0.35000000000E-01  0.51099999109E-03 0.  1.
       22    1    1    2    0    0  0.82148662265E-02 -0.91705583040E-02 -0.32752308226E-01  0.34989953713E-01  0.00000000000E+00 0.  1.
       22    1    1    2    0    0 -0.82019568948E-02  0.91376664414E-02  0.32280755635E-01  0.34537171703E-01  0.00000000000E+00 0. -1.
       22    1    1    2    0    0 -0.12909331694E-04  0.32891862653E-04  0.47155259142E-03  0.47287458374E-03  0.00000000000E+00 0. -1.
</event>
<event>
 5   0  0.4143600E+04  0.9118800E+02  0.7546771E-02  0.1180000E+00
      -11   -1    0    0    0    0  0.00000000000E+00  0.00000000000E+00  0.34996269501E-01  0.35000000000E-01  0.51099999109E-03 0. -1.
       11   -1    0    0    0    0 -0.00000000000E+00 -0.00000000000E+00 -0.34996269501E-01  0.35000000000E-01  0.51099999109E-03 0.  1.
       22    1    1    2    0    0  0.85185713140E-02 -0.23903624051E-02 -0.25745306836E-01  0.27223165020E-01  0.00000000000E+00 0.  1.
       22    1    1    2    0    0 -0.35689471277E-02 -0.60557998017E-03 -0.78724474814E-02  0.86648450685E-02  0.00000000000E+00 0. -1.
       22    1    1    2    0    0 -0.49496241863E-02  0.29959423852E-02  0.33617754317E-01  0.34111989911E-01  0.00000000000E+00 0. -1.
</event>
<event>
 5   0  0.4143600E+04  0.9118800E+02  0.7546771E-02  0.1180000E+00
      -11   -1    0    0    0    0  0.00000000000E+00  0.00000000000E+00  0.34996269501E-01  0.35000000000E-01  0.51099999109E-03 0. -1.
       11   -1    0    0    0    0 -0.00000000000E+00 -0.00000000000E+00 -0.34996269501E-01  0.35000000000E-01  0.51099999109E-03 0.  1.
       22    1    1    2    0    0  0.13979625231E-01 -0.21990013788E-01  0.23206773314E-01  0.34893336838E-01  0.00000000000E+00 0. -1.
       22    1    1    2    0    0  0.94116579184E-04  0.35488737096E-03 -0.97560183328E-03  0.10424019923E-02  0.00000000000E+00 0. -1.
       22    1    1    2    0    0 -0.14073741810E-01  0.21635126417E-01 -0.22231171481E-01  0.34064261170E-01  0.00000000000E+00 0.  1.
</event>
<event>
 5   0  0.4143600E+04  0.9118800E+02  0.7546771E-02  0.1180000E+00
      -11   -1    0    0    0    0  0.00000000000E+00  0.00000000000E+00  0.34996269501E-01  0.35000000000E-01  0.51099999109E-03 0. -1.
       11   -1    0    0    0    0 -0.00000000000E+00 -0.00000000000E+00 -0.34996269501E-01  0.35000000000E-01  0.51099999109E-03 0.  1.
       22    1    1    2    0    0  0.29173400127E-03  0.70789093300E-04 -0.71427434979E-03  0.77479524392E-03  0.00000000000E+00 0.  1.
       22    1    1    2    0    0 -0.90635764775E-03 -0.17256647590E-02  0.34919798086E-01  0.34974157622E-01  0.00000000000E+00 0. -1.
       22    1    1    2    0    0  0.61462364648E-03  0.16548756657E-02 -0.34205523736E-01  0.34251047134E-01  0.00000000000E+00 0.  1.
</event>
<event>
 5   0  0.4143600E+04  0.9118800E+02  0.7546771E-02  0.1180000E+00
      -11   -1    0    0    0    0  0.00000000000E+00  0.00000000000E+00  0.34996269501E-01  0.35000000000E-01  0.51099999109E-03 0.  1.
       11   -1    0    0    0    0 -0.00000000000E+00 -0.00000000000E+00 -0.34996269501E-01  0.35000000000E-01  0.51099999109E-03 0. -1.
       22    1    1    2    0    0  0.15701708045E-02 -0.20925958050E-02 -0.33491179912E-01  0.33593206538E-01  0.00000000000E+00 0. -1.
       22    1    1    2    0    0 -0.67603640754E-03 -0.22334476169E-04 -0.13394548864E-02  0.15005543795E-02  0.00000000000E+00 0.  1.
       22    1    1    2    0    0 -0.89413439694E-03  0.21149302812E-02  0.34830634799E-01  0.34906239083E-01  0.00000000000E+00 0.  1.
</event>
<event>
 5   0  0.4143600E+04  0.9118800E+02  0.7546771E-02  0.1180000E+00
      -11   -1    0    0    0    0  0.00000000000E+00  0.00000000000E+00  0.34996269501E-01  0.35000000000E-01  0.51099999109E-03 0.  1.
       11   -1    0    0    0    0 -0.00000000000E+00 -0.00000000000E+00 -0.34996269501E-01  0.35000000000E-01  0.51099999109E-03 0. -1.
       22    1    1    2    0    0 -0.14838456713E-02 -0.99075388751E-02  0.66342260619E-04  0.10018259621E-01  0.00000000000E+00 0.  1.
       22    1    1    2    0    0  0.25341629181E-02  0.15870835017E-01 -0.27519408684E-01  0.31868844349E-01  0.00000000000E+00 0. -1.
       22    1    1    2    0    0 -0.10503172468E-02 -0.59632961417E-02  0.27453066423E-01  0.28112896030E-01  0.00000000000E+00 0.  1.
</event>
<event>
 5   0  0.4143600E+04  0.9118800E+02  0.7546771E-02  0.1180000E+00
      -11   -1    0    0    0    0  0.00000000000E+00  0.00000000000E+00  0.34996269501E-01  0.35000000000E-01  0.51099999109E-03 0.  1.
       11   -1    0    0    0    0 -0.00000000000E+00 -0.00000000000E+00 -0.34996269501E-01  0.35000000000E-01  0.51099999109E-03 0. -1.
       22    1    1    2    0    0  0.12356594635E-01 -0.92223519484E-02 -0.28371273343E-01  0.32290344648E-01  0.00000000000E+00 0. -1.
       22    1    1    2    0    0 -0.15252832228E-01  0.57827026289E-02  0.28896213977E-01  0.33182521346E-01  0.00000000000E+00 0.  1.
       22    1    1    2    0    0  0.28962375934E-02  0.34396493195E-02 -0.52494063424E-03  0.45271340060E-02  0.00000000000E+00 0. -1.
</event>
<event>
 5   0  0.4143600E+04  0.9118800E+02  0.7546771E-02  0.1180000E+00
      -11   -1    0    0    0    0  0.00000000000E+00  0.00000000000E+00  0.34996269501E-01  0.35000000000E-01  0.51099999109E-03 0.  1.
       11   -1    0    0    0    0 -0.00000000000E+00 -0.00000000000E+00 -0.34996269501E-01  0.35000000000E-01  0.51099999109E-03 0. -1.
       22    1    1    2    0    0 -0.42190521324E-02  0.52260186311E-02 -0.31716383564E-01  0.32419757217E-01  0.00000000000E+00 0. -1.
       22    1    1    2    0    0 -0.87050367133E-03  0.31604785812E-03 -0.24374006915E-02  0.26074096382E-02  0.00000000000E+00 0. -1.
       22    1    1    2    0    0  0.50895558038E-02 -0.55420664892E-02  0.34153784255E-01  0.34972833145E-01  0.00000000000E+00 0.  1.
</event>
<event>
 5   0  0.4143600E+04  0.9118800E+02  0.7546771E-02  0.1180000E+00
      -11   -1    0    0    0    0  0.00000000000E+00  0.00000000000E+00  0.34996269501E-01  0.35000000000E-01  0.51099999109E-03 0.  1.
       11   -1    0    0    0    0 -0.00000000000E+00 -0.00000000000E+00 -0.34996269501E-01  0.35000000000E-01  0.51099999109E-03 0.  1.
       22    1    1    2    0    0 -0.00000000000E+00 -0.00000000000E+00  0.34898925377E-01  0.34895808835E-01  0.00000000000E+00 0.  1.
       22    1    1    2    0    0 -0.58445313091E-03 -0.87960967643E-03 -0.32024380134E-01  0.32041788677E-01  0.00000000000E+00 0.  1.
       22    1    1    2    0    0  0.58445313091E-03  0.87960967643E-03 -0.28745452432E-02  0.30624024883E-02  0.00000000000E+00 0. -1.
</event>
<event>
 5   0  0.4143600E+04  0.9118800E+02  0.7546771E-02  0.1180000E+00
      -11   -1    0    0    0    0  0.00000000000E+00  0.00000000000E+00  0.34996269501E-01  0.35000000000E-01  0.51099999109E-03 0. -1.
       11   -1    0    0    0    0 -0.00000000000E+00 -0.00000000000E+00 -0.34996269501E-01  0.35000000000E-01  0.51099999109E-03 0.  1.
       22    1    1    2    0    0  0.12648065593E-01  0.74197763359E-02 -0.31736045159E-01  0.34960022976E-01  0.00000000000E+00 0.  1.
       22    1    1    2    0    0  0.28202472835E-06 -0.43756106240E-04  0.93330085501E-03  0.93432604712E-03  0.00000000000E+00 0. -1.
       22    1    1    2    0    0 -0.12648347618E-01 -0.73760202296E-02  0.30802744304E-01  0.34105650977E-01  0.00000000000E+00 0. -1.
</event>
<event>
 5   0  0.4143600E+04  0.9118800E+02  0.7546771E-02  0.1180000E+00
      -11   -1    0    0    0    0  0.00000000000E+00  0.00000000000E+00  0.34996269501E-01  0.35000000000E-01  0.51099999109E-03 0. -1.
       11   -1    0    0    0    0 -0.00000000000E+00 -0.00000000000E+00 -0.34996269501E-01  0.35000000000E-01  0.51099999109E-03 0.  1.
       22    1    1    2    0    0  0.96611578904E-02  0.77992270822E-02  0.31242036189E-01  0.33618904505E-01  0.00000000000E+00 0. -1.
       22    1    1    2    0    0 -0.98990134400E-02 -0.91906273049E-02 -0.32031937410E-01  0.34763531345E-01  0.00000000000E+00 0.  1.
       22    1    1    2    0    0  0.23785554966E-03  0.13914002227E-02  0.78990122056E-03  0.16175641503E-02  0.00000000000E+00 0.  1.
</event>
<event>
 5   0  0.4143600E+04  0.9118800E+02  0.7546771E-02  0.1180000E+00
      -11   -1    0    0    0    0  0.00000000000E+00  0.00000000000E+00  0.34996269501E-01  0.35000000000E-01  0.51099999109E-03 0. -1.
       11   -1    0    0    0    0 -0.00000000000E+00 -0.00000000000E+00 -0.34996269501E-01  0.35000000000E-01  0.51099999109E-03 0.  1.
       22    1    1    2    0    0  0.13864861760E-01  0.69148700651E-02 -0.17983380555E-01  0.23737139588E-01  0.00000000000E+00 0.  1.
       22    1    1    2    0    0 -0.16184669907E-01 -0.59234020274E-02  0.29667104648E-01  0.34309872191E-01  0.00000000000E+00 0. -1.
       22    1    1    2    0    0  0.23198081469E-02 -0.99146803762E-03 -0.11683724094E-01  0.11952988221E-01  0.00000000000E+00 0.  1.
</event>
<event>
 5   0  0.4143600E+04  0.9118800E+02  0.7546771E-02  0.1180000E+00
      -11   -1    0    0    0    0  0.00000000000E+00  0.00000000000E+00  0.34996269501E-01  0.35000000000E-01  0.51099999109E-03 0. -1.
       11   -1    0    0    0    0 -0.00000000000E+00 -0.00000000000E+00 -0.34996269501E-01  0.35000000000E-01  0.51099999109E-03 0.  1.
       22    1    1    2    0    0 -0.89273088178E-02  0.11524271983E-01  0.23805125641E-01  0.27913969519E-01  0.00000000000E+00 0. -1.
       22    1    1    2    0    0 -0.10392718949E-02 -0.98871821555E-02  0.53085177104E-02  0.11270173793E-01  0.00000000000E+00 0. -1.
       22    1    1    2    0    0  0.99665807127E-02 -0.16370898280E-02 -0.29113643352E-01  0.30815856688E-01  0.00000000000E+00 0.  1.
</event>
<event>
 5   0  0.4143600E+04  0.9118800E+02  0.7546771E-02  0.1180000E+00
      -11   -1    0    0    0    0  0.00000000000E+00  0.00000000000E+00  0.34996269501E-01  0.35000000000E-01  0.51099999109E-03 0. -1.
       11   -1    0    0    0    0 -0.00000000000E+00 -0.00000000000E+00 -0.34996269501E-01  0.35000000000E-01  0.51099999109E-03 0.  1.
       22    1    1    2    0    0 -0.13594097158E-01  0.12392291688E-01  0.29595925078E-01  0.34846623252E-01  0.00000000000E+00 0. -1.
       22    1    1    2    0    0 -0.17218274651E-03  0.97579151999E-04 -0.11897086918E-02  0.12060577766E-02  0.00000000000E+00 0.  1.
       22    1    1    2    0    0  0.13766279904E-01 -0.12489870840E-01 -0.28406216386E-01  0.33947318972E-01  0.00000000000E+00 0.  1.
</event>
<event>
 5   0  0.4143600E+04  0.9118800E+02  0.7546771E-02  0.1180000E+00
      -11   -1    0    0    0    0  0.00000000000E+00  0.00000000000E+00  0.34996269501E-01  0.35000000000E-01  0.51099999109E-03 0. -1.
       11   -1    0    0    0    0 -0.00000000000E+00 -0.00000000000E+00 -0.34996269501E-01  0.35000000000E-01  0.51099999109E-03 0.  1.
       22    1    1    2    0    0  0.10196375367E-02  0.36285005122E-03 -0.29807419573E-02  0.31711422993E-02  0.00000000000E+00 0.  1.
       22    1    1    2    0    0 -0.11296259573E-01  0.16758041345E-01 -0.25192320783E-01  0.32296910943E-01  0.00000000000E+00 0.  1.
       22    1    1    2    0    0  0.10276622037E-01 -0.17120891396E-01  0.28173062740E-01  0.34531946757E-01  0.00000000000E+00 0. -1.
</event>
<event>
 5   0  0.4143600E+04  0.9118800E+02  0.7546771E-02  0.1180000E+00
      -11   -1    0    0    0    0  0.00000000000E+00  0.00000000000E+00  0.34996269501E-01  0.35000000000E-01  0.51099999109E-03 0.  1.
       11   -1    0    0    0    0 -0.00000000000E+00 -0.00000000000E+00 -0.34996269501E-01  0.35000000000E-01  0.51099999109E-03 0. -1.
       22    1    1    2    0    0  0.67702105422E-02  0.11333089320E-01 -0.32359432294E-01  0.34948641214E-01  0.00000000000E+00 0. -1.
       22    1    1    2    0    0 -0.67942546343E-02 -0.11461100307E-01  0.31828189681E-01  0.34504381963E-01  0.00000000000E+00 0.  1.
       22    1    1    2    0    0  0.24044092052E-04  0.12801098681E-03  0.53124261321E-03  0.54697682327E-03  0.00000000000E+00 0.  1.
</event>
<event>
 5   0  0.4143600E+04  0.9118800E+02  0.7546771E-02  0.1180000E+00
      -11   -1    0    0    0    0  0.00000000000E+00  0.00000000000E+00  0.34996269501E-01  0.35000000000E-01  0.51099999109E-03 0. -1.
       11   -1    0    0    0    0 -0.00000000000E+00 -0.00000000000E+00 -0.34996269501E-01  0.35000000000E-01  0.51099999109E-03 0.  1.
       22    1    1    2    0    0  0.22463722271E-01  0.32247061514E-02  0.23321171551E-01  0.32540660573E-01  0.00000000000E+00 0. -1.
       22    1    1    2    0    0 -0.22996139389E-01 -0.42541910110E-02 -0.25739853917E-01  0.34777300752E-01  0.00000000000E+00 0.  1.
       22    1    1    2    0    0  0.53241711828E-03  0.10294848596E-02  0.24186823658E-02  0.26820386743E-02  0.00000000000E+00 0.  1.
</event>
<event>
 5   0  0.4143600E+04  0.9118800E+02  0.7546771E-02  0.1180000E+00
      -11   -1    0    0    0    0  0.00000000000E+00  0.00000000000E+00  0.34996269501E-01  0.35000000000E-01  0.51099999109E-03 0. -1.
       11   -1    0    0    0    0 -0.00000000000E+00 -0.00000000000E+00 -0.34996269501E-01  0.35000000000E-01  0.51099999109E-03 0.  1.
       22    1    1    2    0    0  0.27912826249E-02  0.25172007195E-02  0.72764933198E-02  0.81899275447E-02  0.00000000000E+00 0.  1.
       22    1    1    2    0    0 -0.80208069049E-02  0.20940685701E-01 -0.23756934003E-01  0.32668602269E-01  0.00000000000E+00 0.  1.
       22    1    1    2    0    0  0.52295242800E-02 -0.23457886420E-01  0.16480440683E-01  0.29141470186E-01  0.00000000000E+00 0. -1.
</event>
<event>
 5   0  0.4143600E+04  0.9118800E+02  0.7546771E-02  0.1180000E+00
      -11   -1    0    0    0    0  0.00000000000E+00  0.00000000000E+00  0.34996269501E-01  0.35000000000E-01  0.51099999109E-03 0. -1.
       11   -1    0    0    0    0 -0.00000000000E+00 -0.00000000000E+00 -0.34996269501E-01  0.35000000000E-01  0.51099999109E-03 0.  1.
       22    1    1    2    0    0 -0.13667123298E-01 -0.14644646285E-01 -0.26451638839E-01  0.33180493084E-01  0.00000000000E+00 0.  1.
       22    1    1    2    0    0  0.13571595121E-01  0.14432169641E-01  0.28526878287E-01  0.34731232335E-01  0.00000000000E+00 0. -1.
       22    1    1    2    0    0  0.95528176671E-04  0.21247664430E-03 -0.20752394484E-02  0.20882745808E-02  0.00000000000E+00 0. -1.
</event>
<event>
 5   0  0.4143600E+04  0.9118800E+02  0.7546771E-02  0.1180000E+00
      -11   -1    0    0    0    0  0.00000000000E+00  0.00000000000E+00  0.34996269501E-01  0.35000000000E-01  0.51099999109E-03 0.  1.
       11   -1    0    0    0    0 -0.00000000000E+00 -0.00000000000E+00 -0.34996269501E-01  0.35000000000E-01  0.51099999109E-03 0. -1.
       22    1    1    2    0    0  0.73190311348E-02  0.13144365739E-01  0.22079715438E-01  0.26718091272E-01  0.00000000000E+00 0.  1.
       22    1    1    2    0    0 -0.15347472379E-02  0.11006467861E-02  0.86857506815E-02  0.88887084176E-02  0.00000000000E+00 0.  1.
       22    1    1    2    0    0 -0.57842838969E-02 -0.14245012525E-01 -0.30765466119E-01  0.34393200310E-01  0.00000000000E+00 0. -1.
</event>
<event>
 5   0  0.4143600E+04  0.9118800E+02  0.7546771E-02  0.1180000E+00
      -11   -1    0    0    0    0  0.00000000000E+00  0.00000000000E+00  0.34996269501E-01  0.35000000000E-01  0.51099999109E-03 0. -1.
       11   -1    0    0    0    0 -0.00000000000E+00 -0.00000000000E+00 -0.34996269501E-01  0.35000000000E-01  0.51099999109E-03 0.  1.
       22    1    1    2    0    0 -0.51799414628E-04 -0.75751142346E-05  0.89369235067E-03  0.89522431790E-03  0.00000000000E+00 0.  1.
       22    1    1    2    0    0 -0.11959220984E-01 -0.65229018737E-03 -0.32846871733E-01  0.34962343052E-01  0.00000000000E+00 0.  1.
       22    1    1    2    0    0  0.12011020399E-01  0.65986530161E-03  0.31953179383E-01  0.34142432630E-01  0.00000000000E+00 0. -1.
</event>
<event>
 5   0  0.4143600E+04  0.9118800E+02  0.7546771E-02  0.1180000E+00
      -11   -1    0    0    0    0  0.00000000000E+00  0.00000000000E+00  0.34996269501E-01  0.35000000000E-01  0.51099999109E-03 0.  1.
       11   -1    0    0    0    0 -0.00000000000E+00 -0.00000000000E+00 -0.34996269501E-01  0.35000000000E-01  0.51099999109E-03 0. -1.
       22    1    1    2    0    0  0.17988871889E-01 -0.17227441644E-02  0.29228027168E-01  0.34363424326E-01  0.00000000000E+00 0.  1.
       22    1    1    2    0    0 -0.34111138959E-04  0.85650255452E-05  0.69617376648E-03  0.69706157734E-03  0.00000000000E+00 0. -1.
       22    1    1    2    0    0 -0.17954760750E-01  0.17141791389E-02 -0.29924200934E-01  0.34939514096E-01  0.00000000000E+00 0. -1.
</event>
<event>
 5   0  0.4143600E+04  0.9118800E+02  0.7546771E-02  0.1180000E+00
      -11   -1    0    0    0    0  0.00000000000E+00  0.00000000000E+00  0.34996269501E-01  0.35000000000E-01  0.51099999109E-03 0.  1.
       11   -1    0    0    0    0 -0.00000000000E+00 -0.00000000000E+00 -0.34996269501E-01  0.35000000000E-01  0.51099999109E-03 0. -1.
       22    1    1    2    0    0 -0.47193261491E-02  0.19872052518E-01 -0.27935368405E-01  0.34605712224E-01  0.00000000000E+00 0. -1.
       22    1    1    2    0    0  0.50104424489E-02 -0.19451765793E-01  0.28343948406E-01  0.34739820628E-01  0.00000000000E+00 0.  1.
       22    1    1    2    0    0 -0.29111629987E-03 -0.42028672500E-03 -0.40858000120E-03  0.65446714864E-03  0.00000000000E+00 0. -1.
</event>
<event>
 5   0  0.4143600E+04  0.9118800E+02  0.7546771E-02  0.1180000E+00
      -11   -1    0    0    0    0  0.00000000000E+00  0.00000000000E+00  0.34996269501E-01  0.35000000000E-01  0.51099999109E-03 0. -1.
       11   -1    0    0    0    0 -0.00000000000E+00 -0.00000000000E+00 -0.34996269501E-01  0.35000000000E-01  0.51099999109E-03 0.  1.
       22    1    1    2    0    0  0.98097079502E-03 -0.11412623782E-01 -0.30048360244E-01  0.32157646659E-01  0.00000000000E+00 0.  1.
       22    1    1    2    0    0 -0.49898859349E-03  0.18541761374E-02 -0.29301165755E-02  0.35032187930E-02  0.00000000000E+00 0.  1.
       22    1    1    2    0    0 -0.48198220153E-03  0.95584476446E-02  0.32978476819E-01  0.34339134548E-01  0.00000000000E+00 0. -1.
</event>
<event>
 5   0  0.4143600E+04  0.9118800E+02  0.7546771E-02  0.1180000E+00
      -11   -1    0    0    0    0  0.00000000000E+00  0.00000000000E+00  0.34996269501E-01  0.35000000000E-01  0.51099999109E-03 0. -1.
       11   -1    0    0    0    0 -0.00000000000E+00 -0.00000000000E+00 -0.34996269501E-01  0.35000000000E-01  0.51099999109E-03 0.  1.
       22    1    1    2    0    0 -0.19958948720E-01 -0.25670250598E-01  0.58102017145E-02  0.33031497752E-01  0.00000000000E+00 0. -1.
       22    1    1    2    0    0 -0.16182010069E-02  0.32953982671E-03 -0.31787612346E-02  0.35821353942E-02  0.00000000000E+00 0. -1.
       22    1    1    2    0    0  0.21577149727E-01  0.25340710771E-01 -0.26314404799E-02  0.33386366854E-01  0.00000000000E+00 0.  1.
</event>
<event>
 5   0  0.4143600E+04  0.9118800E+02  0.7546771E-02  0.1180000E+00
      -11   -1    0    0    0    0  0.00000000000E+00  0.00000000000E+00  0.34996269501E-01  0.35000000000E-01  0.51099999109E-03 0. -1.
       11   -1    0    0    0    0 -0.00000000000E+00 -0.00000000000E+00 -0.34996269501E-01  0.35000000000E-01  0.51099999109E-03 0.  1.
       22    1    1    2    0    0  0.75238662657E-02  0.28289508943E-02 -0.16357448979E-01  0.18225741792E-01  0.00000000000E+00 0.  1.
       22    1    1    2    0    0 -0.87355904293E-02 -0.67078632630E-02  0.32923581623E-01  0.34716972745E-01  0.00000000000E+00 0. -1.
       22    1    1    2    0    0  0.12117241636E-02  0.38789123686E-02 -0.16566132644E-01  0.17057285463E-01  0.00000000000E+00 0.  1.
</event>
<event>
 5   0  0.4143600E+04  0.9118800E+02  0.7546771E-02  0.1180000E+00
      -11   -1    0    0    0    0  0.00000000000E+00  0.00000000000E+00  0.34996269501E-01  0.35000000000E-01  0.51099999109E-03 0.  1.
       11   -1    0    0    0    0 -0.00000000000E+00 -0.00000000000E+00 -0.34996269501E-01  0.35000000000E-01  0.51099999109E-03 0. -1.
       22    1    1    2    0    0  0.13915436136E-01  0.44458720043E-02  0.30455987877E-01  0.33778282051E-01  0.00000000000E+00 0.  1.
       22    1    1    2    0    0 -0.14243213118E-01 -0.36171308412E-02 -0.15947320020E-01  0.21685704306E-01  0.00000000000E+00 0. -1.
       22    1    1    2    0    0  0.32777698120E-03 -0.82874116311E-03 -0.14508667856E-01  0.14536013643E-01  0.00000000000E+00 0. -1.
</event>
<event>
 5   0  0.4143600E+04  0.9118800E+02  0.7546771E-02  0.1180000E+00
      -11   -1    0    0    0    0  0.00000000000E+00  0.00000000000E+00  0.34996269501E-01  0.35000000000E-01  0.51099999109E-03 0.  1.
       11   -1    0    0    0    0 -0.00000000000E+00 -0.00000000000E+00 -0.34996269501E-01  0.35000000000E-01  0.51099999109E-03 0.  1.
       22    1    1    2    0    0 -0.33825698675E-03 -0.43538092944E-04 -0.34698264495E-01  0.34699940523E-01  0.00000000000E+00 0.  1.
       22    1    1    2    0    0 -0.16566177532E-04  0.13965787279E-03 -0.28344568727E-03  0.31641778917E-03  0.00000000000E+00 0.  1.
       22    1    1    2    0    0  0.35482316428E-03 -0.96119779846E-04  0.34981710182E-01  0.34983641688E-01  0.00000000000E+00 0.  1.
</event>
<event>
 5   0  0.4143600E+04  0.9118800E+02  0.7546771E-02  0.1180000E+00
      -11   -1    0    0    0    0  0.00000000000E+00  0.00000000000E+00  0.34996269501E-01  0.35000000000E-01  0.51099999109E-03 0.  1.
       11   -1    0    0    0    0 -0.00000000000E+00 -0.00000000000E+00 -0.34996269501E-01  0.35000000000E-01  0.51099999109E-03 0. -1.
       22    1    1    2    0    0  0.31998578673E-02 -0.85283176509E-02 -0.23498112371E-01  0.25201836785E-01  0.00000000000E+00 0. -1.
       22    1    1    2    0    0  0.75791431743E-03  0.86645961545E-02 -0.87325892801E-02  0.12325087268E-01  0.00000000000E+00 0. -1.
       22    1    1    2    0    0 -0.39577721848E-02 -0.13627850356E-03  0.32230701651E-01  0.32473075947E-01  0.00000000000E+00 0.  1.
</event>
<event>
 5   0  0.4143600E+04  0.9118800E+02  0.7546771E-02  0.1180000E+00
      -11   -1    0    0    0    0  0.00000000000E+00  0.00000000000E+00  0.34996269501E-01  0.35000000000E-01  0.51099999109E-03 0. -1.
       11   -1    0    0    0    0 -0.00000000000E+00 -0.00000000000E+00 -0.34996269501E-01  0.35000000000E-01  0.51099999109E-03 0.  1.
       22    1    1    2    0    0  0.28840573644E-02 -0.13401772013E-02  0.34317396020E-01  0.34464438649E-01  0.00000000000E+00 0. -1.
       22    1    1    2    0    0 -0.48008784191E-02 -0.85698284582E-04 -0.99148471311E-02  0.11016350186E-01  0.00000000000E+00 0.  1.
       22    1    1    2    0    0  0.19168210547E-02  0.14258754858E-02 -0.24402548889E-01  0.24519211165E-01  0.00000000000E+00 0.  1.
</event>
<event>
 5   0  0.4143600E+04  0.9118800E+02  0.7546771E-02  0.1180000E+00
      -11   -1    0    0    0    0  0.00000000000E+00  0.00000000000E+00  0.34996269501E-01  0.35000000000E-01  0.51099999109E-03 0.  1.
       11   -1    0    0    0    0 -0.00000000000E+00 -0.00000000000E+00 -0.34996269501E-01  0.35000000000E-01  0.51099999109E-03 0.  1.
       22    1    1    2    0    0 -0.15469007593E-03  0.17960783555E-04 -0.43295323336E-03  0.46010880410E-03  0.00000000000E+00 0.  1.
       22    1    1    2    0    0  0.15469007593E-03 -0.17960783555E-04 -0.34555094686E-01  0.34555445596E-01  0.00000000000E+00 0.  1.
       22    1    1    2    0    0 -0.00000000000E+00  0.00000000000E+00  0.34988047919E-01  0.34984445600E-01  0.00000000000E+00 0.  1.
</event>
<event>
 5   0  0.4143600E+04  0.9118800E+02  0.7546771E-02  0.1180000E+00
      -11   -1    0    0    0    0  0.00000000000E+00  0.00000000000E+00  0.34996269501E-01  0.35000000000E-01  0.51099999109E-03 0. -1.
       11   -1    0    0    0    0 -0.00000000000E+00 -0.00000000000E+00 -0.34996269501E-01  0.35000000000E-01  0.51099999109E-03 0.  1.
       22    1    1    2    0    0  0.45500936101E-03 -0.12048473008E-03 -0.61149149736E-03  0.77166828374E-03  0.00000000000E+00 0. -1.
       22    1    1    2    0    0 -0.89672912668E-03  0.26937256545E-02  0.34812367880E-01  0.34927943518E-01  0.00000000000E+00 0. -1.
       22    1    1    2    0    0  0.44171976566E-03 -0.25732409244E-02 -0.34200876382E-01  0.34300388198E-01  0.00000000000E+00 0.  1.
</event>
<event>
 5   0  0.4143600E+04  0.9118800E+02  0.7546771E-02  0.1180000E+00
      -11   -1    0    0    0    0  0.00000000000E+00  0.00000000000E+00  0.34996269501E-01  0.35000000000E-01  0.51099999109E-03 0.  1.
       11   -1    0    0    0    0 -0.00000000000E+00 -0.00000000000E+00 -0.34996269501E-01  0.35000000000E-01  0.51099999109E-03 0. -1.
       22    1    1    2    0    0  0.19802871681E-02  0.25985757175E-02 -0.35103852582E-02  0.47955122447E-02  0.00000000000E+00 0.  1.
       22    1    1    2    0    0  0.55821836620E-03  0.98476041721E-03  0.34191732944E-01  0.34210465687E-01  0.00000000000E+00 0.  1.
       22    1    1    2    0    0 -0.25385055343E-02 -0.35833361347E-02 -0.30681347685E-01  0.30994022069E-01  0.00000000000E+00 0. -1.
</event>
<event>
 5   0  0.4143600E+04  0.9118800E+02  0.7546771E-02  0.1180000E+00
      -11   -1    0    0    0    0  0.00000000000E+00  0.00000000000E+00  0.34996269501E-01  0.35000000000E-01  0.51099999109E-03 0.  1.
       11   -1    0    0    0    0 -0.00000000000E+00 -0.00000000000E+00 -0.34996269501E-01  0.35000000000E-01  0.51099999109E-03 0. -1.
       22    1    1    2    0    0 -0.68872200428E-04 -0.53085496945E-03 -0.35625660513E-02  0.36025584309E-02  0.00000000000E+00 0. -1.
       22    1    1    2    0    0  0.10774391651E-01  0.37821941761E-02 -0.29425605468E-01  0.31563567057E-01  0.00000000000E+00 0. -1.
       22    1    1    2    0    0 -0.10705519451E-01 -0.32513392067E-02  0.32988171519E-01  0.34833874512E-01  0.00000000000E+00 0.  1.
</event>
<event>
 5   0  0.4143600E+04  0.9118800E+02  0.7546771E-02  0.1180000E+00
      -11   -1    0    0    0    0  0.00000000000E+00  0.00000000000E+00  0.34996269501E-01  0.35000000000E-01  0.51099999109E-03 0.  1.
       11   -1    0    0    0    0 -0.00000000000E+00 -0.00000000000E+00 -0.34996269501E-01  0.35000000000E-01  0.51099999109E-03 0. -1.
       22    1    1    2    0    0  0.67705598026E-02 -0.10765188794E-01  0.26179363368E-01  0.29104790605E-01  0.00000000000E+00 0.  1.
       22    1    1    2    0    0 -0.63810552573E-03  0.43953229892E-03  0.62581462054E-02  0.63059306397E-02  0.00000000000E+00 0. -1.
       22    1    1    2    0    0 -0.61324542769E-02  0.10325656495E-01 -0.32437509573E-01  0.34589278755E-01  0.00000000000E+00 0. -1.
</event>
<event>
 5   0  0.4143600E+04  0.9118800E+02  0.7546771E-02  0.1180000E+00
      -11   -1    0    0    0    0  0.00000000000E+00  0.00000000000E+00  0.34996269501E-01  0.35000000000E-01  0.51099999109E-03 0. -1.
       11   -1    0    0    0    0 -0.00000000000E+00 -0.00000000000E+00 -0.34996269501E-01  0.35000000000E-01  0.51099999109E-03 0.  1.
       22    1    1    2    0    0 -0.14028951256E-01  0.44952018193E-02  0.31681007125E-01  0.34938582186E-01  0.00000000000E+00 0. -1.
       22    1    1    2    0    0  0.14179936991E-01 -0.44363904784E-02 -0.31300672544E-01  0.34648005358E-01  0.00000000000E+00 0.  1.
       22    1    1    2    0    0 -0.15098573556E-03 -0.58811340882E-04 -0.38033458051E-03  0.41341245663E-03  0.00000000000E+00 0.  1.
</event>
<event>
 5   0  0.4143600E+04  0.9118800E+02  0.7546771E-02  0.1180000E+00
      -11   -1    0    0    0    0  0.00000000000E+00  0.00000000000E+00  0.34996269501E-01  0.35000000000E-01  0.51099999109E-03 0. -1.
       11   -1    0    0    0    0 -0.00000000000E+00 -0.00000000000E+00 -0.34996269501E-01  0.35000000000E-01  0.51099999109E-03 0.  1.
       22    1    1    2    0    0 -0.36998419091E-03 -0.11988072309E-01  0.44942556687E-02  0.12808165364E-01  0.00000000000E+00 0. -1.
       22    1    1    2    0    0 -0.65236354645E-02 -0.59741973313E-02  0.22423435756E-01  0.24105172154E-01  0.00000000000E+00 0. -1.
       22    1    1    2    0    0  0.68936196554E-02  0.17962269640E-01 -0.26917691425E-01  0.33086662482E-01  0.00000000000E+00 0.  1.
</event>
<event>
 5   0  0.4143600E+04  0.9118800E+02  0.7546771E-02  0.1180000E+00
      -11   -1    0    0    0    0  0.00000000000E+00  0.00000000000E+00  0.34996269501E-01  0.35000000000E-01  0.51099999109E-03 0. -1.
       11   -1    0    0    0    0 -0.00000000000E+00 -0.00000000000E+00 -0.34996269501E-01  0.35000000000E-01  0.51099999109E-03 0.  1.
       22    1    1    2    0    0  0.16761346216E-01 -0.17128928057E-01  0.21700661085E-01  0.32330505639E-01  0.00000000000E+00 0. -1.
       22    1    1    2    0    0 -0.16714516676E-01  0.17016080928E-01 -0.24892406573E-01  0.34475411279E-01  0.00000000000E+00 0.  1.
       22    1    1    2    0    0 -0.46829539831E-04  0.11284712884E-03  0.31917454874E-02  0.31940830823E-02  0.00000000000E+00 0.  1.
</event>
<event>
 5   0  0.4143600E+04  0.9118800E+02  0.7546771E-02  0.1180000E+00
      -11   -1    0    0    0    0  0.00000000000E+00  0.00000000000E+00  0.34996269501E-01  0.35000000000E-01  0.51099999109E-03 0.  1.
       11   -1    0    0    0    0 -0.00000000000E+00 -0.00000000000E+00 -0.34996269501E-01  0.35000000000E-01  0.51099999109E-03 0. -1.
       22    1    1    2    0    0 -0.24064642602E-03 -0.31233489090E-03  0.27014935324E-01  0.27017812538E-01  0.00000000000E+00 0.  1.
       22    1    1    2    0    0  0.36516390502E-02 -0.10131724656E-01 -0.29767385905E-01  0.31655703686E-01  0.00000000000E+00 0.  1.
       22    1    1    2    0    0 -0.34109926242E-02  0.10444059547E-01  0.27524505805E-02  0.11326483775E-01  0.00000000000E+00 0. -1.
</event>
<event>
 5   0  0.4143600E+04  0.9118800E+02  0.7546771E-02  0.1180000E+00
      -11   -1    0    0    0    0  0.00000000000E+00  0.00000000000E+00  0.34996269501E-01  0.35000000000E-01  0.51099999109E-03 0.  1.
       11   -1    0    0    0    0 -0.00000000000E+00 -0.00000000000E+00 -0.34996269501E-01  0.35000000000E-01  0.51099999109E-03 0. -1.
       22    1    1    2    0    0 -0.95504065661E-03  0.16122167896E-03 -0.53697363863E-02  0.54563874444E-02  0.00000000000E+00 0. -1.
       22    1    1    2    0    0  0.90698195612E-02  0.63677203584E-02 -0.27720183200E-01  0.29853275299E-01  0.00000000000E+00 0. -1.
       22    1    1    2    0    0 -0.81147789046E-02 -0.65289420373E-02  0.33089919586E-01  0.34690337257E-01  0.00000000000E+00 0.  1.
</event>
<event>
 5   0  0.4143600E+04  0.9118800E+02  0.7546771E-02  0.1180000E+00
      -11   -1    0    0    0    0  0.00000000000E+00  0.00000000000E+00  0.34996269501E-01  0.35000000000E-01  0.51099999109E-03 0. -1.
       11   -1    0    0    0    0 -0.00000000000E+00 -0.00000000000E+00 -0.34996269501E-01  0.35000000000E-01  0.51099999109E-03 0. -1.
       22    1    1    2    0    0  0.00000000000E+00 -0.00000000000E+00  0.34983620610E-01  0.34979993799E-01  0.00000000000E+00 0. -1.
       22    1    1    2    0    0 -0.49936871025E-04  0.13618937865E-03 -0.27353004908E-03  0.30961254124E-03  0.00000000000E+00 0.  1.
       22    1    1    2    0    0  0.49936871025E-04 -0.13618937865E-03 -0.34710090561E-01  0.34710393660E-01  0.00000000000E+00 0. -1.
</event>
<event>
 5   0  0.4143600E+04  0.9118800E+02  0.7546771E-02  0.1180000E+00
      -11   -1    0    0    0    0  0.00000000000E+00  0.00000000000E+00  0.34996269501E-01  0.35000000000E-01  0.51099999109E-03 0.  1.
       11   -1    0    0    0    0 -0.00000000000E+00 -0.00000000000E+00 -0.34996269501E-01  0.35000000000E-01  0.51099999109E-03 0. -1.
       22    1    1    2    0    0  0.92135446191E-02 -0.79982527056E-02 -0.32392376741E-01  0.34613978704E-01  0.00000000000E+00 0. -1.
       22    1    1    2    0    0 -0.77995690396E-02  0.87041364311E-02  0.22363020358E-01  0.25232913977E-01  0.00000000000E+00 0.  1.
       22    1    1    2    0    0 -0.14139755795E-02 -0.70588372550E-03  0.10029356383E-01  0.10153107319E-01  0.00000000000E+00 0.  1.
</event>
<event>
 5   0  0.4143600E+04  0.9118800E+02  0.7546771E-02  0.1180000E+00
      -11   -1    0    0    0    0  0.00000000000E+00  0.00000000000E+00  0.34996269501E-01  0.35000000000E-01  0.51099999109E-03 0. -1.
       11   -1    0    0    0    0 -0.00000000000E+00 -0.00000000000E+00 -0.34996269501E-01  0.35000000000E-01  0.51099999109E-03 0.  1.
       22    1    1    2    0    0 -0.15191220596E-01  0.68868001337E-03  0.31207172585E-01  0.34715055583E-01  0.00000000000E+00 0. -1.
       22    1    1    2    0    0  0.18076656937E-03 -0.11171676913E-02 -0.45553276903E-02  0.46937991616E-02  0.00000000000E+00 0.  1.
       22    1    1    2    0    0  0.15010454026E-01  0.42848767797E-03 -0.26651844895E-01  0.30591145256E-01  0.00000000000E+00 0.  1.
</event>
<event>
 5   0  0.4143600E+04  0.9118800E+02  0.7546771E-02  0.1180000E+00
      -11   -1    0    0    0    0  0.00000000000E+00  0.00000000000E+00  0.34996269501E-01  0.35000000000E-01  0.51099999109E-03 0. -1.
       11   -1    0    0    0    0 -0.00000000000E+00 -0.00000000000E+00 -0.34996269501E-01  0.35000000000E-01  0.51099999109E-03 0.  1.
       22    1    1    2    0    0 -0.99483492022E-02 -0.90724737242E-02  0.27972939309E-01  0.31044560955E-01  0.00000000000E+00 0. -1.
       22    1    1    2    0    0  0.10059538761E-01  0.89172307281E-02 -0.32111863931E-01  0.34812111815E-01  0.00000000000E+00 0.  1.
       22    1    1    2    0    0 -0.11118955860E-03  0.15524299608E-03  0.41389246220E-02  0.41433272297E-02  0.00000000000E+00 0. -1.
</event>
<event>
 5   0  0.4143600E+04  0.9118800E+02  0.7546771E-02  0.1180000E+00
      -11   -1    0    0    0    0  0.00000000000E+00  0.00000000000E+00  0.34996269501E-01  0.35000000000E-01  0.51099999109E-03 0.  1.
       11   -1    0    0    0    0 -0.00000000000E+00 -0.00000000000E+00 -0.34996269501E-01  0.35000000000E-01  0.51099999109E-03 0. -1.
       22    1    1    2    0    0  0.10923168270E-01 -0.16429680578E-01 -0.28814568035E-01  0.34921760265E-01  0.00000000000E+00 0. -1.
       22    1    1    2    0    0 -0.10760815275E-01  0.16499128061E-01  0.27937828518E-01  0.34183894373E-01  0.00000000000E+00 0.  1.
       22    1    1    2    0    0 -0.16235299462E-03 -0.69447482939E-04  0.87673951653E-03  0.89434536259E-03  0.00000000000E+00 0.  1.
</event>
<event>
 5   0  0.4143600E+04  0.9118800E+02  0.7546771E-02  0.1180000E+00
      -11   -1    0    0    0    0  0.00000000000E+00  0.00000000000E+00  0.34996269501E-01  0.35000000000E-01  0.51099999109E-03 0.  1.
       11   -1    0    0    0    0 -0.00000000000E+00 -0.00000000000E+00 -0.34996269501E-01  0.35000000000E-01  0.51099999109E-03 0. -1.
       22    1    1    2    0    0 -0.57443488787E-02  0.57975371314E-02  0.33485347674E-01  0.34465598641E-01  0.00000000000E+00 0.  1.
       22    1    1    2    0    0 -0.14675483904E-02  0.77860202226E-03 -0.21672048792E-02  0.27306952184E-02  0.00000000000E+00 0.  1.
       22    1    1    2    0    0  0.72118972691E-02 -0.65761391536E-02 -0.31318142795E-01  0.32803706140E-01  0.00000000000E+00 0. -1.
</event>
<event>
 5   0  0.4143600E+04  0.9118800E+02  0.7546771E-02  0.1180000E+00
      -11   -1    0    0    0    0  0.00000000000E+00  0.00000000000E+00  0.34996269501E-01  0.35000000000E-01  0.51099999109E-03 0. -1.
       11   -1    0    0    0    0 -0.00000000000E+00 -0.00000000000E+00 -0.34996269501E-01  0.35000000000E-01  0.51099999109E-03 0.  1.
       22    1    1    2    0    0 -0.57798367786E-02  0.67619786625E-03 -0.14776759460E-01  0.15881321636E-01  0.00000000000E+00 0.  1.
       22    1    1    2    0    0  0.49416634008E-02  0.21008496264E-02  0.34129709433E-01  0.34549539394E-01  0.00000000000E+00 0. -1.
       22    1    1    2    0    0  0.83817337772E-03 -0.27770474926E-02 -0.19352949973E-01  0.19569138970E-01  0.00000000000E+00 0.  1.
</event>
<event>
 5   0  0.4143600E+04  0.9118800E+02  0.7546771E-02  0.1180000E+00
      -11   -1    0    0    0    0  0.00000000000E+00  0.00000000000E+00  0.34996269501E-01  0.35000000000E-01  0.51099999109E-03 0.  1.
       11   -1    0    0    0    0 -0.00000000000E+00 -0.00000000000E+00 -0.34996269501E-01  0.35000000000E-01  0.51099999109E-03 0. -1.
       22    1    1    2    0    0  0.30211066711E-03  0.62920875304E-03  0.18112273060E-02  0.19410612726E-02  0.00000000000E+00 0.  1.
       22    1    1    2    0    0 -0.78528932673E-02 -0.21933546960E-01  0.24205228766E-01  0.33595260298E-01  0.00000000000E+00 0.  1.
       22    1    1    2    0    0  0.75507826002E-02  0.21304338207E-01 -0.26016456072E-01  0.34463678429E-01  0.00000000000E+00 0. -1.
</event>
<event>
 5   0  0.4143600E+04  0.9118800E+02  0.7546771E-02  0.1180000E+00
      -11   -1    0    0    0    0  0.00000000000E+00  0.00000000000E+00  0.34996269501E-01  0.35000000000E-01  0.51099999109E-03 0.  1.
       11   -1    0    0    0    0 -0.00000000000E+00 -0.00000000000E+00 -0.34996269501E-01  0.35000000000E-01  0.51099999109E-03 0. -1.
       22    1    1    2    0    0 -0.25142977092E-04 -0.11657888075E-04  0.14244563374E-02  0.14247259150E-02  0.00000000000E+00 0. -1.
       22    1    1    2    0    0 -0.10623209258E-01 -0.21927976541E-01 -0.24819615399E-01  0.34780771105E-01  0.00000000000E+00 0. -1.
       22    1    1    2    0    0  0.10648352235E-01  0.21939634429E-01  0.23395159061E-01  0.33794502980E-01  0.00000000000E+00 0.  1.
</event>
<event>
 5   0  0.4143600E+04  0.9118800E+02  0.7546771E-02  0.1180000E+00
      -11   -1    0    0    0    0  0.00000000000E+00  0.00000000000E+00  0.34996269501E-01  0.35000000000E-01  0.51099999109E-03 0. -1.
       11   -1    0    0    0    0 -0.00000000000E+00 -0.00000000000E+00 -0.34996269501E-01  0.35000000000E-01  0.51099999109E-03 0.  1.
       22    1    1    2    0    0 -0.24348597328E-03 -0.37292625758E-03 -0.94888600076E-05  0.44547665622E-03  0.00000000000E+00 0.  1.
       22    1    1    2    0    0 -0.13790540446E-01  0.53465614258E-02 -0.31447293878E-01  0.34751935444E-01  0.00000000000E+00 0.  1.
       22    1    1    2    0    0  0.14034026420E-01 -0.49736351682E-02  0.31456782738E-01  0.34802587900E-01  0.00000000000E+00 0. -1.
</event>
<event>
 5   0  0.4143600E+04  0.9118800E+02  0.7546771E-02  0.1180000E+00
      -11   -1    0    0    0    0  0.00000000000E+00  0.00000000000E+00  0.34996269501E-01  0.35000000000E-01  0.51099999109E-03 0. -1.
       11   -1    0    0    0    0 -0.00000000000E+00 -0.00000000000E+00 -0.34996269501E-01  0.35000000000E-01  0.51099999109E-03 0.  1.
       22    1    1    2    0    0  0.19470605775E-02 -0.14980593594E-01  0.31053563973E-01  0.34533072044E-01  0.00000000000E+00 0. -1.
       22    1    1    2    0    0 -0.15626872311E-03 -0.10143841279E-02 -0.15547569383E-02  0.18629718757E-02  0.00000000000E+00 0.  1.
       22    1    1    2    0    0 -0.17907918544E-02  0.15994977722E-01 -0.29498807035E-01  0.33603956081E-01  0.00000000000E+00 0.  1.
</event>
<event>
 5   0  0.4143600E+04  0.9118800E+02  0.7546771E-02  0.1180000E+00
      -11   -1    0    0    0    0  0.00000000000E+00  0.00000000000E+00  0.34996269501E-01  0.35000000000E-01  0.51099999109E-03 0.  1.
       11   -1    0    0    0    0 -0.00000000000E+00 -0.00000000000E+00 -0.34996269501E-01  0.35000000000E-01  0.51099999109E-03 0. -1.
       22    1    1    2    0    0  0.38552494722E-02  0.10233720182E-01 -0.28973440332E-01  0.30968568290E-01  0.00000000000E+00 0. -1.
       22    1    1    2    0    0  0.46132524292E-02 -0.38435766914E-02  0.27703494205E-01  0.28346759443E-01  0.00000000000E+00 0.  1.
       22    1    1    2    0    0 -0.84685019014E-02 -0.63901434902E-02  0.12699461271E-02  0.10684672267E-01  0.00000000000E+00 0.  1.
</event>
<event>
 5   0  0.4143600E+04  0.9118800E+02  0.7546771E-02  0.1180000E+00
      -11   -1    0    0    0    0  0.00000000000E+00  0.00000000000E+00  0.34996269501E-01  0.35000000000E-01  0.51099999109E-03 0. -1.
       11   -1    0    0    0    0 -0.00000000000E+00 -0.00000000000E+00 -0.34996269501E-01  0.35000000000E-01  0.51099999109E-03 0.  1.
       22    1    1    2    0    0  0.11890482866E-01 -0.11365644284E-02  0.21682216601E-01  0.24754673867E-01  0.00000000000E+00 0. -1.
       22    1    1    2    0    0 -0.11987148504E-01  0.13701466912E-02 -0.32374716725E-01  0.34549838122E-01  0.00000000000E+00 0.  1.
       22    1    1    2    0    0  0.96665637440E-04 -0.23358226283E-03  0.10692500124E-01  0.10695488012E-01  0.00000000000E+00 0. -1.
</event>
<event>
 5   0  0.4143600E+04  0.9118800E+02  0.7546771E-02  0.1180000E+00
      -11   -1    0    0    0    0  0.00000000000E+00  0.00000000000E+00  0.34996269501E-01  0.35000000000E-01  0.51099999109E-03 0. -1.
       11   -1    0    0    0    0 -0.00000000000E+00 -0.00000000000E+00 -0.34996269501E-01  0.35000000000E-01  0.51099999109E-03 0.  1.
       22    1    1    2    0    0 -0.94091752827E-02 -0.10017750838E-01 -0.31310922266E-01  0.34194469795E-01  0.00000000000E+00 0.  1.
       22    1    1    2    0    0  0.18466014611E-03 -0.88840096235E-03 -0.42588084013E-03  0.10023622746E-02  0.00000000000E+00 0.  1.
       22    1    1    2    0    0  0.92245151366E-02  0.10906151801E-01  0.31736803107E-01  0.34803167931E-01  0.00000000000E+00 0. -1.
</event>
<event>
 5   0  0.4143600E+04  0.9118800E+02  0.7546771E-02  0.1180000E+00
      -11   -1    0    0    0    0  0.00000000000E+00  0.00000000000E+00  0.34996269501E-01  0.35000000000E-01  0.51099999109E-03 0.  1.
       11   -1    0    0    0    0 -0.00000000000E+00 -0.00000000000E+00 -0.34996269501E-01  0.35000000000E-01  0.51099999109E-03 0. -1.
       22    1    1    2    0    0  0.31420375686E-02  0.45595563991E-02 -0.17890274906E-01  0.18727623737E-01  0.00000000000E+00 0. -1.
       22    1    1    2    0    0 -0.52492539443E-02 -0.27496298731E-02 -0.16106654626E-01  0.17162151807E-01  0.00000000000E+00 0. -1.
       22    1    1    2    0    0  0.21072163757E-02 -0.18099265260E-02  0.33996929531E-01  0.34110224456E-01  0.00000000000E+00 0.  1.
</event>
<event>
 5   0  0.4143600E+04  0.9118800E+02  0.7546771E-02  0.1180000E+00
      -11   -1    0    0    0    0  0.00000000000E+00  0.00000000000E+00  0.34996269501E-01  0.35000000000E-01  0.51099999109E-03 0. -1.
       11   -1    0    0    0    0 -0.00000000000E+00 -0.00000000000E+00 -0.34996269501E-01  0.35000000000E-01  0.51099999109E-03 0.  1.
       22    1    1    2    0    0  0.53634683622E-02 -0.11755844712E-01  0.88818084192E-02  0.15679706584E-01  0.00000000000E+00 0. -1.
       22    1    1    2    0    0 -0.10899447387E-01  0.12764272626E-01 -0.28957822351E-01  0.33470585360E-01  0.00000000000E+00 0.  1.
       22    1    1    2    0    0  0.55359790251E-02 -0.10084279140E-02  0.20076013932E-01  0.20849708056E-01  0.00000000000E+00 0. -1.
</event>
<event>
 5   0  0.4143600E+04  0.9118800E+02  0.7546771E-02  0.1180000E+00
      -11   -1    0    0    0    0  0.00000000000E+00  0.00000000000E+00  0.34996269501E-01  0.35000000000E-01  0.51099999109E-03 0. -1.
       11   -1    0    0    0    0 -0.00000000000E+00 -0.00000000000E+00 -0.34996269501E-01  0.35000000000E-01  0.51099999109E-03 0.  1.
       22    1    1    2    0    0 -0.11060652744E-01 -0.83359992623E-02 -0.30912901430E-01  0.33873801051E-01  0.00000000000E+00 0.  1.
       22    1    1    2    0    0  0.10790010876E-01  0.93629353193E-02  0.31722440897E-01  0.34790834267E-01  0.00000000000E+00 0. -1.
       22    1    1    2    0    0  0.27064186786E-03 -0.10269360570E-02 -0.80953946723E-03  0.13353646823E-02  0.00000000000E+00 0. -1.
</event>
<event>
 5   0  0.4143600E+04  0.9118800E+02  0.7546771E-02  0.1180000E+00
      -11   -1    0    0    0    0  0.00000000000E+00  0.00000000000E+00  0.34996269501E-01  0.35000000000E-01  0.51099999109E-03 0.  1.
       11   -1    0    0    0    0 -0.00000000000E+00 -0.00000000000E+00 -0.34996269501E-01  0.35000000000E-01  0.51099999109E-03 0. -1.
       22    1    1    2    0    0  0.64373665754E-02  0.89732503478E-02 -0.12066399378E-01  0.16357166753E-01  0.00000000000E+00 0. -1.
       22    1    1    2    0    0 -0.21587197424E-02  0.15016061187E-02 -0.19724151740E-01  0.19898669647E-01  0.00000000000E+00 0. -1.
       22    1    1    2    0    0 -0.42786468329E-02 -0.10474856467E-01  0.31790551118E-01  0.33744163600E-01  0.00000000000E+00 0.  1.
</event>
<event>
 5   0  0.4143600E+04  0.9118800E+02  0.7546771E-02  0.1180000E+00
      -11   -1    0    0    0    0  0.00000000000E+00  0.00000000000E+00  0.34996269501E-01  0.35000000000E-01  0.51099999109E-03 0.  1.
       11   -1    0    0    0    0 -0.00000000000E+00 -0.00000000000E+00 -0.34996269501E-01  0.35000000000E-01  0.51099999109E-03 0. -1.
       22    1    1    2    0    0 -0.31919775055E-02 -0.30400078341E-02 -0.10336205823E-01  0.11236882078E-01  0.00000000000E+00 0. -1.
       22    1    1    2    0    0 -0.21495006413E-02 -0.37122912408E-03 -0.23872658566E-01  0.23972108607E-01  0.00000000000E+00 0. -1.
       22    1    1    2    0    0  0.53414781468E-02  0.34112369582E-02  0.34208864389E-01  0.34791009315E-01  0.00000000000E+00 0.  1.
</event>
<event>
 5   0  0.4143600E+04  0.9118800E+02  0.7546771E-02  0.1180000E+00
      -11   -1    0    0    0    0  0.00000000000E+00  0.00000000000E+00  0.34996269501E-01  0.35000000000E-01  0.51099999109E-03 0.  1.
       11   -1    0    0    0    0 -0.00000000000E+00 -0.00000000000E+00 -0.34996269501E-01  0.35000000000E-01  0.51099999109E-03 0. -1.
       22    1    1    2    0    0  0.10177830847E-01 -0.34495356308E-02 -0.20793218074E-01  0.23406098664E-01  0.00000000000E+00 0. -1.
       22    1    1    2    0    0 -0.19581186246E-02 -0.30532893586E-02 -0.11806315004E-01  0.12350946458E-01  0.00000000000E+00 0. -1.
       22    1    1    2    0    0 -0.82197122222E-02  0.65028249894E-02  0.32599533077E-01  0.34242954877E-01  0.00000000000E+00 0.  1.
</event>
<event>
 5   0  0.4143600E+04  0.9118800E+02  0.7546771E-02  0.1180000E+00
      -11   -1    0    0    0    0  0.00000000000E+00  0.00000000000E+00  0.34996269501E-01  0.35000000000E-01  0.51099999109E-03 0. -1.
       11   -1    0    0    0    0 -0.00000000000E+00 -0.00000000000E+00 -0.34996269501E-01  0.35000000000E-01  0.51099999109E-03 0.  1.
       22    1    1    2    0    0 -0.41917660183E-02 -0.79988149133E-02 -0.20926338943E-01  0.22791744205E-01  0.00000000000E+00 0.  1.
       22    1    1    2    0    0 -0.14002200105E-03 -0.50117574783E-04  0.32477616262E-01  0.32477956771E-01  0.00000000000E+00 0. -1.
       22    1    1    2    0    0  0.43317880194E-02  0.80489324880E-02 -0.11551277319E-01  0.14730299024E-01  0.00000000000E+00 0. -1.
</event>
<event>
 5   0  0.4143600E+04  0.9118800E+02  0.7546771E-02  0.1180000E+00
      -11   -1    0    0    0    0  0.00000000000E+00  0.00000000000E+00  0.34996269501E-01  0.35000000000E-01  0.51099999109E-03 0.  1.
       11   -1    0    0    0    0 -0.00000000000E+00 -0.00000000000E+00 -0.34996269501E-01  0.35000000000E-01  0.51099999109E-03 0. -1.
       22    1    1    2    0    0  0.83300216525E-03  0.15314693842E-02  0.53190563118E-03  0.18226943470E-02  0.00000000000E+00 0.  1.
       22    1    1    2    0    0 -0.40385218983E-03  0.22863902065E-01  0.24297596150E-01  0.33366064990E-01  0.00000000000E+00 0.  1.
       22    1    1    2    0    0 -0.42914997543E-03 -0.24395371449E-01 -0.24829501781E-01  0.34811240664E-01  0.00000000000E+00 0. -1.
</event>
<event>
 5   0  0.4143600E+04  0.9118800E+02  0.7546771E-02  0.1180000E+00
      -11   -1    0    0    0    0  0.00000000000E+00  0.00000000000E+00  0.34996269501E-01  0.35000000000E-01  0.51099999109E-03 0.  1.
       11   -1    0    0    0    0 -0.00000000000E+00 -0.00000000000E+00 -0.34996269501E-01  0.35000000000E-01  0.51099999109E-03 0. -1.
       22    1    1    2    0    0  0.10023177674E-01  0.30316656119E-01  0.14226199521E-01  0.34956379700E-01  0.00000000000E+00 0.  1.
       22    1    1    2    0    0 -0.17258846488E-03 -0.87368688844E-04 -0.24335126582E-03  0.31086959417E-03  0.00000000000E+00 0. -1.
       22    1    1    2    0    0 -0.98505892088E-02 -0.30229287430E-01 -0.13982848256E-01  0.34732750706E-01  0.00000000000E+00 0. -1.
</event>
<event>
 5   0  0.4143600E+04  0.9118800E+02  0.7546771E-02  0.1180000E+00
      -11   -1    0    0    0    0  0.00000000000E+00  0.00000000000E+00  0.34996269501E-01  0.35000000000E-01  0.51099999109E-03 0. -1.
       11   -1    0    0    0    0 -0.00000000000E+00 -0.00000000000E+00 -0.34996269501E-01  0.35000000000E-01  0.51099999109E-03 0.  1.
       22    1    1    2    0    0  0.12578748850E-02 -0.31585397699E-01 -0.59556318497E-02  0.32166584335E-01  0.00000000000E+00 0.  1.
       22    1    1    2    0    0 -0.43886422288E-03 -0.21180166252E-02 -0.22653785367E-02  0.31321775405E-02  0.00000000000E+00 0.  1.
       22    1    1    2    0    0 -0.81901066210E-03  0.33703414325E-01  0.82210103864E-02  0.34701238124E-01  0.00000000000E+00 0. -1.
</event>
<event>
 5   0  0.4143600E+04  0.9118800E+02  0.7546771E-02  0.1180000E+00
      -11   -1    0    0    0    0  0.00000000000E+00  0.00000000000E+00  0.34996269501E-01  0.35000000000E-01  0.51099999109E-03 0.  1.
       11   -1    0    0    0    0 -0.00000000000E+00 -0.00000000000E+00 -0.34996269501E-01  0.35000000000E-01  0.51099999109E-03 0. -1.
       22    1    1    2    0    0 -0.35597278875E-02 -0.10471777657E-01  0.30429336298E-01  0.32377064373E-01  0.00000000000E+00 0.  1.
       22    1    1    2    0    0 -0.20328742537E-02 -0.38802223257E-03  0.20557888426E-02  0.29170887456E-02  0.00000000000E+00 0.  1.
       22    1    1    2    0    0  0.55926021413E-02  0.10859799889E-01 -0.32485125140E-01  0.34705846881E-01  0.00000000000E+00 0. -1.
</event>
<event>
 5   0  0.4143600E+04  0.9118800E+02  0.7546771E-02  0.1180000E+00
      -11   -1    0    0    0    0  0.00000000000E+00  0.00000000000E+00  0.34996269501E-01  0.35000000000E-01  0.51099999109E-03 0.  1.
       11   -1    0    0    0    0 -0.00000000000E+00 -0.00000000000E+00 -0.34996269501E-01  0.35000000000E-01  0.51099999109E-03 0. -1.
       22    1    1    2    0    0  0.24429349194E-03  0.45781635463E-04  0.84712282998E-03  0.88283200974E-03  0.00000000000E+00 0. -1.
       22    1    1    2    0    0  0.17366586646E-02 -0.13637744291E-01 -0.32132147475E-01  0.34949663146E-01  0.00000000000E+00 0. -1.
       22    1    1    2    0    0 -0.19809521565E-02  0.13591962656E-01  0.31285024645E-01  0.34167504845E-01  0.00000000000E+00 0.  1.
</event>
<event>
 5   0  0.4143600E+04  0.9118800E+02  0.7546771E-02  0.1180000E+00
      -11   -1    0    0    0    0  0.00000000000E+00  0.00000000000E+00  0.34996269501E-01  0.35000000000E-01  0.51099999109E-03 0.  1.
       11   -1    0    0    0    0 -0.00000000000E+00 -0.00000000000E+00 -0.34996269501E-01  0.35000000000E-01  0.51099999109E-03 0. -1.
       22    1    1    2    0    0  0.31956709950E-03  0.30735151130E-03  0.28931349214E-02  0.29269126663E-02  0.00000000000E+00 0.  1.
       22    1    1    2    0    0  0.23190764972E-01  0.21711505595E-02 -0.25378427001E-01  0.34446916143E-01  0.00000000000E+00 0. -1.
       22    1    1    2    0    0 -0.23510332071E-01 -0.24785020708E-02  0.22485292080E-01  0.32626171190E-01  0.00000000000E+00 0.  1.
</event>
<event>
 5   0  0.4143600E+04  0.9118800E+02  0.7546771E-02  0.1180000E+00
      -11   -1    0    0    0    0  0.00000000000E+00  0.00000000000E+00  0.34996269501E-01  0.35000000000E-01  0.51099999109E-03 0. -1.
       11   -1    0    0    0    0 -0.00000000000E+00 -0.00000000000E+00 -0.34996269501E-01  0.35000000000E-01  0.51099999109E-03 0. -1.
       22    1    1    2    0    0  0.97227976924E-03  0.95589863969E-03  0.34835511864E-01  0.34862185201E-01  0.00000000000E+00 0. -1.
       22    1    1    2    0    0 -0.41539615637E-03 -0.94176285029E-03 -0.16310284941E-02  0.19286589075E-02  0.00000000000E+00 0.  1.
       22    1    1    2    0    0 -0.55688361287E-03 -0.14135789395E-04 -0.33204483370E-01  0.33209155892E-01  0.00000000000E+00 0. -1.
</event>
<event>
 5   0  0.4143600E+04  0.9118800E+02  0.7546771E-02  0.1180000E+00
      -11   -1    0    0    0    0  0.00000000000E+00  0.00000000000E+00  0.34996269501E-01  0.35000000000E-01  0.51099999109E-03 0.  1.
       11   -1    0    0    0    0 -0.00000000000E+00 -0.00000000000E+00 -0.34996269501E-01  0.35000000000E-01  0.51099999109E-03 0.  1.
       22    1    1    2    0    0  0.54949881723E-02  0.41448684890E-02 -0.11928514687E-01  0.13771865976E-01  0.00000000000E+00 0. -1.
       22    1    1    2    0    0 -0.19806554990E-03 -0.84748985165E-05 -0.21818006943E-01  0.21818907597E-01  0.00000000000E+00 0.  1.
       22    1    1    2    0    0 -0.52969226224E-02 -0.41363935905E-02  0.33746521630E-01  0.34409226427E-01  0.00000000000E+00 0.  1.
</event>
<event>
 5   0  0.4143600E+04  0.9118800E+02  0.7546771E-02  0.1180000E+00
      -11   -1    0    0    0    0  0.00000000000E+00  0.00000000000E+00  0.34996269501E-01  0.35000000000E-01  0.51099999109E-03 0.  1.
       11   -1    0    0    0    0 -0.00000000000E+00 -0.00000000000E+00 -0.34996269501E-01  0.35000000000E-01  0.51099999109E-03 0. -1.
       22    1    1    2    0    0 -0.70747959526E-03 -0.13289308695E-02  0.16240289126E-01  0.16309922610E-01  0.00000000000E+00 0. -1.
       22    1    1    2    0    0  0.17762632381E-01  0.11785244093E-02 -0.27853261492E-01  0.33056076667E-01  0.00000000000E+00 0. -1.
       22    1    1    2    0    0 -0.17055152786E-01  0.15040646015E-03  0.11612972366E-01  0.20634000723E-01  0.00000000000E+00 0.  1.
</event>
<event>
 5   0  0.4143600E+04  0.9118800E+02  0.7546771E-02  0.1180000E+00
      -11   -1    0    0    0    0  0.00000000000E+00  0.00000000000E+00  0.34996269501E-01  0.35000000000E-01  0.51099999109E-03 0.  1.
       11   -1    0    0    0    0 -0.00000000000E+00 -0.00000000000E+00 -0.34996269501E-01  0.35000000000E-01  0.51099999109E-03 0. -1.
       22    1    1    2    0    0 -0.46079006037E-02  0.36870505090E-02 -0.30566946651E-01  0.31131420093E-01  0.00000000000E+00 0. -1.
       22    1    1    2    0    0  0.52725623166E-02 -0.23729515856E-02  0.34337374422E-01  0.34820771025E-01  0.00000000000E+00 0.  1.
       22    1    1    2    0    0 -0.66466171291E-03 -0.13140989234E-02 -0.37704277704E-02  0.40478088819E-02  0.00000000000E+00 0. -1.
</event>
<event>
 5   0  0.4143600E+04  0.9118800E+02  0.7546771E-02  0.1180000E+00
      -11   -1    0    0    0    0  0.00000000000E+00  0.00000000000E+00  0.34996269501E-01  0.35000000000E-01  0.51099999109E-03 0. -1.
       11   -1    0    0    0    0 -0.00000000000E+00 -0.00000000000E+00 -0.34996269501E-01  0.35000000000E-01  0.51099999109E-03 0.  1.
       22    1    1    2    0    0  0.11953451249E-02 -0.13493711128E-01 -0.29424394383E-01  0.32392963353E-01  0.00000000000E+00 0.  1.
       22    1    1    2    0    0 -0.75383724727E-03  0.13475466578E-01  0.32138382496E-01  0.34857310561E-01  0.00000000000E+00 0. -1.
       22    1    1    2    0    0 -0.44150787763E-03  0.18244550036E-04 -0.27139881132E-02  0.27497260860E-02  0.00000000000E+00 0. -1.
</event>
<event>
 5   0  0.4143600E+04  0.9118800E+02  0.7546771E-02  0.1180000E+00
      -11   -1    0    0    0    0  0.00000000000E+00  0.00000000000E+00  0.34996269501E-01  0.35000000000E-01  0.51099999109E-03 0.  1.
       11   -1    0    0    0    0 -0.00000000000E+00 -0.00000000000E+00 -0.34996269501E-01  0.35000000000E-01  0.51099999109E-03 0. -1.
       22    1    1    2    0    0  0.15447072884E-01  0.77591316545E-03  0.29236716155E-01  0.33075665881E-01  0.00000000000E+00 0.  1.
       22    1    1    2    0    0  0.11176250535E-03  0.11503756901E-04  0.20080105756E-02  0.20111513284E-02  0.00000000000E+00 0. -1.
       22    1    1    2    0    0 -0.15558835389E-01 -0.78741692235E-03 -0.31244726731E-01  0.34913182791E-01  0.00000000000E+00 0. -1.
</event>
<event>
 5   0  0.4143600E+04  0.9118800E+02  0.7546771E-02  0.1180000E+00
      -11   -1    0    0    0    0  0.00000000000E+00  0.00000000000E+00  0.34996269501E-01  0.35000000000E-01  0.51099999109E-03 0.  1.
       11   -1    0    0    0    0 -0.00000000000E+00 -0.00000000000E+00 -0.34996269501E-01  0.35000000000E-01  0.51099999109E-03 0. -1.
       22    1    1    2    0    0  0.39269511693E-04 -0.30756146171E-03  0.13463992159E-01  0.13467561806E-01  0.00000000000E+00 0.  1.
       22    1    1    2    0    0  0.61522957170E-02  0.19516647852E-01  0.12245543268E-01  0.23847507540E-01  0.00000000000E+00 0.  1.
       22    1    1    2    0    0 -0.61915652287E-02 -0.19209086390E-01 -0.25709535427E-01  0.32684930653E-01  0.00000000000E+00 0. -1.
</event>
<event>
 5   0  0.4143600E+04  0.9118800E+02  0.7546771E-02  0.1180000E+00
      -11   -1    0    0    0    0  0.00000000000E+00  0.00000000000E+00  0.34996269501E-01  0.35000000000E-01  0.51099999109E-03 0.  1.
       11   -1    0    0    0    0 -0.00000000000E+00 -0.00000000000E+00 -0.34996269501E-01  0.35000000000E-01  0.51099999109E-03 0. -1.
       22    1    1    2    0    0 -0.14510885047E-01  0.14428278343E-01  0.26844530441E-01  0.33754552514E-01  0.00000000000E+00 0.  1.
       22    1    1    2    0    0  0.14521651987E-01 -0.14439257894E-01 -0.28221350666E-01  0.34868541386E-01  0.00000000000E+00 0. -1.
       22    1    1    2    0    0 -0.10766940117E-04  0.10979550775E-04  0.13768202249E-02  0.13769061004E-02  0.00000000000E+00 0. -1.
</event>
<event>
 5   0  0.4143600E+04  0.9118800E+02  0.7546771E-02  0.1180000E+00
      -11   -1    0    0    0    0  0.00000000000E+00  0.00000000000E+00  0.34996269501E-01  0.35000000000E-01  0.51099999109E-03 0.  1.
       11   -1    0    0    0    0 -0.00000000000E+00 -0.00000000000E+00 -0.34996269501E-01  0.35000000000E-01  0.51099999109E-03 0. -1.
       22    1    1    2    0    0 -0.68755179984E-04 -0.41626408783E-03  0.43951108991E-02  0.44153145846E-02  0.00000000000E+00 0.  1.
       22    1    1    2    0    0 -0.13681340223E-01  0.51653267437E-02 -0.31552395845E-01  0.34776620800E-01  0.00000000000E+00 0. -1.
       22    1    1    2    0    0  0.13750095403E-01 -0.47490626559E-02  0.27157284946E-01  0.30808064616E-01  0.00000000000E+00 0.  1.
</event>
<event>
 5   0  0.4143600E+04  0.9118800E+02  0.7546771E-02  0.1180000E+00
      -11   -1    0    0    0    0  0.00000000000E+00  0.00000000000E+00  0.34996269501E-01  0.35000000000E-01  0.51099999109E-03 0. -1.
       11   -1    0    0    0    0 -0.00000000000E+00 -0.00000000000E+00 -0.34996269501E-01  0.35000000000E-01  0.51099999109E-03 0.  1.
       22    1    1    2    0    0 -0.24460327645E-02  0.14260276815E-01 -0.31825172493E-01  0.34959693582E-01  0.00000000000E+00 0.  1.
       22    1    1    2    0    0  0.26333067916E-02 -0.14213900266E-01  0.31202859089E-01  0.34388772597E-01  0.00000000000E+00 0. -1.
       22    1    1    2    0    0 -0.18727402711E-03 -0.46376549359E-04  0.62231340467E-03  0.65153382045E-03  0.00000000000E+00 0.  1.
</event>
<event>
 5   0  0.4143600E+04  0.9118800E+02  0.7546771E-02  0.1180000E+00
      -11   -1    0    0    0    0  0.00000000000E+00  0.00000000000E+00  0.34996269501E-01  0.35000000000E-01  0.51099999109E-03 0.  1.
       11   -1    0    0    0    0 -0.00000000000E+00 -0.00000000000E+00 -0.34996269501E-01  0.35000000000E-01  0.51099999109E-03 0. -1.
       22    1    1    2    0    0  0.86100063086E-05 -0.93804108612E-03 -0.29939729270E-01  0.29954421776E-01  0.00000000000E+00 0. -1.
       22    1    1    2    0    0  0.19435995795E-02 -0.11512974615E-02 -0.47386236097E-02  0.52495351113E-02  0.00000000000E+00 0. -1.
       22    1    1    2    0    0 -0.19522095858E-02  0.20893385476E-02  0.34678352880E-01  0.34796043112E-01  0.00000000000E+00 0.  1.
</event>
<event>
 5   0  0.4143600E+04  0.9118800E+02  0.7546771E-02  0.1180000E+00
      -11   -1    0    0    0    0  0.00000000000E+00  0.00000000000E+00  0.34996269501E-01  0.35000000000E-01  0.51099999109E-03 0.  1.
       11   -1    0    0    0    0 -0.00000000000E+00 -0.00000000000E+00 -0.34996269501E-01  0.35000000000E-01  0.51099999109E-03 0. -1.
       22    1    1    2    0    0  0.63545038288E-04 -0.10824084702E-02  0.34946264960E-01  0.34963081683E-01  0.00000000000E+00 0.  1.
       22    1    1    2    0    0 -0.32633664743E-03  0.13007517992E-02 -0.34070257230E-01  0.34096640283E-01  0.00000000000E+00 0. -1.
       22    1    1    2    0    0  0.26279160915E-03 -0.21834332903E-03 -0.87600773024E-03  0.94027803474E-03  0.00000000000E+00 0.  1.
</event>
<event>
 5   0  0.4143600E+04  0.9118800E+02  0.7546771E-02  0.1180000E+00
      -11   -1    0    0    0    0  0.00000000000E+00  0.00000000000E+00  0.34996269501E-01  0.35000000000E-01  0.51099999109E-03 0. -1.
       11   -1    0    0    0    0 -0.00000000000E+00 -0.00000000000E+00 -0.34996269501E-01  0.35000000000E-01  0.51099999109E-03 0. -1.
       22    1    1    2    0    0  0.60839775069E-04 -0.15964191135E-02  0.34746482665E-01  0.34783190094E-01  0.00000000000E+00 0. -1.
       22    1    1    2    0    0  0.96860245886E-03  0.10916225565E-03 -0.31380340372E-01  0.31395475295E-01  0.00000000000E+00 0. -1.
       22    1    1    2    0    0 -0.10294422339E-02  0.14872568578E-02 -0.33661422936E-02  0.38213346117E-02  0.00000000000E+00 0.  1.
</event>
<event>
 5   0  0.4143600E+04  0.9118800E+02  0.7546771E-02  0.1180000E+00
      -11   -1    0    0    0    0  0.00000000000E+00  0.00000000000E+00  0.34996269501E-01  0.35000000000E-01  0.51099999109E-03 0.  1.
       11   -1    0    0    0    0 -0.00000000000E+00 -0.00000000000E+00 -0.34996269501E-01  0.35000000000E-01  0.51099999109E-03 0. -1.
       22    1    1    2    0    0  0.16664004600E-01  0.18141231558E-01  0.24664024666E-01  0.34858391306E-01  0.00000000000E+00 0.  1.
       22    1    1    2    0    0  0.22633496245E-03 -0.92384310350E-04 -0.58044423174E-03  0.62982369135E-03  0.00000000000E+00 0. -1.
       22    1    1    2    0    0 -0.16890339562E-01 -0.18048847248E-01 -0.24083580434E-01  0.34511785002E-01  0.00000000000E+00 0. -1.
</event>
<event>
 5   0  0.4143600E+04  0.9118800E+02  0.7546771E-02  0.1180000E+00
      -11   -1    0    0    0    0  0.00000000000E+00  0.00000000000E+00  0.34996269501E-01  0.35000000000E-01  0.51099999109E-03 0.  1.
       11   -1    0    0    0    0 -0.00000000000E+00 -0.00000000000E+00 -0.34996269501E-01  0.35000000000E-01  0.51099999109E-03 0. -1.
       22    1    1    2    0    0  0.21598052245E-02  0.35573223996E-02 -0.29243739455E-01  0.29538375016E-01  0.00000000000E+00 0. -1.
       22    1    1    2    0    0 -0.77212474337E-03  0.54640584153E-03  0.34008681470E-01  0.34021833450E-01  0.00000000000E+00 0.  1.
       22    1    1    2    0    0 -0.13876804811E-02 -0.41037282412E-02 -0.47649420146E-02  0.64397915337E-02  0.00000000000E+00 0.  1.
</event>
<event>
 5   0  0.4143600E+04  0.9118800E+02  0.7546771E-02  0.1180000E+00
      -11   -1    0    0    0    0  0.00000000000E+00  0.00000000000E+00  0.34996269501E-01  0.35000000000E-01  0.51099999109E-03 0.  1.
       11   -1    0    0    0    0 -0.00000000000E+00 -0.00000000000E+00 -0.34996269501E-01  0.35000000000E-01  0.51099999109E-03 0. -1.
       22    1    1    2    0    0 -0.74122607098E-03 -0.83553749883E-03 -0.15356118922E-02  0.18988530443E-02  0.00000000000E+00 0.  1.
       22    1    1    2    0    0  0.44978283296E-02 -0.66141340037E-02 -0.32287867061E-01  0.33263848058E-01  0.00000000000E+00 0. -1.
       22    1    1    2    0    0 -0.37566022587E-02  0.74496715025E-02  0.33823478953E-01  0.34837298898E-01  0.00000000000E+00 0.  1.
</event>
<event>
 5   0  0.4143600E+04  0.9118800E+02  0.7546771E-02  0.1180000E+00
      -11   -1    0    0    0    0  0.00000000000E+00  0.00000000000E+00  0.34996269501E-01  0.35000000000E-01  0.51099999109E-03 0. -1.
       11   -1    0    0    0    0 -0.00000000000E+00 -0.00000000000E+00 -0.34996269501E-01  0.35000000000E-01  0.51099999109E-03 0.  1.
       22    1    1    2    0    0 -0.97769230638E-02 -0.22123804750E-01 -0.24169271729E-01  0.34193634746E-01  0.00000000000E+00 0.  1.
       22    1    1    2    0    0 -0.16544549485E-02  0.22057491927E-03  0.10657270824E-02  0.19803152996E-02  0.00000000000E+00 0. -1.
       22    1    1    2    0    0  0.11431378012E-01  0.21903229831E-01  0.23103544647E-01  0.33826049955E-01  0.00000000000E+00 0. -1.
</event>
<event>
 5   0  0.4143600E+04  0.9118800E+02  0.7546771E-02  0.1180000E+00
      -11   -1    0    0    0    0  0.00000000000E+00  0.00000000000E+00  0.34996269501E-01  0.35000000000E-01  0.51099999109E-03 0.  1.
       11   -1    0    0    0    0 -0.00000000000E+00 -0.00000000000E+00 -0.34996269501E-01  0.35000000000E-01  0.51099999109E-03 0. -1.
       22    1    1    2    0    0 -0.45456200235E-03  0.42550133893E-03 -0.92123398917E-02  0.92333571513E-02  0.00000000000E+00 0. -1.
       22    1    1    2    0    0  0.47178499460E-02 -0.11893154064E-01  0.32242548596E-01  0.34688429795E-01  0.00000000000E+00 0.  1.
       22    1    1    2    0    0 -0.42632879437E-02  0.11467652725E-01 -0.23030208704E-01  0.26078213054E-01  0.00000000000E+00 0. -1.
</event>
<event>
 5   0  0.4143600E+04  0.9118800E+02  0.7546771E-02  0.1180000E+00
      -11   -1    0    0    0    0  0.00000000000E+00  0.00000000000E+00  0.34996269501E-01  0.35000000000E-01  0.51099999109E-03 0.  1.
       11   -1    0    0    0    0 -0.00000000000E+00 -0.00000000000E+00 -0.34996269501E-01  0.35000000000E-01  0.51099999109E-03 0. -1.
       22    1    1    2    0    0  0.72320510705E-02  0.17997085079E-01 -0.27323503019E-01  0.33507781950E-01  0.00000000000E+00 0. -1.
       22    1    1    2    0    0 -0.77637913187E-02 -0.19300948870E-01  0.28037984538E-01  0.34913201799E-01  0.00000000000E+00 0.  1.
       22    1    1    2    0    0  0.53174024824E-03  0.13038637907E-02 -0.71448151965E-03  0.15790162502E-02  0.00000000000E+00 0. -1.
</event>
<event>
 5   0  0.4143600E+04  0.9118800E+02  0.7546771E-02  0.1180000E+00
      -11   -1    0    0    0    0  0.00000000000E+00  0.00000000000E+00  0.34996269501E-01  0.35000000000E-01  0.51099999109E-03 0.  1.
       11   -1    0    0    0    0 -0.00000000000E+00 -0.00000000000E+00 -0.34996269501E-01  0.35000000000E-01  0.51099999109E-03 0. -1.
       22    1    1    2    0    0  0.64793175973E-02 -0.19852706372E-01  0.57585415540E-02  0.21662693915E-01  0.00000000000E+00 0.  1.
       22    1    1    2    0    0 -0.61181004298E-02  0.19751664731E-01 -0.23093729650E-01  0.30998060612E-01  0.00000000000E+00 0. -1.
       22    1    1    2    0    0 -0.36121716747E-03  0.10104164084E-03  0.17335188096E-01  0.17339245474E-01  0.00000000000E+00 0. -1.
</event>
<event>
 5   0  0.4143600E+04  0.9118800E+02  0.7546771E-02  0.1180000E+00
      -11   -1    0    0    0    0  0.00000000000E+00  0.00000000000E+00  0.34996269501E-01  0.35000000000E-01  0.51099999109E-03 0. -1.
       11   -1    0    0    0    0 -0.00000000000E+00 -0.00000000000E+00 -0.34996269501E-01  0.35000000000E-01  0.51099999109E-03 0.  1.
       22    1    1    2    0    0 -0.13020334334E-01 -0.80117523339E-02 -0.31265480964E-01  0.34802982366E-01  0.00000000000E+00 0.  1.
       22    1    1    2    0    0  0.13298850504E-01  0.68390916939E-02  0.28691775749E-01  0.32355070631E-01  0.00000000000E+00 0. -1.
       22    1    1    2    0    0 -0.27851616996E-03  0.11726606400E-02  0.25737052152E-02  0.28419470030E-02  0.00000000000E+00 0. -1.
</event>
<event>
 5   0  0.4143600E+04  0.9118800E+02  0.7546771E-02  0.1180000E+00
      -11   -1    0    0    0    0  0.00000000000E+00  0.00000000000E+00  0.34996269501E-01  0.35000000000E-01  0.51099999109E-03 0. -1.
       11   -1    0    0    0    0 -0.00000000000E+00 -0.00000000000E+00 -0.34996269501E-01  0.35000000000E-01  0.51099999109E-03 0.  1.
       22    1    1    2    0    0 -0.20531974423E-02 -0.13245557030E-01 -0.25134406927E-01  0.28485062969E-01  0.00000000000E+00 0.  1.
       22    1    1    2    0    0  0.28007874442E-02  0.15337633321E-01  0.31296220627E-01  0.34964851376E-01  0.00000000000E+00 0. -1.
       22    1    1    2    0    0 -0.74759000191E-03 -0.20920762919E-02 -0.61618137000E-02  0.65500856555E-02  0.00000000000E+00 0. -1.
</event>
<event>
 5   0  0.4143600E+04  0.9118800E+02  0.7546771E-02  0.1180000E+00
      -11   -1    0    0    0    0  0.00000000000E+00  0.00000000000E+00  0.34996269501E-01  0.35000000000E-01  0.51099999109E-03 0. -1.
       11   -1    0    0    0    0 -0.00000000000E+00 -0.00000000000E+00 -0.34996269501E-01  0.35000000000E-01  0.51099999109E-03 0.  1.
       22    1    1    2    0    0  0.33301601844E-03 -0.11609283433E-01 -0.32580917715E-01  0.34589052612E-01  0.00000000000E+00 0.  1.
       22    1    1    2    0    0 -0.42840947729E-03  0.11461645017E-01  0.33010748567E-01  0.34946564382E-01  0.00000000000E+00 0. -1.
       22    1    1    2    0    0  0.95393458851E-04  0.14763841597E-03 -0.42983085246E-03  0.46438300527E-03  0.00000000000E+00 0.  1.
</event>
<event>
 5   0  0.4143600E+04  0.9118800E+02  0.7546771E-02  0.1180000E+00
      -11   -1    0    0    0    0  0.00000000000E+00  0.00000000000E+00  0.34996269501E-01  0.35000000000E-01  0.51099999109E-03 0.  1.
       11   -1    0    0    0    0 -0.00000000000E+00 -0.00000000000E+00 -0.34996269501E-01  0.35000000000E-01  0.51099999109E-03 0. -1.
       22    1    1    2    0    0  0.13653051467E-03 -0.10155199692E-03 -0.29559383609E-02  0.29608318059E-02  0.00000000000E+00 0.  1.
       22    1    1    2    0    0 -0.11051012801E-01  0.52796110689E-02 -0.29750590349E-01  0.32172920338E-01  0.00000000000E+00 0. -1.
       22    1    1    2    0    0  0.10914482286E-01 -0.51780590720E-02  0.32706528710E-01  0.34866247856E-01  0.00000000000E+00 0.  1.
</event>
<event>
 5   0  0.4143600E+04  0.9118800E+02  0.7546771E-02  0.1180000E+00
      -11   -1    0    0    0    0  0.00000000000E+00  0.00000000000E+00  0.34996269501E-01  0.35000000000E-01  0.51099999109E-03 0.  1.
       11   -1    0    0    0    0 -0.00000000000E+00 -0.00000000000E+00 -0.34996269501E-01  0.35000000000E-01  0.51099999109E-03 0. -1.
       22    1    1    2    0    0 -0.11329101159E-01  0.13787815786E-01 -0.30066809812E-01  0.34963773388E-01  0.00000000000E+00 0. -1.
       22    1    1    2    0    0  0.11012715630E-01 -0.13737768472E-01  0.29827125064E-01  0.34636159974E-01  0.00000000000E+00 0.  1.
       22    1    1    2    0    0  0.31638552958E-03 -0.50047313214E-04  0.23968474809E-03  0.40006663864E-03  0.00000000000E+00 0. -1.
</event>
<event>
 5   0  0.4143600E+04  0.9118800E+02  0.7546771E-02  0.1180000E+00
      -11   -1    0    0    0    0  0.00000000000E+00  0.00000000000E+00  0.34996269501E-01  0.35000000000E-01  0.51099999109E-03 0.  1.
       11   -1    0    0    0    0 -0.00000000000E+00 -0.00000000000E+00 -0.34996269501E-01  0.35000000000E-01  0.51099999109E-03 0. -1.
       22    1    1    2    0    0  0.14029811890E-02 -0.12439776741E-01 -0.32220031841E-01  0.34566556864E-01  0.00000000000E+00 0. -1.
       22    1    1    2    0    0 -0.14552414085E-02  0.12400543657E-01  0.32672178414E-01  0.34976598646E-01  0.00000000000E+00 0.  1.
       22    1    1    2    0    0  0.52260219447E-04  0.39233083944E-04 -0.45214657218E-03  0.45684449011E-03  0.00000000000E+00 0. -1.
</event>
<event>
 5   0  0.4143600E+04  0.9118800E+02  0.7546771E-02  0.1180000E+00
      -11   -1    0    0    0    0  0.00000000000E+00  0.00000000000E+00  0.34996269501E-01  0.35000000000E-01  0.51099999109E-03 0. -1.
       11   -1    0    0    0    0 -0.00000000000E+00 -0.00000000000E+00 -0.34996269501E-01  0.35000000000E-01  0.51099999109E-03 0.  1.
       22    1    1    2    0    0 -0.98858862126E-03 -0.11930305229E-02 -0.27431740711E-01  0.27475462284E-01  0.00000000000E+00 0.  1.
       22    1    1    2    0    0 -0.49994519915E-02  0.40454013822E-03 -0.64150139721E-02  0.81431306757E-02  0.00000000000E+00 0.  1.
       22    1    1    2    0    0  0.59880406127E-02  0.78849038467E-03  0.33846754683E-01  0.34381407040E-01  0.00000000000E+00 0. -1.
</event>
<event>
 5   0  0.4143600E+04  0.9118800E+02  0.7546771E-02  0.1180000E+00
      -11   -1    0    0    0    0  0.00000000000E+00  0.00000000000E+00  0.34996269501E-01  0.35000000000E-01  0.51099999109E-03 0.  1.
       11   -1    0    0    0    0 -0.00000000000E+00 -0.00000000000E+00 -0.34996269501E-01  0.35000000000E-01  0.51099999109E-03 0. -1.
       22    1    1    2    0    0  0.21214684040E-01  0.39713326318E-02  0.25366850727E-01  0.33306326990E-01  0.00000000000E+00 0.  1.
       22    1    1    2    0    0 -0.17136126347E-01 -0.32497016567E-02 -0.27080560307E-01  0.32211242348E-01  0.00000000000E+00 0. -1.
       22    1    1    2    0    0 -0.40785576926E-02 -0.72163097514E-03  0.17137095805E-02  0.44824306623E-02  0.00000000000E+00 0. -1.
</event>
<event>
 5   0  0.4143600E+04  0.9118800E+02  0.7546771E-02  0.1180000E+00
      -11   -1    0    0    0    0  0.00000000000E+00  0.00000000000E+00  0.34996269501E-01  0.35000000000E-01  0.51099999109E-03 0.  1.
       11   -1    0    0    0    0 -0.00000000000E+00 -0.00000000000E+00 -0.34996269501E-01  0.35000000000E-01  0.51099999109E-03 0. -1.
       22    1    1    2    0    0 -0.84819882739E-02  0.88776163976E-02  0.36601980129E-02  0.12812230386E-01  0.00000000000E+00 0.  1.
       22    1    1    2    0    0  0.74683228120E-02 -0.10213045843E-01 -0.29079746532E-01  0.31712991177E-01  0.00000000000E+00 0. -1.
       22    1    1    2    0    0  0.10136654619E-02  0.13354294458E-02  0.25419548519E-01  0.25474778437E-01  0.00000000000E+00 0. -1.
</event>
<event>
 5   0  0.4143600E+04  0.9118800E+02  0.7546771E-02  0.1180000E+00
      -11   -1    0    0    0    0  0.00000000000E+00  0.00000000000E+00  0.34996269501E-01  0.35000000000E-01  0.51099999109E-03 0. -1.
       11   -1    0    0    0    0 -0.00000000000E+00 -0.00000000000E+00 -0.34996269501E-01  0.35000000000E-01  0.51099999109E-03 0.  1.
       22    1    1    2    0    0 -0.13687364885E-01 -0.11733479679E-01 -0.29949583388E-01  0.34957060059E-01  0.00000000000E+00 0.  1.
       22    1    1    2    0    0  0.11756920833E-04 -0.20569207203E-04  0.57096942891E-03  0.57146076525E-03  0.00000000000E+00 0.  1.
       22    1    1    2    0    0  0.13675607964E-01  0.11754048887E-01  0.29378613959E-01  0.34471479176E-01  0.00000000000E+00 0. -1.
</event>
<event>
 5   0  0.4143600E+04  0.9118800E+02  0.7546771E-02  0.1180000E+00
      -11   -1    0    0    0    0  0.00000000000E+00  0.00000000000E+00  0.34996269501E-01  0.35000000000E-01  0.51099999109E-03 0. -1.
       11   -1    0    0    0    0 -0.00000000000E+00 -0.00000000000E+00 -0.34996269501E-01  0.35000000000E-01  0.51099999109E-03 0.  1.
       22    1    1    2    0    0  0.10214411597E-01  0.21130254089E-01 -0.25212785964E-01  0.34445702464E-01  0.00000000000E+00 0.  1.
       22    1    1    2    0    0  0.38314534101E-03 -0.43237503554E-03  0.41183322616E-02  0.41586547273E-02  0.00000000000E+00 0. -1.
       22    1    1    2    0    0 -0.10597556938E-01 -0.20697879053E-01  0.21094453703E-01  0.31395642809E-01  0.00000000000E+00 0. -1.
</event>
<event>
 5   0  0.4143600E+04  0.9118800E+02  0.7546771E-02  0.1180000E+00
      -11   -1    0    0    0    0  0.00000000000E+00  0.00000000000E+00  0.34996269501E-01  0.35000000000E-01  0.51099999109E-03 0.  1.
       11   -1    0    0    0    0 -0.00000000000E+00 -0.00000000000E+00 -0.34996269501E-01  0.35000000000E-01  0.51099999109E-03 0. -1.
       22    1    1    2    0    0  0.16508578192E-01  0.35311781940E-02  0.29176140990E-01  0.33708301299E-01  0.00000000000E+00 0.  1.
       22    1    1    2    0    0 -0.16814359352E-01 -0.55739413982E-02 -0.29282298749E-01  0.34223449902E-01  0.00000000000E+00 0. -1.
       22    1    1    2    0    0  0.30578116040E-03  0.20427632041E-02  0.10615775904E-03  0.20682487994E-02  0.00000000000E+00 0.  1.
</event>
<event>
 5   0  0.4143600E+04  0.9118800E+02  0.7546771E-02  0.1180000E+00
      -11   -1    0    0    0    0  0.00000000000E+00  0.00000000000E+00  0.34996269501E-01  0.35000000000E-01  0.51099999109E-03 0. -1.
       11   -1    0    0    0    0 -0.00000000000E+00 -0.00000000000E+00 -0.34996269501E-01  0.35000000000E-01  0.51099999109E-03 0.  1.
       22    1    1    2    0    0  0.41431369923E-04 -0.57015369642E-02 -0.32903337176E-01  0.33393694579E-01  0.00000000000E+00 0.  1.
       22    1    1    2    0    0  0.99637908638E-03  0.53044446268E-02  0.34356013187E-01  0.34777371180E-01  0.00000000000E+00 0. -1.
       22    1    1    2    0    0 -0.10378104563E-02  0.39709233738E-03 -0.14526760111E-02  0.18289342418E-02  0.00000000000E+00 0. -1.
</event>
<event>
 5   0  0.4143600E+04  0.9118800E+02  0.7546771E-02  0.1180000E+00
      -11   -1    0    0    0    0  0.00000000000E+00  0.00000000000E+00  0.34996269501E-01  0.35000000000E-01  0.51099999109E-03 0. -1.
       11   -1    0    0    0    0 -0.00000000000E+00 -0.00000000000E+00 -0.34996269501E-01  0.35000000000E-01  0.51099999109E-03 0.  1.
       22    1    1    2    0    0 -0.13729082326E-01 -0.59175376708E-02 -0.30987766536E-01  0.34405619141E-01  0.00000000000E+00 0.  1.
       22    1    1    2    0    0  0.14340294556E-01  0.66908831998E-02  0.30746211795E-01  0.34579495452E-01  0.00000000000E+00 0. -1.
       22    1    1    2    0    0 -0.61121222988E-03 -0.77334552901E-03  0.24155474064E-03  0.10148854073E-02  0.00000000000E+00 0.  1.
</event>
<event>
 5   0  0.4143600E+04  0.9118800E+02  0.7546771E-02  0.1180000E+00
      -11   -1    0    0    0    0  0.00000000000E+00  0.00000000000E+00  0.34996269501E-01  0.35000000000E-01  0.51099999109E-03 0. -1.
       11   -1    0    0    0    0 -0.00000000000E+00 -0.00000000000E+00 -0.34996269501E-01  0.35000000000E-01  0.51099999109E-03 0.  1.
       22    1    1    2    0    0 -0.12561146424E-01 -0.25791789587E-02  0.29153900452E-01  0.31849403058E-01  0.00000000000E+00 0. -1.
       22    1    1    2    0    0 -0.21084742760E-02  0.35333604611E-02  0.13158544883E-02  0.43199274248E-02  0.00000000000E+00 0.  1.
       22    1    1    2    0    0  0.14669620700E-01 -0.95418150240E-03 -0.30469754941E-01  0.33830669517E-01  0.00000000000E+00 0.  1.
</event>
<event>
 5   0  0.4143600E+04  0.9118800E+02  0.7546771E-02  0.1180000E+00
      -11   -1    0    0    0    0  0.00000000000E+00  0.00000000000E+00  0.34996269501E-01  0.35000000000E-01  0.51099999109E-03 0.  1.
       11   -1    0    0    0    0 -0.00000000000E+00 -0.00000000000E+00 -0.34996269501E-01  0.35000000000E-01  0.51099999109E-03 0. -1.
       22    1    1    2    0    0 -0.30731758681E-03 -0.53293469591E-03  0.33029175595E-02  0.33597214013E-02  0.00000000000E+00 0. -1.
       22    1    1    2    0    0 -0.14663118349E-01 -0.83290904762E-03 -0.31461276466E-01  0.34720493863E-01  0.00000000000E+00 0. -1.
       22    1    1    2    0    0  0.14970435936E-01  0.13658437435E-02  0.28158358907E-01  0.31919784736E-01  0.00000000000E+00 0.  1.
</event>
<event>
 5   0  0.4143600E+04  0.9118800E+02  0.7546771E-02  0.1180000E+00
      -11   -1    0    0    0    0  0.00000000000E+00  0.00000000000E+00  0.34996269501E-01  0.35000000000E-01  0.51099999109E-03 0. -1.
       11   -1    0    0    0    0 -0.00000000000E+00 -0.00000000000E+00 -0.34996269501E-01  0.35000000000E-01  0.51099999109E-03 0.  1.
       22    1    1    2    0    0  0.21640020632E-03  0.18046318220E-03  0.87420975207E-03  0.91849806752E-03  0.00000000000E+00 0. -1.
       22    1    1    2    0    0 -0.29611831485E-02 -0.17271001955E-01  0.29389710626E-01  0.34217118594E-01  0.00000000000E+00 0. -1.
       22    1    1    2    0    0  0.27447829422E-02  0.17090538772E-01 -0.30263920378E-01  0.34864383339E-01  0.00000000000E+00 0.  1.
</event>
<event>
 5   0  0.4143600E+04  0.9118800E+02  0.7546771E-02  0.1180000E+00
      -11   -1    0    0    0    0  0.00000000000E+00  0.00000000000E+00  0.34996269501E-01  0.35000000000E-01  0.51099999109E-03 0.  1.
       11   -1    0    0    0    0 -0.00000000000E+00 -0.00000000000E+00 -0.34996269501E-01  0.35000000000E-01  0.51099999109E-03 0. -1.
       22    1    1    2    0    0 -0.11430753774E-01 -0.50006296487E-03 -0.23284190266E-01  0.25943510001E-01  0.00000000000E+00 0. -1.
       22    1    1    2    0    0  0.17184964745E-01  0.62262475003E-02  0.28893232576E-01  0.34189297447E-01  0.00000000000E+00 0.  1.
       22    1    1    2    0    0 -0.57542109704E-02 -0.57261845355E-02 -0.56090423100E-02  0.98671925522E-02  0.00000000000E+00 0. -1.
</event>
<event>
 5   0  0.4143600E+04  0.9118800E+02  0.7546771E-02  0.1180000E+00
      -11   -1    0    0    0    0  0.00000000000E+00  0.00000000000E+00  0.34996269501E-01  0.35000000000E-01  0.51099999109E-03 0.  1.
       11   -1    0    0    0    0 -0.00000000000E+00 -0.00000000000E+00 -0.34996269501E-01  0.35000000000E-01  0.51099999109E-03 0. -1.
       22    1    1    2    0    0 -0.16951145651E-03  0.83140886016E-03 -0.33658930120E-01  0.33669623574E-01  0.00000000000E+00 0. -1.
       22    1    1    2    0    0 -0.23526005280E-03 -0.69561936486E-03 -0.12333930160E-02  0.14354413695E-02  0.00000000000E+00 0.  1.
       22    1    1    2    0    0  0.40477150931E-03 -0.13578949530E-03  0.34892323136E-01  0.34894935056E-01  0.00000000000E+00 0.  1.
</event>
<event>
 5   0  0.4143600E+04  0.9118800E+02  0.7546771E-02  0.1180000E+00
      -11   -1    0    0    0    0  0.00000000000E+00  0.00000000000E+00  0.34996269501E-01  0.35000000000E-01  0.51099999109E-03 0.  1.
       11   -1    0    0    0    0 -0.00000000000E+00 -0.00000000000E+00 -0.34996269501E-01  0.35000000000E-01  0.51099999109E-03 0. -1.
       22    1    1    2    0    0  0.21059543618E-02  0.14330204907E-01  0.28875292908E-01  0.32304370555E-01  0.00000000000E+00 0.  1.
       22    1    1    2    0    0 -0.53582487658E-03 -0.14959734844E-01 -0.31325376301E-01  0.34718294533E-01  0.00000000000E+00 0. -1.
       22    1    1    2    0    0 -0.15701294852E-02  0.62952993779E-03  0.24500833930E-02  0.29773349116E-02  0.00000000000E+00 0. -1.
</event>
<event>
 5   0  0.4143600E+04  0.9118800E+02  0.7546771E-02  0.1180000E+00
      -11   -1    0    0    0    0  0.00000000000E+00  0.00000000000E+00  0.34996269501E-01  0.35000000000E-01  0.51099999109E-03 0. -1.
       11   -1    0    0    0    0 -0.00000000000E+00 -0.00000000000E+00 -0.34996269501E-01  0.35000000000E-01  0.51099999109E-03 0.  1.
       22    1    1    2    0    0  0.16611226750E-02 -0.15836618112E-02 -0.12292845177E-01  0.12505253129E-01  0.00000000000E+00 0. -1.
       22    1    1    2    0    0  0.37429335192E-02  0.72092815443E-02  0.33723764349E-01  0.34688262764E-01  0.00000000000E+00 0. -1.
       22    1    1    2    0    0 -0.54040561942E-02 -0.56256197331E-02 -0.21430919173E-01  0.22806484107E-01  0.00000000000E+00 0.  1.
</event>
<event>
 5   0  0.4143600E+04  0.9118800E+02  0.7546771E-02  0.1180000E+00
      -11   -1    0    0    0    0  0.00000000000E+00  0.00000000000E+00  0.34996269501E-01  0.35000000000E-01  0.51099999109E-03 0.  1.
       11   -1    0    0    0    0 -0.00000000000E+00 -0.00000000000E+00 -0.34996269501E-01  0.35000000000E-01  0.51099999109E-03 0. -1.
       22    1    1    2    0    0 -0.43821568147E-03  0.68847631411E-04  0.49497531069E-03  0.66466046823E-03  0.00000000000E+00 0.  1.
       22    1    1    2    0    0 -0.17505952276E-02 -0.19638232869E-01 -0.28771025204E-01  0.34878312246E-01  0.00000000000E+00 0. -1.
       22    1    1    2    0    0  0.21888109091E-02  0.19569385238E-01  0.28276049893E-01  0.34457027285E-01  0.00000000000E+00 0.  1.
</event>
<event>
 5   0  0.4143600E+04  0.9118800E+02  0.7546771E-02  0.1180000E+00
      -11   -1    0    0    0    0  0.00000000000E+00  0.00000000000E+00  0.34996269501E-01  0.35000000000E-01  0.51099999109E-03 0.  1.
       11   -1    0    0    0    0 -0.00000000000E+00 -0.00000000000E+00 -0.34996269501E-01  0.35000000000E-01  0.51099999109E-03 0. -1.
       22    1    1    2    0    0 -0.11281487466E-01  0.28021386867E-02 -0.28909744417E-01  0.31159224364E-01  0.00000000000E+00 0. -1.
       22    1    1    2    0    0 -0.25734489865E-02  0.77541970687E-02  0.63974381868E-02  0.10376773449E-01  0.00000000000E+00 0. -1.
       22    1    1    2    0    0  0.13854936452E-01 -0.10556335755E-01  0.22512306231E-01  0.28464002187E-01  0.00000000000E+00 0.  1.
</event>
<event>
 5   0  0.4143600E+04  0.9118800E+02  0.7546771E-02  0.1180000E+00
      -11   -1    0    0    0    0  0.00000000000E+00  0.00000000000E+00  0.34996269501E-01  0.35000000000E-01  0.51099999109E-03 0. -1.
       11   -1    0    0    0    0 -0.00000000000E+00 -0.00000000000E+00 -0.34996269501E-01  0.35000000000E-01  0.51099999109E-03 0.  1.
       22    1    1    2    0    0  0.82231918823E-02  0.10640840498E-01 -0.21679262770E-01  0.25511542593E-01  0.00000000000E+00 0.  1.
       22    1    1    2    0    0 -0.11802812212E-04  0.25136354000E-02 -0.94134753907E-02  0.97433064799E-02  0.00000000000E+00 0.  1.
       22    1    1    2    0    0 -0.82113890701E-02 -0.13154475898E-01  0.31092738161E-01  0.34745150927E-01  0.00000000000E+00 0. -1.
</event>
<event>
 5   0  0.4143600E+04  0.9118800E+02  0.7546771E-02  0.1180000E+00
      -11   -1    0    0    0    0  0.00000000000E+00  0.00000000000E+00  0.34996269501E-01  0.35000000000E-01  0.51099999109E-03 0. -1.
       11   -1    0    0    0    0 -0.00000000000E+00 -0.00000000000E+00 -0.34996269501E-01  0.35000000000E-01  0.51099999109E-03 0.  1.
       22    1    1    2    0    0 -0.14895326161E-02 -0.14148475543E-01 -0.30318042932E-01  0.33490025303E-01  0.00000000000E+00 0.  1.
       22    1    1    2    0    0  0.16096680901E-02  0.14162172233E-01  0.31891576564E-01  0.34931802265E-01  0.00000000000E+00 0. -1.
       22    1    1    2    0    0 -0.12013547397E-03 -0.13696690097E-04 -0.15735336327E-02  0.15781724318E-02  0.00000000000E+00 0.  1.
</event>
<event>
 5   0  0.4143600E+04  0.9118800E+02  0.7546771E-02  0.1180000E+00
      -11   -1    0    0    0    0  0.00000000000E+00  0.00000000000E+00  0.34996269501E-01  0.35000000000E-01  0.51099999109E-03 0. -1.
       11   -1    0    0    0    0 -0.00000000000E+00 -0.00000000000E+00 -0.34996269501E-01  0.35000000000E-01  0.51099999109E-03 0.  1.
       22    1    1    2    0    0  0.18410546367E-01  0.26548003321E-01  0.12666609218E-01  0.34701407564E-01  0.00000000000E+00 0. -1.
       22    1    1    2    0    0  0.38463065780E-03 -0.16846420720E-03 -0.60258180360E-03  0.73445609947E-03  0.00000000000E+00 0. -1.
       22    1    1    2    0    0 -0.18795177024E-01 -0.26379539114E-01 -0.12064027414E-01  0.34564136336E-01  0.00000000000E+00 0.  1.
</event>
<event>
 5   0  0.4143600E+04  0.9118800E+02  0.7546771E-02  0.1180000E+00
      -11   -1    0    0    0    0  0.00000000000E+00  0.00000000000E+00  0.34996269501E-01  0.35000000000E-01  0.51099999109E-03 0.  1.
       11   -1    0    0    0    0 -0.00000000000E+00 -0.00000000000E+00 -0.34996269501E-01  0.35000000000E-01  0.51099999109E-03 0. -1.
       22    1    1    2    0    0  0.15769752124E-03  0.69987713314E-04 -0.43156238086E-03  0.46477185456E-03  0.00000000000E+00 0. -1.
       22    1    1    2    0    0 -0.64262366017E-03 -0.36151336018E-03 -0.34545610927E-01  0.34553478716E-01  0.00000000000E+00 0. -1.
       22    1    1    2    0    0  0.48492613892E-03  0.29152564687E-03  0.34977173308E-01  0.34981749429E-01  0.00000000000E+00 0.  1.
</event>
<event>
 5   0  0.4143600E+04  0.9118800E+02  0.7546771E-02  0.1180000E+00
      -11   -1    0    0    0    0  0.00000000000E+00  0.00000000000E+00  0.34996269501E-01  0.35000000000E-01  0.51099999109E-03 0.  1.
       11   -1    0    0    0    0 -0.00000000000E+00 -0.00000000000E+00 -0.34996269501E-01  0.35000000000E-01  0.51099999109E-03 0. -1.
       22    1    1    2    0    0  0.12248328197E-01  0.15976953110E-02 -0.32702906948E-01  0.34957893196E-01  0.00000000000E+00 0. -1.
       22    1    1    2    0    0 -0.11496286580E-01 -0.12245589447E-02  0.31649863928E-01  0.33695371142E-01  0.00000000000E+00 0.  1.
       22    1    1    2    0    0 -0.75204161667E-03 -0.37313636637E-03  0.10530430196E-02  0.13467356616E-02  0.00000000000E+00 0.  1.
</event>
<event>
 5   0  0.4143600E+04  0.9118800E+02  0.7546771E-02  0.1180000E+00
      -11   -1    0    0    0    0  0.00000000000E+00  0.00000000000E+00  0.34996269501E-01  0.35000000000E-01  0.51099999109E-03 0. -1.
       11   -1    0    0    0    0 -0.00000000000E+00 -0.00000000000E+00 -0.34996269501E-01  0.35000000000E-01  0.51099999109E-03 0.  1.
       22    1    1    2    0    0  0.14882889587E-02 -0.53188540255E-03 -0.33517748909E-01  0.33554990657E-01  0.00000000000E+00 0.  1.
       22    1    1    2    0    0 -0.48945282057E-03 -0.38299550144E-03 -0.13839212688E-02  0.15170654884E-02  0.00000000000E+00 0. -1.
       22    1    1    2    0    0 -0.99883613818E-03  0.91488090399E-03  0.34901670178E-01  0.34927943854E-01  0.00000000000E+00 0. -1.
</event>
<event>
 5   0  0.4143600E+04  0.9118800E+02  0.7546771E-02  0.1180000E+00
      -11   -1    0    0    0    0  0.00000000000E+00  0.00000000000E+00  0.34996269501E-01  0.35000000000E-01  0.51099999109E-03 0.  1.
       11   -1    0    0    0    0 -0.00000000000E+00 -0.00000000000E+00 -0.34996269501E-01  0.35000000000E-01  0.51099999109E-03 0. -1.
       22    1    1    2    0    0 -0.20597604841E-01 -0.26168467350E-02 -0.27996517105E-01  0.34855619088E-01  0.00000000000E+00 0. -1.
       22    1    1    2    0    0  0.39293180557E-03  0.93680324079E-06  0.23887374445E-02  0.24208392884E-02  0.00000000000E+00 0.  1.
       22    1    1    2    0    0  0.20204673035E-01  0.26159099318E-02  0.25607779661E-01  0.32723541623E-01  0.00000000000E+00 0.  1.
</event>
<event>
 5   0  0.4143600E+04  0.9118800E+02  0.7546771E-02  0.1180000E+00
      -11   -1    0    0    0    0  0.00000000000E+00  0.00000000000E+00  0.34996269501E-01  0.35000000000E-01  0.51099999109E-03 0.  1.
       11   -1    0    0    0    0 -0.00000000000E+00 -0.00000000000E+00 -0.34996269501E-01  0.35000000000E-01  0.51099999109E-03 0. -1.
       22    1    1    2    0    0  0.19197946092E-02  0.15217648954E-01 -0.23806129473E-01  0.28319503023E-01  0.00000000000E+00 0. -1.
       22    1    1    2    0    0 -0.25674324676E-02 -0.68015602549E-02 -0.67861373150E-02  0.99450787345E-02  0.00000000000E+00 0. -1.
       22    1    1    2    0    0  0.64763785837E-03 -0.84160886986E-02  0.30592266788E-01  0.31735418242E-01  0.00000000000E+00 0.  1.
</event>
<event>
 5   0  0.4143600E+04  0.9118800E+02  0.7546771E-02  0.1180000E+00
      -11   -1    0    0    0    0  0.00000000000E+00  0.00000000000E+00  0.34996269501E-01  0.35000000000E-01  0.51099999109E-03 0.  1.
       11   -1    0    0    0    0 -0.00000000000E+00 -0.00000000000E+00 -0.34996269501E-01  0.35000000000E-01  0.51099999109E-03 0. -1.
       22    1    1    2    0    0  0.10078623246E-01  0.42865130544E-04 -0.18602722808E-01  0.21157546640E-01  0.00000000000E+00 0. -1.
       22    1    1    2    0    0 -0.82002450868E-02  0.14287422450E-02  0.33109990174E-01  0.34140251511E-01  0.00000000000E+00 0.  1.
       22    1    1    2    0    0 -0.18783781588E-02 -0.14716073755E-02 -0.14507267366E-01  0.14702201849E-01  0.00000000000E+00 0.  1.
</event>
<event>
 5   0  0.4143600E+04  0.9118800E+02  0.7546771E-02  0.1180000E+00
      -11   -1    0    0    0    0  0.00000000000E+00  0.00000000000E+00  0.34996269501E-01  0.35000000000E-01  0.51099999109E-03 0. -1.
       11   -1    0    0    0    0 -0.00000000000E+00 -0.00000000000E+00 -0.34996269501E-01  0.35000000000E-01  0.51099999109E-03 0.  1.
       22    1    1    2    0    0 -0.70710088218E-02  0.12220125429E-01 -0.32013661450E-01  0.34988643167E-01  0.00000000000E+00 0.  1.
       22    1    1    2    0    0  0.16524888833E-04 -0.34370871029E-04  0.42431201960E-03  0.42602243921E-03  0.00000000000E+00 0. -1.
       22    1    1    2    0    0  0.70544839330E-02 -0.12185754558E-01  0.31589349430E-01  0.34585334394E-01  0.00000000000E+00 0. -1.
</event>
<event>
 5   0  0.4143600E+04  0.9118800E+02  0.7546771E-02  0.1180000E+00
      -11   -1    0    0    0    0  0.00000000000E+00  0.00000000000E+00  0.34996269501E-01  0.35000000000E-01  0.51099999109E-03 0.  1.
       11   -1    0    0    0    0 -0.00000000000E+00 -0.00000000000E+00 -0.34996269501E-01  0.35000000000E-01  0.51099999109E-03 0. -1.
       22    1    1    2    0    0 -0.16960642411E-02 -0.12284867799E-02  0.12785045036E-01  0.12955430917E-01  0.00000000000E+00 0.  1.
       22    1    1    2    0    0  0.13921139091E-01 -0.14570288816E-02 -0.31534354228E-01  0.34501254228E-01  0.00000000000E+00 0. -1.
       22    1    1    2    0    0 -0.12225074850E-01  0.26855156614E-02  0.18749309193E-01  0.22543314855E-01  0.00000000000E+00 0.  1.
</event>
<event>
 5   0  0.4143600E+04  0.9118800E+02  0.7546771E-02  0.1180000E+00
      -11   -1    0    0    0    0  0.00000000000E+00  0.00000000000E+00  0.34996269501E-01  0.35000000000E-01  0.51099999109E-03 0.  1.
       11   -1    0    0    0    0 -0.00000000000E+00 -0.00000000000E+00 -0.34996269501E-01  0.35000000000E-01  0.51099999109E-03 0. -1.
       22    1    1    2    0    0 -0.69321950332E-03 -0.71894405812E-03 -0.34497535713E-01  0.34511989280E-01  0.00000000000E+00 0. -1.
       22    1    1    2    0    0  0.18154056056E-03 -0.92341330918E-05 -0.47270315546E-03  0.50644892884E-03  0.00000000000E+00 0.  1.
       22    1    1    2    0    0  0.51167894275E-03  0.72817819121E-03  0.34970238868E-01  0.34981561791E-01  0.00000000000E+00 0.  1.
</event>
<event>
 5   0  0.4143600E+04  0.9118800E+02  0.7546771E-02  0.1180000E+00
      -11   -1    0    0    0    0  0.00000000000E+00  0.00000000000E+00  0.34996269501E-01  0.35000000000E-01  0.51099999109E-03 0. -1.
       11   -1    0    0    0    0 -0.00000000000E+00 -0.00000000000E+00 -0.34996269501E-01  0.35000000000E-01  0.51099999109E-03 0.  1.
       22    1    1    2    0    0  0.45340861816E-02  0.31255013978E-02  0.34455704917E-01  0.34893012164E-01  0.00000000000E+00 0. -1.
       22    1    1    2    0    0 -0.39062740101E-02 -0.33865149809E-02 -0.33684262890E-01  0.34078688748E-01  0.00000000000E+00 0.  1.
       22    1    1    2    0    0 -0.62781217149E-03  0.26101358302E-03 -0.77144202735E-03  0.10282990882E-02  0.00000000000E+00 0. -1.
</event>
<event>
 5   0  0.4143600E+04  0.9118800E+02  0.7546771E-02  0.1180000E+00
      -11   -1    0    0    0    0  0.00000000000E+00  0.00000000000E+00  0.34996269501E-01  0.35000000000E-01  0.51099999109E-03 0.  1.
       11   -1    0    0    0    0 -0.00000000000E+00 -0.00000000000E+00 -0.34996269501E-01  0.35000000000E-01  0.51099999109E-03 0. -1.
       22    1    1    2    0    0  0.44319939947E-04  0.28306553275E-05  0.32266632573E-03  0.32570819371E-03  0.00000000000E+00 0.  1.
       22    1    1    2    0    0  0.13554724200E-01 -0.23400410402E-02  0.31835913925E-01  0.34680423234E-01  0.00000000000E+00 0.  1.
       22    1    1    2    0    0 -0.13599044140E-01  0.23372103849E-02 -0.32158580251E-01  0.34993868573E-01  0.00000000000E+00 0. -1.
</event>
<event>
 5   0  0.4143600E+04  0.9118800E+02  0.7546771E-02  0.1180000E+00
      -11   -1    0    0    0    0  0.00000000000E+00  0.00000000000E+00  0.34996269501E-01  0.35000000000E-01  0.51099999109E-03 0. -1.
       11   -1    0    0    0    0 -0.00000000000E+00 -0.00000000000E+00 -0.34996269501E-01  0.35000000000E-01  0.51099999109E-03 0.  1.
       22    1    1    2    0    0 -0.71614552261E-02  0.14771634482E-01  0.30885705743E-01  0.34977341887E-01  0.00000000000E+00 0. -1.
       22    1    1    2    0    0  0.70976665637E-02 -0.14771667814E-01 -0.30429588808E-01  0.34562102304E-01  0.00000000000E+00 0.  1.
       22    1    1    2    0    0  0.63788662399E-04  0.33331365435E-07 -0.45611693484E-03  0.46055580858E-03  0.00000000000E+00 0.  1.
</event>
<event>
 5   0  0.4143600E+04  0.9118800E+02  0.7546771E-02  0.1180000E+00
      -11   -1    0    0    0    0  0.00000000000E+00  0.00000000000E+00  0.34996269501E-01  0.35000000000E-01  0.51099999109E-03 0.  1.
       11   -1    0    0    0    0 -0.00000000000E+00 -0.00000000000E+00 -0.34996269501E-01  0.35000000000E-01  0.51099999109E-03 0.  1.
       22    1    1    2    0    0  0.00000000000E+00  0.00000000000E+00  0.34979873240E-01  0.34977079248E-01  0.00000000000E+00 0.  1.
       22    1    1    2    0    0 -0.13638506329E-03  0.14114204872E-03 -0.43206123229E-03  0.47455123206E-03  0.00000000000E+00 0. -1.
       22    1    1    2    0    0  0.13638506329E-03 -0.14114204872E-03 -0.34547812008E-01  0.34548369520E-01  0.00000000000E+00 0.  1.
</event>
<event>
 5   0  0.4143600E+04  0.9118800E+02  0.7546771E-02  0.1180000E+00
      -11   -1    0    0    0    0  0.00000000000E+00  0.00000000000E+00  0.34996269501E-01  0.35000000000E-01  0.51099999109E-03 0.  1.
       11   -1    0    0    0    0 -0.00000000000E+00 -0.00000000000E+00 -0.34996269501E-01  0.35000000000E-01  0.51099999109E-03 0. -1.
       22    1    1    2    0    0 -0.74456115987E-02  0.94475742961E-02 -0.32729761820E-01  0.34870203627E-01  0.00000000000E+00 0. -1.
       22    1    1    2    0    0  0.76355713345E-02 -0.93032462478E-02  0.29079244891E-01  0.31471492239E-01  0.00000000000E+00 0.  1.
       22    1    1    2    0    0 -0.18995973582E-03 -0.14432804826E-03  0.36505169295E-02  0.36583041343E-02  0.00000000000E+00 0.  1.
</event>
<event>
 5   0  0.4143600E+04  0.9118800E+02  0.7546771E-02  0.1180000E+00
      -11   -1    0    0    0    0  0.00000000000E+00  0.00000000000E+00  0.34996269501E-01  0.35000000000E-01  0.51099999109E-03 0. -1.
       11   -1    0    0    0    0 -0.00000000000E+00 -0.00000000000E+00 -0.34996269501E-01  0.35000000000E-01  0.51099999109E-03 0.  1.
       22    1    1    2    0    0 -0.89364748119E-02 -0.29519896433E-02  0.33606995214E-01  0.34899927683E-01  0.00000000000E+00 0. -1.
       22    1    1    2    0    0  0.16022177021E-02 -0.34794906201E-03 -0.26564107057E-02  0.31216482749E-02  0.00000000000E+00 0. -1.
       22    1    1    2    0    0  0.73342571098E-02  0.32999387053E-02 -0.30950584509E-01  0.31978424042E-01  0.00000000000E+00 0.  1.
</event>
<event>
 5   0  0.4143600E+04  0.9118800E+02  0.7546771E-02  0.1180000E+00
      -11   -1    0    0    0    0  0.00000000000E+00  0.00000000000E+00  0.34996269501E-01  0.35000000000E-01  0.51099999109E-03 0. -1.
       11   -1    0    0    0    0 -0.00000000000E+00 -0.00000000000E+00 -0.34996269501E-01  0.35000000000E-01  0.51099999109E-03 0.  1.
       22    1    1    2    0    0  0.97541010141E-03 -0.10426049728E-02  0.75012995443E-02  0.76359639109E-02  0.00000000000E+00 0.  1.
       22    1    1    2    0    0  0.28593725766E-03 -0.13640072591E-01 -0.31428923096E-01  0.34262378017E-01  0.00000000000E+00 0.  1.
       22    1    1    2    0    0 -0.12613473591E-02  0.14682677564E-01  0.23927623551E-01  0.28101658072E-01  0.00000000000E+00 0. -1.
</event>
<event>
 5   0  0.4143600E+04  0.9118800E+02  0.7546771E-02  0.1180000E+00
      -11   -1    0    0    0    0  0.00000000000E+00  0.00000000000E+00  0.34996269501E-01  0.35000000000E-01  0.51099999109E-03 0. -1.
       11   -1    0    0    0    0 -0.00000000000E+00 -0.00000000000E+00 -0.34996269501E-01  0.35000000000E-01  0.51099999109E-03 0.  1.
       22    1    1    2    0    0  0.55267590253E-02 -0.37270687942E-03 -0.11439673943E-01  0.12710236648E-01  0.00000000000E+00 0.  1.
       22    1    1    2    0    0 -0.23027181815E-02 -0.11613189900E-01 -0.20137974096E-01  0.23360365823E-01  0.00000000000E+00 0.  1.
       22    1    1    2    0    0 -0.32240408438E-02  0.11985896780E-01  0.31577648039E-01  0.33929397529E-01  0.00000000000E+00 0. -1.
</event>
<event>
 5   0  0.4143600E+04  0.9118800E+02  0.7546771E-02  0.1180000E+00
      -11   -1    0    0    0    0  0.00000000000E+00  0.00000000000E+00  0.34996269501E-01  0.35000000000E-01  0.51099999109E-03 0.  1.
       11   -1    0    0    0    0 -0.00000000000E+00 -0.00000000000E+00 -0.34996269501E-01  0.35000000000E-01  0.51099999109E-03 0. -1.
       22    1    1    2    0    0 -0.21012960356E-01  0.25416720604E-02 -0.27797663189E-01  0.34938727489E-01  0.00000000000E+00 0. -1.
       22    1    1    2    0    0  0.21027758910E-01 -0.25588784059E-02  0.27258310397E-01  0.34521442455E-01  0.00000000000E+00 0.  1.
       22    1    1    2    0    0 -0.14798554758E-04  0.17206345531E-04  0.53935279185E-03  0.53983005625E-03  0.00000000000E+00 0.  1.
</event>
<event>
 5   0  0.4143600E+04  0.9118800E+02  0.7546771E-02  0.1180000E+00
      -11   -1    0    0    0    0  0.00000000000E+00  0.00000000000E+00  0.34996269501E-01  0.35000000000E-01  0.51099999109E-03 0. -1.
       11   -1    0    0    0    0 -0.00000000000E+00 -0.00000000000E+00 -0.34996269501E-01  0.35000000000E-01  0.51099999109E-03 0.  1.
       22    1    1    2    0    0  0.33355543758E-02  0.28276180434E-02  0.65087891638E-02  0.78412807099E-02  0.00000000000E+00 0.  1.
       22    1    1    2    0    0  0.10800659292E-01 -0.16924516773E-01 -0.26936520198E-01  0.33595678733E-01  0.00000000000E+00 0.  1.
       22    1    1    2    0    0 -0.14136213667E-01  0.14096898730E-01  0.20427731035E-01  0.28563040557E-01  0.00000000000E+00 0. -1.
</event>
<event>
 5   0  0.4143600E+04  0.9118800E+02  0.7546771E-02  0.1180000E+00
      -11   -1    0    0    0    0  0.00000000000E+00  0.00000000000E+00  0.34996269501E-01  0.35000000000E-01  0.51099999109E-03 0. -1.
       11   -1    0    0    0    0 -0.00000000000E+00 -0.00000000000E+00 -0.34996269501E-01  0.35000000000E-01  0.51099999109E-03 0.  1.
       22    1    1    2    0    0  0.16209134516E-01  0.16516764724E-01  0.26156853945E-01  0.34924498093E-01  0.00000000000E+00 0. -1.
       22    1    1    2    0    0 -0.15881820666E-01 -0.16349603264E-01 -0.26173921353E-01  0.34707577178E-01  0.00000000000E+00 0.  1.
       22    1    1    2    0    0 -0.32731385004E-03 -0.16716145994E-03  0.17067407704E-04  0.36792472942E-03  0.00000000000E+00 0.  1.
</event>
<event>
 5   0  0.4143600E+04  0.9118800E+02  0.7546771E-02  0.1180000E+00
      -11   -1    0    0    0    0  0.00000000000E+00  0.00000000000E+00  0.34996269501E-01  0.35000000000E-01  0.51099999109E-03 0. -1.
       11   -1    0    0    0    0 -0.00000000000E+00 -0.00000000000E+00 -0.34996269501E-01  0.35000000000E-01  0.51099999109E-03 0.  1.
       22    1    1    2    0    0  0.29682901884E-03 -0.37430917330E-04 -0.35773131148E-03  0.46634775780E-03  0.00000000000E+00 0.  1.
       22    1    1    2    0    0  0.67220335097E-03  0.19488233451E-02 -0.34524331030E-01  0.34585823727E-01  0.00000000000E+00 0.  1.
       22    1    1    2    0    0 -0.96903236980E-03 -0.19113924278E-02  0.34882062342E-01  0.34947828516E-01  0.00000000000E+00 0. -1.
</event>
<event>
 5   0  0.4143600E+04  0.9118800E+02  0.7546771E-02  0.1180000E+00
      -11   -1    0    0    0    0  0.00000000000E+00  0.00000000000E+00  0.34996269501E-01  0.35000000000E-01  0.51099999109E-03 0. -1.
       11   -1    0    0    0    0 -0.00000000000E+00 -0.00000000000E+00 -0.34996269501E-01  0.35000000000E-01  0.51099999109E-03 0.  1.
       22    1    1    2    0    0 -0.37416485057E-04 -0.10313979636E-03  0.10672453754E-02  0.10728702169E-02  0.00000000000E+00 0. -1.
       22    1    1    2    0    0  0.20584112009E-01  0.39248680762E-02 -0.27914376457E-01  0.34904479220E-01  0.00000000000E+00 0.  1.
       22    1    1    2    0    0 -0.20546695524E-01 -0.38217282798E-02  0.26847131082E-01  0.34022650563E-01  0.00000000000E+00 0. -1.
</event>
<event>
 5   0  0.4143600E+04  0.9118800E+02  0.7546771E-02  0.1180000E+00
      -11   -1    0    0    0    0  0.00000000000E+00  0.00000000000E+00  0.34996269501E-01  0.35000000000E-01  0.51099999109E-03 0.  1.
       11   -1    0    0    0    0 -0.00000000000E+00 -0.00000000000E+00 -0.34996269501E-01  0.35000000000E-01  0.51099999109E-03 0. -1.
       22    1    1    2    0    0 -0.40741281880E-03  0.51381326091E-03 -0.17185021550E-02  0.18393582927E-02  0.00000000000E+00 0. -1.
       22    1    1    2    0    0 -0.11213431589E-01 -0.18550679368E-01 -0.25521876432E-01  0.33484846269E-01  0.00000000000E+00 0. -1.
       22    1    1    2    0    0  0.11620844408E-01  0.18036866107E-01  0.27240378587E-01  0.34675795439E-01  0.00000000000E+00 0.  1.
</event>
<event>
 5   0  0.4143600E+04  0.9118800E+02  0.7546771E-02  0.1180000E+00
      -11   -1    0    0    0    0  0.00000000000E+00  0.00000000000E+00  0.34996269501E-01  0.35000000000E-01  0.51099999109E-03 0.  1.
       11   -1    0    0    0    0 -0.00000000000E+00 -0.00000000000E+00 -0.34996269501E-01  0.35000000000E-01  0.51099999109E-03 0. -1.
       22    1    1    2    0    0  0.99947443485E-03 -0.22310379656E-01 -0.25288264342E-01  0.33737935666E-01  0.00000000000E+00 0. -1.
       22    1    1    2    0    0 -0.74558079056E-03  0.21828458548E-01  0.26847966136E-01  0.34609980915E-01  0.00000000000E+00 0.  1.
       22    1    1    2    0    0 -0.25389364429E-03  0.48192110871E-03 -0.15597017943E-02  0.16520834195E-02  0.00000000000E+00 0. -1.
</event>
<event>
 5   0  0.4143600E+04  0.9118800E+02  0.7546771E-02  0.1180000E+00
      -11   -1    0    0    0    0  0.00000000000E+00  0.00000000000E+00  0.34996269501E-01  0.35000000000E-01  0.51099999109E-03 0. -1.
       11   -1    0    0    0    0 -0.00000000000E+00 -0.00000000000E+00 -0.34996269501E-01  0.35000000000E-01  0.51099999109E-03 0.  1.
       22    1    1    2    0    0  0.46371292290E-03 -0.69815932285E-03 -0.74402230444E-02  0.74872808860E-02  0.00000000000E+00 0.  1.
       22    1    1    2    0    0  0.47793332731E-02 -0.16002704445E-01  0.29772990068E-01  0.34137362430E-01  0.00000000000E+00 0. -1.
       22    1    1    2    0    0 -0.52430461960E-02  0.16700863767E-01 -0.22332767024E-01  0.28375356684E-01  0.00000000000E+00 0.  1.
</event>
<event>
 5   0  0.4143600E+04  0.9118800E+02  0.7546771E-02  0.1180000E+00
      -11   -1    0    0    0    0  0.00000000000E+00  0.00000000000E+00  0.34996269501E-01  0.35000000000E-01  0.51099999109E-03 0. -1.
       11   -1    0    0    0    0 -0.00000000000E+00 -0.00000000000E+00 -0.34996269501E-01  0.35000000000E-01  0.51099999109E-03 0.  1.
       22    1    1    2    0    0  0.14185832321E-01 -0.12699610614E-01  0.20805439560E-01  0.28202557750E-01  0.00000000000E+00 0. -1.
       22    1    1    2    0    0 -0.10171309858E-01  0.66787247212E-02 -0.28648756239E-01  0.31125747255E-01  0.00000000000E+00 0.  1.
       22    1    1    2    0    0 -0.40145224627E-02  0.60208858924E-02  0.78433166789E-02  0.10671694995E-01  0.00000000000E+00 0.  1.
</event>
<event>
 5   0  0.4143600E+04  0.9118800E+02  0.7546771E-02  0.1180000E+00
      -11   -1    0    0    0    0  0.00000000000E+00  0.00000000000E+00  0.34996269501E-01  0.35000000000E-01  0.51099999109E-03 0.  1.
       11   -1    0    0    0    0 -0.00000000000E+00 -0.00000000000E+00 -0.34996269501E-01  0.35000000000E-01  0.51099999109E-03 0. -1.
       22    1    1    2    0    0 -0.79348815688E-02 -0.80177568289E-02 -0.32134985289E-01  0.34057364102E-01  0.00000000000E+00 0. -1.
       22    1    1    2    0    0  0.83989290060E-02  0.85381082234E-02  0.32837157864E-01  0.34953114841E-01  0.00000000000E+00 0.  1.
       22    1    1    2    0    0 -0.46404743718E-03 -0.52035139448E-03 -0.70217257535E-03  0.98952105751E-03  0.00000000000E+00 0.  1.
</event>
<event>
 5   0  0.4143600E+04  0.9118800E+02  0.7546771E-02  0.1180000E+00
      -11   -1    0    0    0    0  0.00000000000E+00  0.00000000000E+00  0.34996269501E-01  0.35000000000E-01  0.51099999109E-03 0.  1.
       11   -1    0    0    0    0 -0.00000000000E+00 -0.00000000000E+00 -0.34996269501E-01  0.35000000000E-01  0.51099999109E-03 0. -1.
       22    1    1    2    0    0 -0.93117726272E-04 -0.50354377098E-04  0.34737501174E-03  0.36314717818E-03  0.00000000000E+00 0. -1.
       22    1    1    2    0    0 -0.77868142564E-02 -0.21792832309E-01 -0.26152780168E-01  0.34921768667E-01  0.00000000000E+00 0. -1.
       22    1    1    2    0    0  0.78799319827E-02  0.21843186686E-01  0.25805405156E-01  0.34715084155E-01  0.00000000000E+00 0.  1.
</event>
<event>
 5   0  0.4143600E+04  0.9118800E+02  0.7546771E-02  0.1180000E+00
      -11   -1    0    0    0    0  0.00000000000E+00  0.00000000000E+00  0.34996269501E-01  0.35000000000E-01  0.51099999109E-03 0. -1.
       11   -1    0    0    0    0 -0.00000000000E+00 -0.00000000000E+00 -0.34996269501E-01  0.35000000000E-01  0.51099999109E-03 0.  1.
       22    1    1    2    0    0 -0.19887443270E-01 -0.20816174109E-02  0.28328626293E-01  0.34674985199E-01  0.00000000000E+00 0. -1.
       22    1    1    2    0    0  0.17126400437E-01  0.44695742418E-03 -0.26707272799E-01  0.31729982402E-01  0.00000000000E+00 0.  1.
       22    1    1    2    0    0  0.27610428330E-02  0.16346599867E-02 -0.16213534944E-02  0.35950323993E-02  0.00000000000E+00 0.  1.
</event>
<event>
 5   0  0.4143600E+04  0.9118800E+02  0.7546771E-02  0.1180000E+00
      -11   -1    0    0    0    0  0.00000000000E+00  0.00000000000E+00  0.34996269501E-01  0.35000000000E-01  0.51099999109E-03 0.  1.
       11   -1    0    0    0    0 -0.00000000000E+00 -0.00000000000E+00 -0.34996269501E-01  0.35000000000E-01  0.51099999109E-03 0. -1.
       22    1    1    2    0    0 -0.16630096877E-01 -0.17675042201E-01 -0.24694014794E-01  0.34623136854E-01  0.00000000000E+00 0. -1.
       22    1    1    2    0    0  0.16685785231E-01  0.17745844508E-01  0.22434374796E-01  0.33115428407E-01  0.00000000000E+00 0.  1.
       22    1    1    2    0    0 -0.55688354341E-04 -0.70802307075E-04  0.22596399980E-02  0.22614347393E-02  0.00000000000E+00 0. -1.
</event>
<event>
 5   0  0.4143600E+04  0.9118800E+02  0.7546771E-02  0.1180000E+00
      -11   -1    0    0    0    0  0.00000000000E+00  0.00000000000E+00  0.34996269501E-01  0.35000000000E-01  0.51099999109E-03 0. -1.
       11   -1    0    0    0    0 -0.00000000000E+00 -0.00000000000E+00 -0.34996269501E-01  0.35000000000E-01  0.51099999109E-03 0.  1.
       22    1    1    2    0    0  0.22443226559E-02 -0.93329427278E-03 -0.22537684821E-01  0.22668375757E-01  0.00000000000E+00 0.  1.
       22    1    1    2    0    0 -0.41146719520E-02 -0.22625664083E-02 -0.11849316316E-01  0.12745823990E-01  0.00000000000E+00 0.  1.
       22    1    1    2    0    0  0.18703492961E-02  0.31958606811E-02  0.34387001137E-01  0.34585800253E-01  0.00000000000E+00 0. -1.
</event>
<event>
 5   0  0.4143600E+04  0.9118800E+02  0.7546771E-02  0.1180000E+00
      -11   -1    0    0    0    0  0.00000000000E+00  0.00000000000E+00  0.34996269501E-01  0.35000000000E-01  0.51099999109E-03 0.  1.
       11   -1    0    0    0    0 -0.00000000000E+00 -0.00000000000E+00 -0.34996269501E-01  0.35000000000E-01  0.51099999109E-03 0. -1.
       22    1    1    2    0    0 -0.83415534501E-02  0.63888384792E-02 -0.27037045219E-01  0.29006905820E-01  0.00000000000E+00 0. -1.
       22    1    1    2    0    0  0.83221645622E-02 -0.61473727848E-02  0.33225871877E-01  0.34799528404E-01  0.00000000000E+00 0.  1.
       22    1    1    2    0    0  0.19388887830E-04 -0.24146569433E-03 -0.61888266584E-02  0.61935657758E-02  0.00000000000E+00 0.  1.
</event>
<event>
 5   0  0.4143600E+04  0.9118800E+02  0.7546771E-02  0.1180000E+00
      -11   -1    0    0    0    0  0.00000000000E+00  0.00000000000E+00  0.34996269501E-01  0.35000000000E-01  0.51099999109E-03 0. -1.
       11   -1    0    0    0    0 -0.00000000000E+00 -0.00000000000E+00 -0.34996269501E-01  0.35000000000E-01  0.51099999109E-03 0.  1.
       22    1    1    2    0    0  0.31029984276E-02  0.15530762679E-01  0.29352995790E-01  0.33353134043E-01  0.00000000000E+00 0. -1.
       22    1    1    2    0    0 -0.23190005361E-02 -0.12702569812E-01 -0.30783475059E-01  0.33381961896E-01  0.00000000000E+00 0.  1.
       22    1    1    2    0    0 -0.78399789151E-03 -0.28281928674E-02  0.14304792690E-02  0.32649040611E-02  0.00000000000E+00 0.  1.
</event>
<event>
 5   0  0.4143600E+04  0.9118800E+02  0.7546771E-02  0.1180000E+00
      -11   -1    0    0    0    0  0.00000000000E+00  0.00000000000E+00  0.34996269501E-01  0.35000000000E-01  0.51099999109E-03 0. -1.
       11   -1    0    0    0    0 -0.00000000000E+00 -0.00000000000E+00 -0.34996269501E-01  0.35000000000E-01  0.51099999109E-03 0.  1.
       22    1    1    2    0    0  0.99665020135E-02 -0.13971190973E-01 -0.28228481933E-01  0.33035927894E-01  0.00000000000E+00 0.  1.
       22    1    1    2    0    0 -0.79933144326E-02  0.14134111223E-01  0.10978545717E-01  0.19600883698E-01  0.00000000000E+00 0. -1.
       22    1    1    2    0    0 -0.19731875809E-02 -0.16292024957E-03  0.17249936216E-01  0.17363188408E-01  0.00000000000E+00 0. -1.
</event>
<event>
 5   0  0.4143600E+04  0.9118800E+02  0.7546771E-02  0.1180000E+00
      -11   -1    0    0    0    0  0.00000000000E+00  0.00000000000E+00  0.34996269501E-01  0.35000000000E-01  0.51099999109E-03 0. -1.
       11   -1    0    0    0    0 -0.00000000000E+00 -0.00000000000E+00 -0.34996269501E-01  0.35000000000E-01  0.51099999109E-03 0.  1.
       22    1    1    2    0    0 -0.12119815689E-01 -0.66905468585E-02  0.29712505950E-01  0.32779358740E-01  0.00000000000E+00 0. -1.
       22    1    1    2    0    0  0.12261356021E-01  0.67669408478E-02 -0.31998488119E-01  0.34929007741E-01  0.00000000000E+00 0.  1.
       22    1    1    2    0    0 -0.14154033183E-03 -0.76393989325E-04  0.22859821687E-02  0.22916335184E-02  0.00000000000E+00 0.  1.
</event>
<event>
 5   0  0.4143600E+04  0.9118800E+02  0.7546771E-02  0.1180000E+00
      -11   -1    0    0    0    0  0.00000000000E+00  0.00000000000E+00  0.34996269501E-01  0.35000000000E-01  0.51099999109E-03 0. -1.
       11   -1    0    0    0    0 -0.00000000000E+00 -0.00000000000E+00 -0.34996269501E-01  0.35000000000E-01  0.51099999109E-03 0.  1.
       22    1    1    2    0    0  0.10553457975E-01  0.62705609384E-02  0.29475742667E-01  0.31929842084E-01  0.00000000000E+00 0. -1.
       22    1    1    2    0    0 -0.13489906735E-01 -0.79776135986E-02 -0.30692437877E-01  0.34462235059E-01  0.00000000000E+00 0.  1.
       22    1    1    2    0    0  0.29364487607E-02  0.17070526602E-02  0.12166952094E-02  0.36079228569E-02  0.00000000000E+00 0. -1.
</event>
<event>
 5   0  0.4143600E+04  0.9118800E+02  0.7546771E-02  0.1180000E+00
      -11   -1    0    0    0    0  0.00000000000E+00  0.00000000000E+00  0.34996269501E-01  0.35000000000E-01  0.51099999109E-03 0. -1.
       11   -1    0    0    0    0 -0.00000000000E+00 -0.00000000000E+00 -0.34996269501E-01  0.35000000000E-01  0.51099999109E-03 0.  1.
       22    1    1    2    0    0  0.14064952192E-01  0.62297497984E-02  0.26796807000E-01  0.30898244742E-01  0.00000000000E+00 0. -1.
       22    1    1    2    0    0 -0.50820975511E-03  0.33292047547E-02  0.33135396231E-02  0.47245556710E-02  0.00000000000E+00 0.  1.
       22    1    1    2    0    0 -0.13556742437E-01 -0.95589545531E-02 -0.30110346623E-01  0.34377199587E-01  0.00000000000E+00 0.  1.
</event>
<event>
 5   0  0.4143600E+04  0.9118800E+02  0.7546771E-02  0.1180000E+00
      -11   -1    0    0    0    0  0.00000000000E+00  0.00000000000E+00  0.34996269501E-01  0.35000000000E-01  0.51099999109E-03 0.  1.
       11   -1    0    0    0    0 -0.00000000000E+00 -0.00000000000E+00 -0.34996269501E-01  0.35000000000E-01  0.51099999109E-03 0. -1.
       22    1    1    2    0    0 -0.90139154032E-03  0.11835800632E-01  0.32393259684E-01  0.34499593566E-01  0.00000000000E+00 0.  1.
       22    1    1    2    0    0  0.77074776338E-03 -0.11687489992E-01 -0.20535720621E-01  0.23641220270E-01  0.00000000000E+00 0. -1.
       22    1    1    2    0    0  0.13064377694E-03 -0.14831063944E-03 -0.11857539062E-01  0.11859186163E-01  0.00000000000E+00 0. -1.
</event>
<event>
 5   0  0.4143600E+04  0.9118800E+02  0.7546771E-02  0.1180000E+00
      -11   -1    0    0    0    0  0.00000000000E+00  0.00000000000E+00  0.34996269501E-01  0.35000000000E-01  0.51099999109E-03 0. -1.
       11   -1    0    0    0    0 -0.00000000000E+00 -0.00000000000E+00 -0.34996269501E-01  0.35000000000E-01  0.51099999109E-03 0.  1.
       22    1    1    2    0    0  0.64615649891E-03  0.38404430935E-02 -0.15176210809E-02  0.41796764373E-02  0.00000000000E+00 0.  1.
       22    1    1    2    0    0  0.17824801735E-01  0.57003232587E-02 -0.25562382400E-01  0.31680477207E-01  0.00000000000E+00 0.  1.
       22    1    1    2    0    0 -0.18470958234E-01 -0.95407663522E-02  0.27080003481E-01  0.34139846355E-01  0.00000000000E+00 0. -1.
</event>
<event>
 5   0  0.4143600E+04  0.9118800E+02  0.7546771E-02  0.1180000E+00
      -11   -1    0    0    0    0  0.00000000000E+00  0.00000000000E+00  0.34996269501E-01  0.35000000000E-01  0.51099999109E-03 0.  1.
       11   -1    0    0    0    0 -0.00000000000E+00 -0.00000000000E+00 -0.34996269501E-01  0.35000000000E-01  0.51099999109E-03 0. -1.
       22    1    1    2    0    0  0.17485604853E-01  0.19875242752E-01  0.21823068203E-01  0.34307695308E-01  0.00000000000E+00 0.  1.
       22    1    1    2    0    0  0.11541421990E-02 -0.11769424868E-02 -0.24166702515E-02  0.29253261249E-02  0.00000000000E+00 0.  1.
       22    1    1    2    0    0 -0.18639747052E-01 -0.18698300265E-01 -0.19406397952E-01  0.32766978567E-01  0.00000000000E+00 0. -1.
</event>
<event>
 5   0  0.4143600E+04  0.9118800E+02  0.7546771E-02  0.1180000E+00
      -11   -1    0    0    0    0  0.00000000000E+00  0.00000000000E+00  0.34996269501E-01  0.35000000000E-01  0.51099999109E-03 0. -1.
       11   -1    0    0    0    0 -0.00000000000E+00 -0.00000000000E+00 -0.34996269501E-01  0.35000000000E-01  0.51099999109E-03 0.  1.
       22    1    1    2    0    0 -0.21996099750E-01 -0.95562126798E-02  0.21381396006E-01  0.32129638967E-01  0.00000000000E+00 0. -1.
       22    1    1    2    0    0  0.14577344745E-02  0.26286432073E-02  0.36698107908E-02  0.47436553574E-02  0.00000000000E+00 0.  1.
       22    1    1    2    0    0  0.20538365275E-01  0.69275694725E-02 -0.25051206796E-01  0.33126705676E-01  0.00000000000E+00 0.  1.
</event>
<event>
 5   0  0.4143600E+04  0.9118800E+02  0.7546771E-02  0.1180000E+00
      -11   -1    0    0    0    0  0.00000000000E+00  0.00000000000E+00  0.34996269501E-01  0.35000000000E-01  0.51099999109E-03 0. -1.
       11   -1    0    0    0    0 -0.00000000000E+00 -0.00000000000E+00 -0.34996269501E-01  0.35000000000E-01  0.51099999109E-03 0.  1.
       22    1    1    2    0    0 -0.16038016107E-01  0.10664052016E-01  0.29043437450E-01  0.34849120864E-01  0.00000000000E+00 0. -1.
       22    1    1    2    0    0  0.15685315315E-01 -0.10756260323E-01 -0.26712014833E-01  0.32791126682E-01  0.00000000000E+00 0.  1.
       22    1    1    2    0    0  0.35270079213E-03  0.92208307425E-04 -0.23314226178E-02  0.23597524538E-02  0.00000000000E+00 0.  1.
</event>
<event>
 5   0  0.4143600E+04  0.9118800E+02  0.7546771E-02  0.1180000E+00
      -11   -1    0    0    0    0  0.00000000000E+00  0.00000000000E+00  0.34996269501E-01  0.35000000000E-01  0.51099999109E-03 0. -1.
       11   -1    0    0    0    0 -0.00000000000E+00 -0.00000000000E+00 -0.34996269501E-01  0.35000000000E-01  0.51099999109E-03 0.  1.
       22    1    1    2    0    0 -0.64961150483E-03  0.41775610439E-02 -0.14841983264E-01  0.15432384087E-01  0.00000000000E+00 0.  1.
       22    1    1    2    0    0  0.84698221739E-02  0.24923780019E-02 -0.18057298244E-01  0.20100145662E-01  0.00000000000E+00 0.  1.
       22    1    1    2    0    0 -0.78202106690E-02 -0.66699390459E-02  0.32899281508E-01  0.34467470251E-01  0.00000000000E+00 0. -1.
</event>
<event>
 5   0  0.4143600E+04  0.9118800E+02  0.7546771E-02  0.1180000E+00
      -11   -1    0    0    0    0  0.00000000000E+00  0.00000000000E+00  0.34996269501E-01  0.35000000000E-01  0.51099999109E-03 0.  1.
       11   -1    0    0    0    0 -0.00000000000E+00 -0.00000000000E+00 -0.34996269501E-01  0.35000000000E-01  0.51099999109E-03 0. -1.
       22    1    1    2    0    0 -0.14551681003E-01  0.16367011481E-01 -0.26036330842E-01  0.34022360420E-01  0.00000000000E+00 0. -1.
       22    1    1    2    0    0  0.13861178116E-01 -0.16136320607E-01  0.27245440717E-01  0.34566271731E-01  0.00000000000E+00 0.  1.
       22    1    1    2    0    0  0.69050288656E-03 -0.23069087423E-03 -0.12091098752E-02  0.14113678493E-02  0.00000000000E+00 0. -1.
</event>
<event>
 5   0  0.4143600E+04  0.9118800E+02  0.7546771E-02  0.1180000E+00
      -11   -1    0    0    0    0  0.00000000000E+00  0.00000000000E+00  0.34996269501E-01  0.35000000000E-01  0.51099999109E-03 0.  1.
       11   -1    0    0    0    0 -0.00000000000E+00 -0.00000000000E+00 -0.34996269501E-01  0.35000000000E-01  0.51099999109E-03 0. -1.
       22    1    1    2    0    0  0.22808726333E-01 -0.38094018174E-02 -0.24933496272E-01  0.34006304937E-01  0.00000000000E+00 0. -1.
       22    1    1    2    0    0 -0.23295329743E-01  0.45322430809E-02  0.25591463860E-01  0.34901814246E-01  0.00000000000E+00 0.  1.
       22    1    1    2    0    0  0.48660341011E-03 -0.72284126345E-03 -0.65796758758E-03  0.10918808164E-02  0.00000000000E+00 0.  1.
</event>
<event>
 5   0  0.4143600E+04  0.9118800E+02  0.7546771E-02  0.1180000E+00
      -11   -1    0    0    0    0  0.00000000000E+00  0.00000000000E+00  0.34996269501E-01  0.35000000000E-01  0.51099999109E-03 0.  1.
       11   -1    0    0    0    0 -0.00000000000E+00 -0.00000000000E+00 -0.34996269501E-01  0.35000000000E-01  0.51099999109E-03 0. -1.
       22    1    1    2    0    0  0.52567316608E-02  0.16094130974E-02 -0.31063220506E-01  0.31545952300E-01  0.00000000000E+00 0. -1.
       22    1    1    2    0    0 -0.18462898511E-02 -0.15414295665E-02 -0.32102226892E-02  0.40112742410E-02  0.00000000000E+00 0. -1.
       22    1    1    2    0    0 -0.34104418097E-02 -0.67983530919E-04  0.34273443195E-01  0.34442773459E-01  0.00000000000E+00 0.  1.
</event>
<event>
 5   0  0.4143600E+04  0.9118800E+02  0.7546771E-02  0.1180000E+00
      -11   -1    0    0    0    0  0.00000000000E+00  0.00000000000E+00  0.34996269501E-01  0.35000000000E-01  0.51099999109E-03 0. -1.
       11   -1    0    0    0    0 -0.00000000000E+00 -0.00000000000E+00 -0.34996269501E-01  0.35000000000E-01  0.51099999109E-03 0. -1.
       22    1    1    2    0    0  0.22666037160E-02 -0.66203011407E-03 -0.34239721564E-01  0.34321047610E-01  0.00000000000E+00 0. -1.
       22    1    1    2    0    0 -0.13833406570E-03 -0.34831644750E-03 -0.62821516689E-03  0.73151552085E-03  0.00000000000E+00 0.  1.
       22    1    1    2    0    0 -0.21282696503E-02  0.10103465616E-02  0.34867936731E-01  0.34947436869E-01  0.00000000000E+00 0. -1.
</event>
<event>
 5   0  0.4143600E+04  0.9118800E+02  0.7546771E-02  0.1180000E+00
      -11   -1    0    0    0    0  0.00000000000E+00  0.00000000000E+00  0.34996269501E-01  0.35000000000E-01  0.51099999109E-03 0.  1.
       11   -1    0    0    0    0 -0.00000000000E+00 -0.00000000000E+00 -0.34996269501E-01  0.35000000000E-01  0.51099999109E-03 0. -1.
       22    1    1    2    0    0  0.37514897379E-02  0.18079616482E-01  0.28615461625E-01  0.34055702186E-01  0.00000000000E+00 0.  1.
       22    1    1    2    0    0 -0.36148812980E-02 -0.18241909617E-01 -0.29589103844E-01  0.34947813946E-01  0.00000000000E+00 0. -1.
       22    1    1    2    0    0 -0.13660843986E-03  0.16229313573E-03  0.97364221972E-03  0.99648386829E-03  0.00000000000E+00 0. -1.
</event>
<event>
 5   0  0.4143600E+04  0.9118800E+02  0.7546771E-02  0.1180000E+00
      -11   -1    0    0    0    0  0.00000000000E+00  0.00000000000E+00  0.34996269501E-01  0.35000000000E-01  0.51099999109E-03 0.  1.
       11   -1    0    0    0    0 -0.00000000000E+00 -0.00000000000E+00 -0.34996269501E-01  0.35000000000E-01  0.51099999109E-03 0. -1.
       22    1    1    2    0    0  0.31775092447E-02 -0.11379420731E-02  0.34369890685E-01  0.34535211927E-01  0.00000000000E+00 0.  1.
       22    1    1    2    0    0 -0.31951269011E-02  0.56168885924E-03 -0.42857628580E-02  0.53751366088E-02  0.00000000000E+00 0. -1.
       22    1    1    2    0    0  0.17617656401E-04  0.57625321389E-03 -0.30084127827E-01  0.30089651464E-01  0.00000000000E+00 0. -1.
</event>
<event>
 5   0  0.4143600E+04  0.9118800E+02  0.7546771E-02  0.1180000E+00
      -11   -1    0    0    0    0  0.00000000000E+00  0.00000000000E+00  0.34996269501E-01  0.35000000000E-01  0.51099999109E-03 0.  1.
       11   -1    0    0    0    0 -0.00000000000E+00 -0.00000000000E+00 -0.34996269501E-01  0.35000000000E-01  0.51099999109E-03 0.  1.
       22    1    1    2    0    0 -0.17494303027E-02 -0.60270735821E-03 -0.44389015022E-02  0.48091172880E-02  0.00000000000E+00 0. -1.
       22    1    1    2    0    0  0.25715491107E-03  0.22349768418E-03 -0.30358010739E-01  0.30359922528E-01  0.00000000000E+00 0.  1.
       22    1    1    2    0    0  0.14922753917E-02  0.37920967403E-03  0.34796912241E-01  0.34830960184E-01  0.00000000000E+00 0.  1.
</event>
<event>
 5   0  0.4143600E+04  0.9118800E+02  0.7546771E-02  0.1180000E+00
      -11   -1    0    0    0    0  0.00000000000E+00  0.00000000000E+00  0.34996269501E-01  0.35000000000E-01  0.51099999109E-03 0.  1.
       11   -1    0    0    0    0 -0.00000000000E+00 -0.00000000000E+00 -0.34996269501E-01  0.35000000000E-01  0.51099999109E-03 0. -1.
       22    1    1    2    0    0  0.84436585074E-02  0.38322136590E-03 -0.19500987614E-01  0.21253958349E-01  0.00000000000E+00 0. -1.
       22    1    1    2    0    0 -0.12508196104E-03  0.21213144630E-03 -0.14111867546E-01  0.14114016115E-01  0.00000000000E+00 0.  1.
       22    1    1    2    0    0 -0.83185765464E-02 -0.59535281220E-03  0.33612855160E-01  0.34632025536E-01  0.00000000000E+00 0.  1.
</event>
<event>
 5   0  0.4143600E+04  0.9118800E+02  0.7546771E-02  0.1180000E+00
      -11   -1    0    0    0    0  0.00000000000E+00  0.00000000000E+00  0.34996269501E-01  0.35000000000E-01  0.51099999109E-03 0.  1.
       11   -1    0    0    0    0 -0.00000000000E+00 -0.00000000000E+00 -0.34996269501E-01  0.35000000000E-01  0.51099999109E-03 0. -1.
       22    1    1    2    0    0  0.16737262261E-01 -0.11528015292E-01 -0.26462367215E-01  0.33365970138E-01  0.00000000000E+00 0. -1.
       22    1    1    2    0    0  0.65587985621E-03  0.18840059337E-02 -0.13745384207E-02  0.24226045105E-02  0.00000000000E+00 0. -1.
       22    1    1    2    0    0 -0.17393142118E-01  0.96440093582E-02  0.27836905636E-01  0.34211425352E-01  0.00000000000E+00 0.  1.
</event>
<event>
 5   0  0.4143600E+04  0.9118800E+02  0.7546771E-02  0.1180000E+00
      -11   -1    0    0    0    0  0.00000000000E+00  0.00000000000E+00  0.34996269501E-01  0.35000000000E-01  0.51099999109E-03 0. -1.
       11   -1    0    0    0    0 -0.00000000000E+00 -0.00000000000E+00 -0.34996269501E-01  0.35000000000E-01  0.51099999109E-03 0.  1.
       22    1    1    2    0    0 -0.20624358358E-02  0.14826679883E-02  0.34170249171E-01  0.34264527932E-01  0.00000000000E+00 0. -1.
       22    1    1    2    0    0 -0.16710573267E-02 -0.65901756736E-03 -0.30091185211E-01  0.30144753510E-01  0.00000000000E+00 0.  1.
       22    1    1    2    0    0  0.37334931625E-02 -0.82365042099E-03 -0.40790639601E-02  0.55907185586E-02  0.00000000000E+00 0. -1.
</event>
<event>
 5   0  0.4143600E+04  0.9118800E+02  0.7546771E-02  0.1180000E+00
      -11   -1    0    0    0    0  0.00000000000E+00  0.00000000000E+00  0.34996269501E-01  0.35000000000E-01  0.51099999109E-03 0.  1.
       11   -1    0    0    0    0 -0.00000000000E+00 -0.00000000000E+00 -0.34996269501E-01  0.35000000000E-01  0.51099999109E-03 0. -1.
       22    1    1    2    0    0  0.30473917267E-02  0.21666426963E-02  0.50051521403E-02  0.62475983271E-02  0.00000000000E+00 0.  1.
       22    1    1    2    0    0 -0.14990310551E-01  0.11092812884E-01 -0.28616266070E-01  0.34156267241E-01  0.00000000000E+00 0. -1.
       22    1    1    2    0    0  0.11942918824E-01 -0.13259455580E-01  0.23611113929E-01  0.29596134432E-01  0.00000000000E+00 0.  1.
</event>
<event>
 5   0  0.4143600E+04  0.9118800E+02  0.7546771E-02  0.1180000E+00
      -11   -1    0    0    0    0  0.00000000000E+00  0.00000000000E+00  0.34996269501E-01  0.35000000000E-01  0.51099999109E-03 0.  1.
       11   -1    0    0    0    0 -0.00000000000E+00 -0.00000000000E+00 -0.34996269501E-01  0.35000000000E-01  0.51099999109E-03 0. -1.
       22    1    1    2    0    0  0.81700972077E-02  0.13234580812E-01 -0.23790658791E-01  0.28423582873E-01  0.00000000000E+00 0. -1.
       22    1    1    2    0    0 -0.12073264434E-02 -0.43532907758E-03 -0.72094724268E-02  0.73228164813E-02  0.00000000000E+00 0.  1.
       22    1    1    2    0    0 -0.69627707644E-02 -0.12799251734E-01  0.31000131218E-01  0.34253600645E-01  0.00000000000E+00 0.  1.
</event>
<event>
 5   0  0.4143600E+04  0.9118800E+02  0.7546771E-02  0.1180000E+00
      -11   -1    0    0    0    0  0.00000000000E+00  0.00000000000E+00  0.34996269501E-01  0.35000000000E-01  0.51099999109E-03 0.  1.
       11   -1    0    0    0    0 -0.00000000000E+00 -0.00000000000E+00 -0.34996269501E-01  0.35000000000E-01  0.51099999109E-03 0. -1.
       22    1    1    2    0    0 -0.33399095507E-03  0.44350683751E-02  0.34665920467E-01  0.34950070433E-01  0.00000000000E+00 0.  1.
       22    1    1    2    0    0  0.12842091715E-03 -0.46868849117E-02 -0.33824202788E-01  0.34147621825E-01  0.00000000000E+00 0. -1.
       22    1    1    2    0    0  0.20557003792E-03  0.25181653652E-03 -0.84171767930E-03  0.90230774141E-03  0.00000000000E+00 0. -1.
</event>
<event>
 5   0  0.4143600E+04  0.9118800E+02  0.7546771E-02  0.1180000E+00
      -11   -1    0    0    0    0  0.00000000000E+00  0.00000000000E+00  0.34996269501E-01  0.35000000000E-01  0.51099999109E-03 0. -1.
       11   -1    0    0    0    0 -0.00000000000E+00 -0.00000000000E+00 -0.34996269501E-01  0.35000000000E-01  0.51099999109E-03 0. -1.
       22    1    1    2    0    0 -0.35898719016E-02  0.12433198414E-01 -0.20517526981E-01  0.24257792903E-01  0.00000000000E+00 0.  1.
       22    1    1    2    0    0  0.78373293229E-03 -0.64132874782E-03  0.30207142378E-01  0.30224112734E-01  0.00000000000E+00 0. -1.
       22    1    1    2    0    0  0.28061389694E-02 -0.11791869666E-01 -0.96896153968E-02  0.15518094364E-01  0.00000000000E+00 0. -1.
</event>
<event>
 5   0  0.4143600E+04  0.9118800E+02  0.7546771E-02  0.1180000E+00
      -11   -1    0    0    0    0  0.00000000000E+00  0.00000000000E+00  0.34996269501E-01  0.35000000000E-01  0.51099999109E-03 0. -1.
       11   -1    0    0    0    0 -0.00000000000E+00 -0.00000000000E+00 -0.34996269501E-01  0.35000000000E-01  0.51099999109E-03 0.  1.
       22    1    1    2    0    0 -0.12047588466E-01  0.15981535928E-01  0.22304696104E-01  0.29967538217E-01  0.00000000000E+00 0. -1.
       22    1    1    2    0    0 -0.24088891896E-03  0.15881027629E-03  0.55590056556E-02  0.55664883054E-02  0.00000000000E+00 0.  1.
       22    1    1    2    0    0  0.12288477385E-01 -0.16140346205E-01 -0.27863701760E-01  0.34465973478E-01  0.00000000000E+00 0.  1.
</event>
<event>
 5   0  0.4143600E+04  0.9118800E+02  0.7546771E-02  0.1180000E+00
      -11   -1    0    0    0    0  0.00000000000E+00  0.00000000000E+00  0.34996269501E-01  0.35000000000E-01  0.51099999109E-03 0. -1.
       11   -1    0    0    0    0 -0.00000000000E+00 -0.00000000000E+00 -0.34996269501E-01  0.35000000000E-01  0.51099999109E-03 0.  1.
       22    1    1    2    0    0  0.75336639207E-02  0.20677887729E-01 -0.24859075173E-01  0.33200975158E-01  0.00000000000E+00 0.  1.
       22    1    1    2    0    0 -0.80594245696E-02 -0.21259479067E-01  0.15754781071E-01  0.27661035794E-01  0.00000000000E+00 0. -1.
       22    1    1    2    0    0  0.52576064883E-03  0.58159133824E-03  0.91042941019E-02  0.91379890479E-02  0.00000000000E+00 0. -1.
</event>
<event>
 5   0  0.4143600E+04  0.9118800E+02  0.7546771E-02  0.1180000E+00
      -11   -1    0    0    0    0  0.00000000000E+00  0.00000000000E+00  0.34996269501E-01  0.35000000000E-01  0.51099999109E-03 0. -1.
       11   -1    0    0    0    0 -0.00000000000E+00 -0.00000000000E+00 -0.34996269501E-01  0.35000000000E-01  0.51099999109E-03 0.  1.
       22    1    1    2    0    0  0.12310309613E-02  0.26144403388E-02 -0.72739186184E-02  0.78269168630E-02  0.00000000000E+00 0.  1.
       22    1    1    2    0    0 -0.57973150283E-02 -0.18802946854E-01  0.28784486644E-01  0.34866980702E-01  0.00000000000E+00 0. -1.
       22    1    1    2    0    0  0.45662840670E-02  0.16188506515E-01 -0.21510568026E-01  0.27306102435E-01  0.00000000000E+00 0.  1.
</event>
<event>
 5   0  0.4143600E+04  0.9118800E+02  0.7546771E-02  0.1180000E+00
      -11   -1    0    0    0    0  0.00000000000E+00  0.00000000000E+00  0.34996269501E-01  0.35000000000E-01  0.51099999109E-03 0.  1.
       11   -1    0    0    0    0 -0.00000000000E+00 -0.00000000000E+00 -0.34996269501E-01  0.35000000000E-01  0.51099999109E-03 0. -1.
       22    1    1    2    0    0 -0.86824585283E-05  0.45933508988E-03 -0.88685021528E-03  0.99878296653E-03  0.00000000000E+00 0.  1.
       22    1    1    2    0    0 -0.12022232657E-02  0.64418010120E-03 -0.34024310008E-01  0.34051636970E-01  0.00000000000E+00 0. -1.
       22    1    1    2    0    0  0.12109057243E-02 -0.11035151911E-02  0.34911160224E-01  0.34949580064E-01  0.00000000000E+00 0.  1.
</event>
<event>
 5   0  0.4143600E+04  0.9118800E+02  0.7546771E-02  0.1180000E+00
      -11   -1    0    0    0    0  0.00000000000E+00  0.00000000000E+00  0.34996269501E-01  0.35000000000E-01  0.51099999109E-03 0.  1.
       11   -1    0    0    0    0 -0.00000000000E+00 -0.00000000000E+00 -0.34996269501E-01  0.35000000000E-01  0.51099999109E-03 0. -1.
       22    1    1    2    0    0  0.45670269184E-05 -0.12470258060E-04  0.32653472338E-03  0.32680466741E-03  0.00000000000E+00 0. -1.
       22    1    1    2    0    0  0.10013904524E-01 -0.63709257872E-02  0.32587209688E-01  0.34681309295E-01  0.00000000000E+00 0.  1.
       22    1    1    2    0    0 -0.10018471551E-01  0.63833960453E-02 -0.32913744411E-01  0.34991886037E-01  0.00000000000E+00 0. -1.
</event>
<event>
 5   0  0.4143600E+04  0.9118800E+02  0.7546771E-02  0.1180000E+00
      -11   -1    0    0    0    0  0.00000000000E+00  0.00000000000E+00  0.34996269501E-01  0.35000000000E-01  0.51099999109E-03 0. -1.
       11   -1    0    0    0    0 -0.00000000000E+00 -0.00000000000E+00 -0.34996269501E-01  0.35000000000E-01  0.51099999109E-03 0. -1.
       22    1    1    2    0    0 -0.00000000000E+00  0.00000000000E+00  0.34894401193E-01  0.34892154079E-01  0.00000000000E+00 0. -1.
       22    1    1    2    0    0 -0.53126435665E-03  0.24300651016E-03 -0.71441107495E-03  0.92286356773E-03  0.00000000000E+00 0. -1.
       22    1    1    2    0    0  0.53126435665E-03 -0.24300651016E-03 -0.34179990118E-01  0.34184982353E-01  0.00000000000E+00 0. -1.
</event>
<event>
 5   0  0.4143600E+04  0.9118800E+02  0.7546771E-02  0.1180000E+00
      -11   -1    0    0    0    0  0.00000000000E+00  0.00000000000E+00  0.34996269501E-01  0.35000000000E-01  0.51099999109E-03 0.  1.
       11   -1    0    0    0    0 -0.00000000000E+00 -0.00000000000E+00 -0.34996269501E-01  0.35000000000E-01  0.51099999109E-03 0. -1.
       22    1    1    2    0    0 -0.34103053527E-03 -0.36558069313E-03 -0.12449059755E-01  0.12459094664E-01  0.00000000000E+00 0.  1.
       22    1    1    2    0    0  0.67236793705E-02  0.10355960618E-01 -0.19714587889E-01  0.23261959510E-01  0.00000000000E+00 0. -1.
       22    1    1    2    0    0 -0.63826488352E-02 -0.99903799246E-02  0.32163647644E-01  0.34278945826E-01  0.00000000000E+00 0.  1.
</event>
<event>
 5   0  0.4143600E+04  0.9118800E+02  0.7546771E-02  0.1180000E+00
      -11   -1    0    0    0    0  0.00000000000E+00  0.00000000000E+00  0.34996269501E-01  0.35000000000E-01  0.51099999109E-03 0.  1.
       11   -1    0    0    0    0 -0.00000000000E+00 -0.00000000000E+00 -0.34996269501E-01  0.35000000000E-01  0.51099999109E-03 0. -1.
       22    1    1    2    0    0  0.32917113238E-02 -0.37619289487E-02 -0.58076591673E-02  0.76626612778E-02  0.00000000000E+00 0. -1.
       22    1    1    2    0    0 -0.66167872823E-02 -0.13666727806E-01 -0.23558077085E-01  0.28027563555E-01  0.00000000000E+00 0. -1.
       22    1    1    2    0    0  0.33250759585E-02  0.17428656754E-01  0.29365736253E-01  0.34309775168E-01  0.00000000000E+00 0.  1.
</event>
<event>
 5   0  0.4143600E+04  0.9118800E+02  0.7546771E-02  0.1180000E+00
      -11   -1    0    0    0    0  0.00000000000E+00  0.00000000000E+00  0.34996269501E-01  0.35000000000E-01  0.51099999109E-03 0.  1.
       11   -1    0    0    0    0 -0.00000000000E+00 -0.00000000000E+00 -0.34996269501E-01  0.35000000000E-01  0.51099999109E-03 0. -1.
       22    1    1    2    0    0  0.71853895525E-02  0.63576103122E-02 -0.26342083303E-01  0.28034878003E-01  0.00000000000E+00 0. -1.
       22    1    1    2    0    0 -0.64405987374E-03  0.11704209522E-02 -0.70191376461E-02  0.71451376208E-02  0.00000000000E+00 0.  1.
       22    1    1    2    0    0 -0.65413296788E-02 -0.75280312644E-02  0.33361220949E-01  0.34819984376E-01  0.00000000000E+00 0.  1.
</event>
<event>
 5   0  0.4143600E+04  0.9118800E+02  0.7546771E-02  0.1180000E+00
      -11   -1    0    0    0    0  0.00000000000E+00  0.00000000000E+00  0.34996269501E-01  0.35000000000E-01  0.51099999109E-03 0. -1.
       11   -1    0    0    0    0 -0.00000000000E+00 -0.00000000000E+00 -0.34996269501E-01  0.35000000000E-01  0.51099999109E-03 0.  1.
       22    1    1    2    0    0  0.99553962160E-02  0.17551078848E-01  0.26527950079E-01  0.33329902759E-01  0.00000000000E+00 0. -1.
       22    1    1    2    0    0 -0.79860625226E-02 -0.11728206585E-01 -0.27003991905E-01  0.30504812787E-01  0.00000000000E+00 0.  1.
       22    1    1    2    0    0 -0.19693336933E-02 -0.58228722626E-02  0.47604182632E-03  0.61652844543E-02  0.00000000000E+00 0.  1.
</event>
<event>
 5   0  0.4143600E+04  0.9118800E+02  0.7546771E-02  0.1180000E+00
      -11   -1    0    0    0    0  0.00000000000E+00  0.00000000000E+00  0.34996269501E-01  0.35000000000E-01  0.51099999109E-03 0.  1.
       11   -1    0    0    0    0 -0.00000000000E+00 -0.00000000000E+00 -0.34996269501E-01  0.35000000000E-01  0.51099999109E-03 0. -1.
       22    1    1    2    0    0 -0.94254727308E-02 -0.91650243993E-03  0.79062071663E-03  0.95028729361E-02  0.00000000000E+00 0. -1.
       22    1    1    2    0    0 -0.44916202543E-02  0.13029552251E-02  0.28068375503E-01  0.28455334266E-01  0.00000000000E+00 0.  1.
       22    1    1    2    0    0  0.13917092985E-01 -0.38645278518E-03 -0.28858996219E-01  0.32041792798E-01  0.00000000000E+00 0. -1.
</event>
<event>
 5   0  0.4143600E+04  0.9118800E+02  0.7546771E-02  0.1180000E+00
      -11   -1    0    0    0    0  0.00000000000E+00  0.00000000000E+00  0.34996269501E-01  0.35000000000E-01  0.51099999109E-03 0.  1.
       11   -1    0    0    0    0 -0.00000000000E+00 -0.00000000000E+00 -0.34996269501E-01  0.35000000000E-01  0.51099999109E-03 0. -1.
       22    1    1    2    0    0 -0.39872845128E-03 -0.32620606199E-03 -0.16259007519E-03  0.54021320355E-03  0.00000000000E+00 0. -1.
       22    1    1    2    0    0  0.37247744002E-03  0.18690723382E-01  0.29454998046E-01  0.34886656330E-01  0.00000000000E+00 0.  1.
       22    1    1    2    0    0  0.26251011263E-04 -0.18364517320E-01 -0.29292407971E-01  0.34573130466E-01  0.00000000000E+00 0. -1.
</event>
<event>
 5   0  0.4143600E+04  0.9118800E+02  0.7546771E-02  0.1180000E+00
      -11   -1    0    0    0    0  0.00000000000E+00  0.00000000000E+00  0.34996269501E-01  0.35000000000E-01  0.51099999109E-03 0.  1.
       11   -1    0    0    0    0 -0.00000000000E+00 -0.00000000000E+00 -0.34996269501E-01  0.35000000000E-01  0.51099999109E-03 0. -1.
       22    1    1    2    0    0 -0.31944699815E-02  0.24991453852E-02  0.34286050386E-01  0.34525115745E-01  0.00000000000E+00 0.  1.
       22    1    1    2    0    0  0.37975369746E-02 -0.33555114436E-02 -0.10430807986E-01  0.11596658974E-01  0.00000000000E+00 0. -1.
       22    1    1    2    0    0 -0.60306699310E-03  0.85636605834E-03 -0.23855242400E-01  0.23878225281E-01  0.00000000000E+00 0. -1.
</event>
<event>
 5   0  0.4143600E+04  0.9118800E+02  0.7546771E-02  0.1180000E+00
      -11   -1    0    0    0    0  0.00000000000E+00  0.00000000000E+00  0.34996269501E-01  0.35000000000E-01  0.51099999109E-03 0. -1.
       11   -1    0    0    0    0 -0.00000000000E+00 -0.00000000000E+00 -0.34996269501E-01  0.35000000000E-01  0.51099999109E-03 0.  1.
       22    1    1    2    0    0  0.34897878084E-03  0.31695794995E-03 -0.31472690768E-02  0.31823813683E-02  0.00000000000E+00 0.  1.
       22    1    1    2    0    0 -0.12484465537E-01 -0.13858822218E-01  0.29438675355E-01  0.34850601712E-01  0.00000000000E+00 0. -1.
       22    1    1    2    0    0  0.12135486756E-01  0.13541864268E-01 -0.26291406279E-01  0.31967016920E-01  0.00000000000E+00 0.  1.
</event>
<event>
 5   0  0.4143600E+04  0.9118800E+02  0.7546771E-02  0.1180000E+00
      -11   -1    0    0    0    0  0.00000000000E+00  0.00000000000E+00  0.34996269501E-01  0.35000000000E-01  0.51099999109E-03 0.  1.
       11   -1    0    0    0    0 -0.00000000000E+00 -0.00000000000E+00 -0.34996269501E-01  0.35000000000E-01  0.51099999109E-03 0. -1.
       22    1    1    2    0    0 -0.68748883267E-02  0.82278362768E-02  0.33123962581E-01  0.34816063481E-01  0.00000000000E+00 0. -1.
       22    1    1    2    0    0  0.74515811941E-03  0.47425504060E-03 -0.96039889649E-03  0.13048158900E-02  0.00000000000E+00 0.  1.
       22    1    1    2    0    0  0.61297302073E-02 -0.87020913174E-02 -0.32163563684E-01  0.33879120629E-01  0.00000000000E+00 0.  1.
</event>
<event>
 5   0  0.4143600E+04  0.9118800E+02  0.7546771E-02  0.1180000E+00
      -11   -1    0    0    0    0  0.00000000000E+00  0.00000000000E+00  0.34996269501E-01  0.35000000000E-01  0.51099999109E-03 0. -1.
       11   -1    0    0    0    0 -0.00000000000E+00 -0.00000000000E+00 -0.34996269501E-01  0.35000000000E-01  0.51099999109E-03 0.  1.
       22    1    1    2    0    0 -0.81883150857E-03  0.88037315000E-02 -0.29643525706E-01  0.30934039336E-01  0.00000000000E+00 0.  1.
       22    1    1    2    0    0 -0.19024268617E-02 -0.22746510204E-02 -0.38353423563E-02  0.48480012602E-02  0.00000000000E+00 0. -1.
       22    1    1    2    0    0  0.27212583703E-02 -0.65290804796E-02  0.33478868062E-01  0.34217959404E-01  0.00000000000E+00 0. -1.
</event>
<event>
 5   0  0.4143600E+04  0.9118800E+02  0.7546771E-02  0.1180000E+00
      -11   -1    0    0    0    0  0.00000000000E+00  0.00000000000E+00  0.34996269501E-01  0.35000000000E-01  0.51099999109E-03 0. -1.
       11   -1    0    0    0    0 -0.00000000000E+00 -0.00000000000E+00 -0.34996269501E-01  0.35000000000E-01  0.51099999109E-03 0.  1.
       22    1    1    2    0    0  0.73145795264E-03  0.16379517723E-02 -0.21747093994E-02  0.28190916474E-02  0.00000000000E+00 0.  1.
       22    1    1    2    0    0  0.88524779668E-03  0.11199034190E-02 -0.32413681548E-01  0.32445101307E-01  0.00000000000E+00 0.  1.
       22    1    1    2    0    0 -0.16167057493E-02 -0.27578551913E-02  0.34588390948E-01  0.34735807045E-01  0.00000000000E+00 0. -1.
</event>
<event>
 5   0  0.4143600E+04  0.9118800E+02  0.7546771E-02  0.1180000E+00
      -11   -1    0    0    0    0  0.00000000000E+00  0.00000000000E+00  0.34996269501E-01  0.35000000000E-01  0.51099999109E-03 0. -1.
       11   -1    0    0    0    0 -0.00000000000E+00 -0.00000000000E+00 -0.34996269501E-01  0.35000000000E-01  0.51099999109E-03 0.  1.
       22    1    1    2    0    0 -0.37137682953E-03 -0.14644251054E-03  0.59084800412E-03  0.71306908668E-03  0.00000000000E+00 0. -1.
       22    1    1    2    0    0  0.35774401102E-05  0.13095601659E-01  0.31805792995E-01  0.34396268164E-01  0.00000000000E+00 0. -1.
       22    1    1    2    0    0  0.36779938942E-03 -0.12949159148E-01 -0.32396640999E-01  0.34890662749E-01  0.00000000000E+00 0.  1.
</event>
<event>
 5   0  0.4143600E+04  0.9118800E+02  0.7546771E-02  0.1180000E+00
      -11   -1    0    0    0    0  0.00000000000E+00  0.00000000000E+00  0.34996269501E-01  0.35000000000E-01  0.51099999109E-03 0. -1.
       11   -1    0    0    0    0 -0.00000000000E+00 -0.00000000000E+00 -0.34996269501E-01  0.35000000000E-01  0.51099999109E-03 0. -1.
       22    1    1    2    0    0  0.37091088910E-02 -0.17015612946E-02 -0.72996466975E-02  0.83628728026E-02  0.00000000000E+00 0.  1.
       22    1    1    2    0    0  0.99050433287E-04  0.33223277564E-03 -0.27048841853E-01  0.27051063476E-01  0.00000000000E+00 0. -1.
       22    1    1    2    0    0 -0.38081593242E-02  0.13693285189E-02  0.34348488550E-01  0.34586063721E-01  0.00000000000E+00 0. -1.
</event>
<event>
 5   0  0.4143600E+04  0.9118800E+02  0.7546771E-02  0.1180000E+00
      -11   -1    0    0    0    0  0.00000000000E+00  0.00000000000E+00  0.34996269501E-01  0.35000000000E-01  0.51099999109E-03 0. -1.
       11   -1    0    0    0    0 -0.00000000000E+00 -0.00000000000E+00 -0.34996269501E-01  0.35000000000E-01  0.51099999109E-03 0.  1.
       22    1    1    2    0    0  0.15107771958E-01 -0.14414762546E-02  0.30932243769E-01  0.34454699707E-01  0.00000000000E+00 0. -1.
       22    1    1    2    0    0 -0.14735974950E-01  0.13346388164E-02 -0.31532359885E-01  0.34831306871E-01  0.00000000000E+00 0.  1.
       22    1    1    2    0    0 -0.37179700827E-03  0.10683743820E-03  0.60011611520E-03  0.71399342104E-03  0.00000000000E+00 0.  1.
</event>
<event>
 5   0  0.4143600E+04  0.9118800E+02  0.7546771E-02  0.1180000E+00
      -11   -1    0    0    0    0  0.00000000000E+00  0.00000000000E+00  0.34996269501E-01  0.35000000000E-01  0.51099999109E-03 0. -1.
       11   -1    0    0    0    0 -0.00000000000E+00 -0.00000000000E+00 -0.34996269501E-01  0.35000000000E-01  0.51099999109E-03 0.  1.
       22    1    1    2    0    0  0.38112722344E-04  0.30822683842E-03  0.22134451915E-03  0.38137876145E-03  0.00000000000E+00 0.  1.
       22    1    1    2    0    0 -0.13275570431E-01  0.17078067100E-01  0.27073747951E-01  0.34653845014E-01  0.00000000000E+00 0. -1.
       22    1    1    2    0    0  0.13237457709E-01 -0.17386293938E-01 -0.27295092470E-01  0.34964776225E-01  0.00000000000E+00 0.  1.
</event>
<event>
 5   0  0.4143600E+04  0.9118800E+02  0.7546771E-02  0.1180000E+00
      -11   -1    0    0    0    0  0.00000000000E+00  0.00000000000E+00  0.34996269501E-01  0.35000000000E-01  0.51099999109E-03 0. -1.
       11   -1    0    0    0    0 -0.00000000000E+00 -0.00000000000E+00 -0.34996269501E-01  0.35000000000E-01  0.51099999109E-03 0.  1.
       22    1    1    2    0    0  0.16048780397E-02  0.13148929496E-01  0.32351758763E-01  0.34958636636E-01  0.00000000000E+00 0. -1.
       22    1    1    2    0    0 -0.14925678760E-02 -0.13163974009E-01 -0.31366368262E-01  0.34049479123E-01  0.00000000000E+00 0.  1.
       22    1    1    2    0    0 -0.11231016374E-03  0.15044513376E-04 -0.98539050042E-03  0.99188424153E-03  0.00000000000E+00 0. -1.
</event>
<event>
 5   0  0.4143600E+04  0.9118800E+02  0.7546771E-02  0.1180000E+00
      -11   -1    0    0    0    0  0.00000000000E+00  0.00000000000E+00  0.34996269501E-01  0.35000000000E-01  0.51099999109E-03 0.  1.
       11   -1    0    0    0    0 -0.00000000000E+00 -0.00000000000E+00 -0.34996269501E-01  0.35000000000E-01  0.51099999109E-03 0. -1.
       22    1    1    2    0    0 -0.15909528985E-03 -0.12856599434E-03 -0.19943367592E-02  0.20047991509E-02  0.00000000000E+00 0. -1.
       22    1    1    2    0    0  0.10560427503E-02 -0.13632059499E-01  0.32095048235E-01  0.34886106026E-01  0.00000000000E+00 0.  1.
       22    1    1    2    0    0 -0.89694746046E-03  0.13760625493E-01 -0.30100711475E-01  0.33109094823E-01  0.00000000000E+00 0. -1.
</event>
<event>
 5   0  0.4143600E+04  0.9118800E+02  0.7546771E-02  0.1180000E+00
      -11   -1    0    0    0    0  0.00000000000E+00  0.00000000000E+00  0.34996269501E-01  0.35000000000E-01  0.51099999109E-03 0. -1.
       11   -1    0    0    0    0 -0.00000000000E+00 -0.00000000000E+00 -0.34996269501E-01  0.35000000000E-01  0.51099999109E-03 0.  1.
       22    1    1    2    0    0 -0.24143764344E-01  0.10067422310E-02  0.23826061080E-01  0.33935469250E-01  0.00000000000E+00 0. -1.
       22    1    1    2    0    0  0.24139446182E-01 -0.10271928991E-02 -0.25071573836E-01  0.34818842626E-01  0.00000000000E+00 0.  1.
       22    1    1    2    0    0  0.43181617651E-05  0.20450668124E-04  0.12455127562E-02  0.12456881239E-02  0.00000000000E+00 0.  1.
</event>
<event>
 5   0  0.4143600E+04  0.9118800E+02  0.7546771E-02  0.1180000E+00
      -11   -1    0    0    0    0  0.00000000000E+00  0.00000000000E+00  0.34996269501E-01  0.35000000000E-01  0.51099999109E-03 0. -1.
       11   -1    0    0    0    0 -0.00000000000E+00 -0.00000000000E+00 -0.34996269501E-01  0.35000000000E-01  0.51099999109E-03 0.  1.
       22    1    1    2    0    0 -0.13676147437E-01 -0.17407852034E-01 -0.26558846494E-01  0.34575173872E-01  0.00000000000E+00 0.  1.
       22    1    1    2    0    0 -0.48715370292E-03  0.95427188466E-03  0.38988389250E-02  0.40433771186E-02  0.00000000000E+00 0. -1.
       22    1    1    2    0    0  0.14163301140E-01  0.16453580150E-01  0.22660007569E-01  0.31381449010E-01  0.00000000000E+00 0. -1.
</event>
<event>
 5   0  0.4143600E+04  0.9118800E+02  0.7546771E-02  0.1180000E+00
      -11   -1    0    0    0    0  0.00000000000E+00  0.00000000000E+00  0.34996269501E-01  0.35000000000E-01  0.51099999109E-03 0.  1.
       11   -1    0    0    0    0 -0.00000000000E+00 -0.00000000000E+00 -0.34996269501E-01  0.35000000000E-01  0.51099999109E-03 0. -1.
       22    1    1    2    0    0  0.56153754379E-03  0.18839530046E-04  0.34774810351E-01  0.34779348963E-01  0.00000000000E+00 0.  1.
       22    1    1    2    0    0  0.12387181975E-02  0.13026934072E-02 -0.42536574250E-02  0.46179036776E-02  0.00000000000E+00 0.  1.
       22    1    1    2    0    0 -0.18002557413E-02 -0.13215329373E-02 -0.30521152926E-01  0.30602747360E-01  0.00000000000E+00 0. -1.
</event>
<event>
 5   0  0.4143600E+04  0.9118800E+02  0.7546771E-02  0.1180000E+00
      -11   -1    0    0    0    0  0.00000000000E+00  0.00000000000E+00  0.34996269501E-01  0.35000000000E-01  0.51099999109E-03 0. -1.
       11   -1    0    0    0    0 -0.00000000000E+00 -0.00000000000E+00 -0.34996269501E-01  0.35000000000E-01  0.51099999109E-03 0.  1.
       22    1    1    2    0    0 -0.85781732328E-03 -0.30055840835E-02 -0.39483809029E-02  0.50357817663E-02  0.00000000000E+00 0.  1.
       22    1    1    2    0    0 -0.20763603484E-02  0.60263071974E-02  0.34013513818E-01  0.34605588753E-01  0.00000000000E+00 0. -1.
       22    1    1    2    0    0  0.29341776717E-02 -0.30207231139E-02 -0.30065132915E-01  0.30358629480E-01  0.00000000000E+00 0.  1.
</event>
<event>
 5   0  0.4143600E+04  0.9118800E+02  0.7546771E-02  0.1180000E+00
      -11   -1    0    0    0    0  0.00000000000E+00  0.00000000000E+00  0.34996269501E-01  0.35000000000E-01  0.51099999109E-03 0. -1.
       11   -1    0    0    0    0 -0.00000000000E+00 -0.00000000000E+00 -0.34996269501E-01  0.35000000000E-01  0.51099999109E-03 0.  1.
       22    1    1    2    0    0 -0.26234725639E-03 -0.25465094100E-03 -0.26059205634E-01  0.26061770306E-01  0.00000000000E+00 0.  1.
       22    1    1    2    0    0  0.18993778930E-02  0.27607834772E-02  0.34665045343E-01  0.34826641101E-01  0.00000000000E+00 0. -1.
       22    1    1    2    0    0 -0.16370306366E-02 -0.25061325362E-02 -0.86058397086E-02  0.91115885928E-02  0.00000000000E+00 0.  1.
</event>
<event>
 5   0  0.4143600E+04  0.9118800E+02  0.7546771E-02  0.1180000E+00
      -11   -1    0    0    0    0  0.00000000000E+00  0.00000000000E+00  0.34996269501E-01  0.35000000000E-01  0.51099999109E-03 0.  1.
       11   -1    0    0    0    0 -0.00000000000E+00 -0.00000000000E+00 -0.34996269501E-01  0.35000000000E-01  0.51099999109E-03 0. -1.
       22    1    1    2    0    0 -0.20835124369E-01 -0.22222231025E-02 -0.25183096050E-01  0.32760174139E-01  0.00000000000E+00 0. -1.
       22    1    1    2    0    0  0.18026371325E-01  0.51871761812E-02  0.26912561123E-01  0.32804615622E-01  0.00000000000E+00 0.  1.
       22    1    1    2    0    0  0.28087530441E-02 -0.29649530787E-02 -0.17294650735E-02  0.44352102388E-02  0.00000000000E+00 0.  1.
</event>
<event>
 5   0  0.4143600E+04  0.9118800E+02  0.7546771E-02  0.1180000E+00
      -11   -1    0    0    0    0  0.00000000000E+00  0.00000000000E+00  0.34996269501E-01  0.35000000000E-01  0.51099999109E-03 0. -1.
       11   -1    0    0    0    0 -0.00000000000E+00 -0.00000000000E+00 -0.34996269501E-01  0.35000000000E-01  0.51099999109E-03 0.  1.
       22    1    1    2    0    0  0.10605483882E-02  0.27551064292E-02 -0.51300428784E-02  0.59188439964E-02  0.00000000000E+00 0.  1.
       22    1    1    2    0    0 -0.11915797307E-02 -0.36623952841E-02 -0.29343629895E-01  0.29595297209E-01  0.00000000000E+00 0. -1.
       22    1    1    2    0    0  0.13103134247E-03  0.90728885486E-03  0.34473672774E-01  0.34485858794E-01  0.00000000000E+00 0. -1.
</event>
<event>
 5   0  0.4143600E+04  0.9118800E+02  0.7546771E-02  0.1180000E+00
      -11   -1    0    0    0    0  0.00000000000E+00  0.00000000000E+00  0.34996269501E-01  0.35000000000E-01  0.51099999109E-03 0.  1.
       11   -1    0    0    0    0 -0.00000000000E+00 -0.00000000000E+00 -0.34996269501E-01  0.35000000000E-01  0.51099999109E-03 0.  1.
       22    1    1    2    0    0  0.13052418309E-02  0.18980781862E-03 -0.15498087212E-02  0.20350897566E-02  0.00000000000E+00 0. -1.
       22    1    1    2    0    0  0.00000000000E+00  0.00000000000E+00  0.34744824267E-01  0.34743701050E-01  0.00000000000E+00 0.  1.
       22    1    1    2    0    0 -0.13052418309E-02 -0.18980781862E-03 -0.33195015545E-01  0.33221209194E-01  0.00000000000E+00 0.  1.
</event>
<event>
 5   0  0.4143600E+04  0.9118800E+02  0.7546771E-02  0.1180000E+00
      -11   -1    0    0    0    0  0.00000000000E+00  0.00000000000E+00  0.34996269501E-01  0.35000000000E-01  0.51099999109E-03 0.  1.
       11   -1    0    0    0    0 -0.00000000000E+00 -0.00000000000E+00 -0.34996269501E-01  0.35000000000E-01  0.51099999109E-03 0. -1.
       22    1    1    2    0    0  0.19781260054E-01 -0.74917479110E-02  0.26738082939E-01  0.34093248823E-01  0.00000000000E+00 0.  1.
       22    1    1    2    0    0 -0.19767539413E-01  0.74964925581E-02 -0.27755002024E-01  0.34889728467E-01  0.00000000000E+00 0. -1.
       22    1    1    2    0    0 -0.13720640742E-04 -0.47446471592E-05  0.10169190851E-02  0.10170227103E-02  0.00000000000E+00 0. -1.
</event>
<event>
 5   0  0.4143600E+04  0.9118800E+02  0.7546771E-02  0.1180000E+00
      -11   -1    0    0    0    0  0.00000000000E+00  0.00000000000E+00  0.34996269501E-01  0.35000000000E-01  0.51099999109E-03 0.  1.
       11   -1    0    0    0    0 -0.00000000000E+00 -0.00000000000E+00 -0.34996269501E-01  0.35000000000E-01  0.51099999109E-03 0. -1.
       22    1    1    2    0    0  0.18746389689E-01  0.14521489993E-02 -0.22313159377E-01  0.29178981211E-01  0.00000000000E+00 0. -1.
       22    1    1    2    0    0 -0.21176857587E-01  0.78398476520E-03  0.27471982057E-01  0.34695586571E-01  0.00000000000E+00 0.  1.
       22    1    1    2    0    0  0.24304678982E-02 -0.22361337645E-02 -0.51588226798E-02  0.61254322181E-02  0.00000000000E+00 0.  1.
</event>
<event>
 5   0  0.4143600E+04  0.9118800E+02  0.7546771E-02  0.1180000E+00
      -11   -1    0    0    0    0  0.00000000000E+00  0.00000000000E+00  0.34996269501E-01  0.35000000000E-01  0.51099999109E-03 0. -1.
       11   -1    0    0    0    0 -0.00000000000E+00 -0.00000000000E+00 -0.34996269501E-01  0.35000000000E-01  0.51099999109E-03 0.  1.
       22    1    1    2    0    0  0.12166918414E-01 -0.22612830441E-02  0.31086338233E-01  0.33459045555E-01  0.00000000000E+00 0. -1.
       22    1    1    2    0    0 -0.54468589198E-04 -0.74788781280E-04  0.16008742741E-02  0.16035456434E-02  0.00000000000E+00 0.  1.
       22    1    1    2    0    0 -0.12112449825E-01  0.23360718254E-02 -0.32687212507E-01  0.34937408802E-01  0.00000000000E+00 0.  1.
</event>
<event>
 5   0  0.4143600E+04  0.9118800E+02  0.7546771E-02  0.1180000E+00
      -11   -1    0    0    0    0  0.00000000000E+00  0.00000000000E+00  0.34996269501E-01  0.35000000000E-01  0.51099999109E-03 0. -1.
       11   -1    0    0    0    0 -0.00000000000E+00 -0.00000000000E+00 -0.34996269501E-01  0.35000000000E-01  0.51099999109E-03 0.  1.
       22    1    1    2    0    0  0.24164095841E-02 -0.17695313734E-02 -0.28842252560E-01  0.28997341418E-01  0.00000000000E+00 0.  1.
       22    1    1    2    0    0 -0.90008590843E-03 -0.73425784499E-03  0.34559832495E-01  0.34579348046E-01  0.00000000000E+00 0. -1.
       22    1    1    2    0    0 -0.15163236757E-02  0.25037892183E-02 -0.57175799341E-02  0.64233105360E-02  0.00000000000E+00 0. -1.
</event>
<event>
 5   0  0.4143600E+04  0.9118800E+02  0.7546771E-02  0.1180000E+00
      -11   -1    0    0    0    0  0.00000000000E+00  0.00000000000E+00  0.34996269501E-01  0.35000000000E-01  0.51099999109E-03 0. -1.
       11   -1    0    0    0    0 -0.00000000000E+00 -0.00000000000E+00 -0.34996269501E-01  0.35000000000E-01  0.51099999109E-03 0.  1.
       22    1    1    2    0    0 -0.18751425738E-01 -0.14267096675E-02  0.51691118162E-02  0.19503107051E-01  0.00000000000E+00 0. -1.
       22    1    1    2    0    0  0.20208554140E-01  0.26194849504E-02 -0.24050069473E-01  0.31522265203E-01  0.00000000000E+00 0.  1.
       22    1    1    2    0    0 -0.14571284018E-02 -0.11927752829E-02  0.18880957657E-01  0.18974627746E-01  0.00000000000E+00 0. -1.
</event>
<event>
 5   0  0.4143600E+04  0.9118800E+02  0.7546771E-02  0.1180000E+00
      -11   -1    0    0    0    0  0.00000000000E+00  0.00000000000E+00  0.34996269501E-01  0.35000000000E-01  0.51099999109E-03 0. -1.
       11   -1    0    0    0    0 -0.00000000000E+00 -0.00000000000E+00 -0.34996269501E-01  0.35000000000E-01  0.51099999109E-03 0.  1.
       22    1    1    2    0    0  0.83955629819E-02 -0.10509202332E-02  0.25977481920E-01  0.27320678579E-01  0.00000000000E+00 0. -1.
       22    1    1    2    0    0 -0.13069494708E-01  0.11346513117E-01 -0.26164477078E-01  0.31370924638E-01  0.00000000000E+00 0.  1.
       22    1    1    2    0    0  0.46739317263E-02 -0.10295592884E-01  0.18699515803E-03  0.11308396783E-01  0.00000000000E+00 0. -1.
</event>
<event>
 5   0  0.4143600E+04  0.9118800E+02  0.7546771E-02  0.1180000E+00
      -11   -1    0    0    0    0  0.00000000000E+00  0.00000000000E+00  0.34996269501E-01  0.35000000000E-01  0.51099999109E-03 0.  1.
       11   -1    0    0    0    0 -0.00000000000E+00 -0.00000000000E+00 -0.34996269501E-01  0.35000000000E-01  0.51099999109E-03 0. -1.
       22    1    1    2    0    0 -0.90094668692E-04 -0.28607343174E-03 -0.76346697033E-03  0.82026634239E-03  0.00000000000E+00 0.  1.
       22    1    1    2    0    0  0.11185323519E-01  0.28190662898E-01 -0.16515565845E-01  0.34533879771E-01  0.00000000000E+00 0. -1.
       22    1    1    2    0    0 -0.11095228850E-01 -0.27904589466E-01  0.17279032815E-01  0.34645853887E-01  0.00000000000E+00 0.  1.
</event>
<event>
 5   0  0.4143600E+04  0.9118800E+02  0.7546771E-02  0.1180000E+00
      -11   -1    0    0    0    0  0.00000000000E+00  0.00000000000E+00  0.34996269501E-01  0.35000000000E-01  0.51099999109E-03 0.  1.
       11   -1    0    0    0    0 -0.00000000000E+00 -0.00000000000E+00 -0.34996269501E-01  0.35000000000E-01  0.51099999109E-03 0. -1.
       22    1    1    2    0    0  0.17683111606E-02  0.12550173451E-01 -0.32432608133E-01  0.34821083388E-01  0.00000000000E+00 0. -1.
       22    1    1    2    0    0 -0.21333350841E-02 -0.12308886972E-01  0.27240396692E-01  0.29968300403E-01  0.00000000000E+00 0.  1.
       22    1    1    2    0    0  0.36502392343E-03 -0.24128647843E-03  0.51922114409E-02  0.52106162088E-02  0.00000000000E+00 0. -1.
</event>
<event>
 5   0  0.4143600E+04  0.9118800E+02  0.7546771E-02  0.1180000E+00
      -11   -1    0    0    0    0  0.00000000000E+00  0.00000000000E+00  0.34996269501E-01  0.35000000000E-01  0.51099999109E-03 0.  1.
       11   -1    0    0    0    0 -0.00000000000E+00 -0.00000000000E+00 -0.34996269501E-01  0.35000000000E-01  0.51099999109E-03 0. -1.
       22    1    1    2    0    0  0.54514085649E-02  0.33242322914E-01  0.34144951398E-02  0.33858952511E-01  0.00000000000E+00 0.  1.
       22    1    1    2    0    0 -0.41019333879E-02 -0.32232833057E-01 -0.17937235729E-03  0.32493284827E-01  0.00000000000E+00 0. -1.
       22    1    1    2    0    0 -0.13494751770E-02 -0.10094898573E-02 -0.32351227825E-02  0.36477626627E-02  0.00000000000E+00 0. -1.
</event>
<event>
 5   0  0.4143600E+04  0.9118800E+02  0.7546771E-02  0.1180000E+00
      -11   -1    0    0    0    0  0.00000000000E+00  0.00000000000E+00  0.34996269501E-01  0.35000000000E-01  0.51099999109E-03 0.  1.
       11   -1    0    0    0    0 -0.00000000000E+00 -0.00000000000E+00 -0.34996269501E-01  0.35000000000E-01  0.51099999109E-03 0. -1.
       22    1    1    2    0    0 -0.55322244897E-04  0.31695916035E-04  0.10408141113E-02  0.10427651683E-02  0.00000000000E+00 0.  1.
       22    1    1    2    0    0 -0.72312062849E-02 -0.16104729435E-01 -0.30137314321E-01  0.34927215305E-01  0.00000000000E+00 0. -1.
       22    1    1    2    0    0  0.72865285298E-02  0.16073033519E-01  0.29096500209E-01  0.34030019526E-01  0.00000000000E+00 0.  1.
</event>
<event>
 5   0  0.4143600E+04  0.9118800E+02  0.7546771E-02  0.1180000E+00
      -11   -1    0    0    0    0  0.00000000000E+00  0.00000000000E+00  0.34996269501E-01  0.35000000000E-01  0.51099999109E-03 0.  1.
       11   -1    0    0    0    0 -0.00000000000E+00 -0.00000000000E+00 -0.34996269501E-01  0.35000000000E-01  0.51099999109E-03 0.  1.
       22    1    1    2    0    0  0.10650744634E-03 -0.10188186956E-03  0.34904376788E-01  0.34904687976E-01  0.00000000000E+00 0.  1.
       22    1    1    2    0    0  0.34277287981E-03  0.62317345198E-03 -0.12834159065E-02  0.14673086886E-02  0.00000000000E+00 0. -1.
       22    1    1    2    0    0 -0.44928032615E-03 -0.52129158243E-03 -0.33620960881E-01  0.33628003335E-01  0.00000000000E+00 0.  1.
</event>
<event>
 5   0  0.4143600E+04  0.9118800E+02  0.7546771E-02  0.1180000E+00
      -11   -1    0    0    0    0  0.00000000000E+00  0.00000000000E+00  0.34996269501E-01  0.35000000000E-01  0.51099999109E-03 0. -1.
       11   -1    0    0    0    0 -0.00000000000E+00 -0.00000000000E+00 -0.34996269501E-01  0.35000000000E-01  0.51099999109E-03 0.  1.
       22    1    1    2    0    0 -0.15219397589E-01  0.49141264062E-02 -0.24782377568E-01  0.29494829025E-01  0.00000000000E+00 0.  1.
       22    1    1    2    0    0  0.97195040286E-02 -0.11146531517E-02 -0.42839707294E-02  0.10680056902E-01  0.00000000000E+00 0.  1.
       22    1    1    2    0    0  0.54998935602E-02 -0.37994732545E-02  0.29066348297E-01  0.29825114074E-01  0.00000000000E+00 0. -1.
</event>
<event>
 5   0  0.4143600E+04  0.9118800E+02  0.7546771E-02  0.1180000E+00
      -11   -1    0    0    0    0  0.00000000000E+00  0.00000000000E+00  0.34996269501E-01  0.35000000000E-01  0.51099999109E-03 0. -1.
       11   -1    0    0    0    0 -0.00000000000E+00 -0.00000000000E+00 -0.34996269501E-01  0.35000000000E-01  0.51099999109E-03 0.  1.
       22    1    1    2    0    0 -0.14365305895E-02  0.19005267838E-02  0.34788227372E-01  0.34869705847E-01  0.00000000000E+00 0. -1.
       22    1    1    2    0    0  0.78134654346E-03  0.29839843394E-03 -0.11939808934E-02  0.14577840788E-02  0.00000000000E+00 0.  1.
       22    1    1    2    0    0  0.65518404599E-03 -0.21989252177E-02 -0.33594246478E-01  0.33672510074E-01  0.00000000000E+00 0.  1.
</event>
<event>
 5   0  0.4143600E+04  0.9118800E+02  0.7546771E-02  0.1180000E+00
      -11   -1    0    0    0    0  0.00000000000E+00  0.00000000000E+00  0.34996269501E-01  0.35000000000E-01  0.51099999109E-03 0. -1.
       11   -1    0    0    0    0 -0.00000000000E+00 -0.00000000000E+00 -0.34996269501E-01  0.35000000000E-01  0.51099999109E-03 0.  1.
       22    1    1    2    0    0 -0.12153009689E-01 -0.12796368814E-01  0.26539664315E-01  0.31871562266E-01  0.00000000000E+00 0. -1.
       22    1    1    2    0    0  0.14319565598E-01  0.11920657370E-01 -0.29168275946E-01  0.34611274936E-01  0.00000000000E+00 0.  1.
       22    1    1    2    0    0 -0.21665559094E-02  0.87571144390E-03  0.26286116307E-02  0.35171627979E-02  0.00000000000E+00 0.  1.
</event>
<event>
 5   0  0.4143600E+04  0.9118800E+02  0.7546771E-02  0.1180000E+00
      -11   -1    0    0    0    0  0.00000000000E+00  0.00000000000E+00  0.34996269501E-01  0.35000000000E-01  0.51099999109E-03 0.  1.
       11   -1    0    0    0    0 -0.00000000000E+00 -0.00000000000E+00 -0.34996269501E-01  0.35000000000E-01  0.51099999109E-03 0.  1.
       22    1    1    2    0    0 -0.00000000000E+00 -0.00000000000E+00  0.34906810184E-01  0.34903842077E-01  0.00000000000E+00 0.  1.
       22    1    1    2    0    0  0.18550105237E-03 -0.64919888236E-03 -0.33749797192E-01  0.33756550184E-01  0.00000000000E+00 0.  1.
       22    1    1    2    0    0 -0.18550105237E-03  0.64919888236E-03 -0.11570129928E-02  0.13396077391E-02  0.00000000000E+00 0. -1.
</event>
<event>
 5   0  0.4143600E+04  0.9118800E+02  0.7546771E-02  0.1180000E+00
      -11   -1    0    0    0    0  0.00000000000E+00  0.00000000000E+00  0.34996269501E-01  0.35000000000E-01  0.51099999109E-03 0. -1.
       11   -1    0    0    0    0 -0.00000000000E+00 -0.00000000000E+00 -0.34996269501E-01  0.35000000000E-01  0.51099999109E-03 0.  1.
       22    1    1    2    0    0 -0.11008494649E-04 -0.11804002710E-04  0.52601929055E-03  0.52626686716E-03  0.00000000000E+00 0.  1.
       22    1    1    2    0    0 -0.58794863446E-03  0.12120088392E-01  0.32287485549E-01  0.34492375235E-01  0.00000000000E+00 0. -1.
       22    1    1    2    0    0  0.59895712910E-03 -0.12108284390E-01 -0.32813504840E-01  0.34981357898E-01  0.00000000000E+00 0.  1.
</event>
<event>
 5   0  0.4143600E+04  0.9118800E+02  0.7546771E-02  0.1180000E+00
      -11   -1    0    0    0    0  0.00000000000E+00  0.00000000000E+00  0.34996269501E-01  0.35000000000E-01  0.51099999109E-03 0. -1.
       11   -1    0    0    0    0 -0.00000000000E+00 -0.00000000000E+00 -0.34996269501E-01  0.35000000000E-01  0.51099999109E-03 0.  1.
       22    1    1    2    0    0  0.71013895349E-02 -0.10371607461E-01 -0.31418810805E-01  0.33839941593E-01  0.00000000000E+00 0.  1.
       22    1    1    2    0    0  0.10624249824E-02  0.12519603880E-02 -0.70232593544E-03  0.17858928792E-02  0.00000000000E+00 0. -1.
       22    1    1    2    0    0 -0.81638145173E-02  0.91196470725E-02  0.32121136740E-01  0.34374165527E-01  0.00000000000E+00 0. -1.
</event>
<event>
 5   0  0.4143600E+04  0.9118800E+02  0.7546771E-02  0.1180000E+00
      -11   -1    0    0    0    0  0.00000000000E+00  0.00000000000E+00  0.34996269501E-01  0.35000000000E-01  0.51099999109E-03 0. -1.
       11   -1    0    0    0    0 -0.00000000000E+00 -0.00000000000E+00 -0.34996269501E-01  0.35000000000E-01  0.51099999109E-03 0.  1.
       22    1    1    2    0    0  0.14961218761E-02  0.12807198967E-02  0.71369360418E-02  0.74036801786E-02  0.00000000000E+00 0. -1.
       22    1    1    2    0    0 -0.43451166697E-02 -0.16945133942E-01 -0.30004751541E-01  0.34731868913E-01  0.00000000000E+00 0.  1.
       22    1    1    2    0    0  0.28489947936E-02  0.15664414045E-01  0.22867815499E-01  0.27864450908E-01  0.00000000000E+00 0. -1.
</event>
<event>
 5   0  0.4143600E+04  0.9118800E+02  0.7546771E-02  0.1180000E+00
      -11   -1    0    0    0    0  0.00000000000E+00  0.00000000000E+00  0.34996269501E-01  0.35000000000E-01  0.51099999109E-03 0. -1.
       11   -1    0    0    0    0 -0.00000000000E+00 -0.00000000000E+00 -0.34996269501E-01  0.35000000000E-01  0.51099999109E-03 0.  1.
       22    1    1    2    0    0 -0.26276903596E-02 -0.25663971702E-03 -0.65454117006E-02  0.70578350010E-02  0.00000000000E+00 0. -1.
       22    1    1    2    0    0  0.11686672555E-02 -0.45811976941E-02  0.34354204174E-01  0.34678011764E-01  0.00000000000E+00 0. -1.
       22    1    1    2    0    0  0.14590231040E-02  0.48378374112E-02 -0.27808792474E-01  0.28264153235E-01  0.00000000000E+00 0.  1.
</event>
<event>
 5   0  0.4143600E+04  0.9118800E+02  0.7546771E-02  0.1180000E+00
      -11   -1    0    0    0    0  0.00000000000E+00  0.00000000000E+00  0.34996269501E-01  0.35000000000E-01  0.51099999109E-03 0. -1.
       11   -1    0    0    0    0 -0.00000000000E+00 -0.00000000000E+00 -0.34996269501E-01  0.35000000000E-01  0.51099999109E-03 0.  1.
       22    1    1    2    0    0  0.13382958528E-01  0.93458929530E-02 -0.30559854908E-01  0.34646125701E-01  0.00000000000E+00 0.  1.
       22    1    1    2    0    0 -0.12314921545E-03  0.24309921581E-03  0.49820459421E-02  0.49894934339E-02  0.00000000000E+00 0.  1.
       22    1    1    2    0    0 -0.13259809313E-01 -0.95889921688E-02  0.25577808966E-01  0.30364380865E-01  0.00000000000E+00 0. -1.
</event>
<event>
 5   0  0.4143600E+04  0.9118800E+02  0.7546771E-02  0.1180000E+00
      -11   -1    0    0    0    0  0.00000000000E+00  0.00000000000E+00  0.34996269501E-01  0.35000000000E-01  0.51099999109E-03 0. -1.
       11   -1    0    0    0    0 -0.00000000000E+00 -0.00000000000E+00 -0.34996269501E-01  0.35000000000E-01  0.51099999109E-03 0.  1.
       22    1    1    2    0    0 -0.77621723495E-02  0.31765898059E-02  0.50078635028E-02  0.97683539679E-02  0.00000000000E+00 0. -1.
       22    1    1    2    0    0  0.19776002015E-01  0.20725214577E-02 -0.27656131872E-01  0.34062402015E-01  0.00000000000E+00 0.  1.
       22    1    1    2    0    0 -0.12013829665E-01 -0.52491112635E-02  0.22648268370E-01  0.26169244017E-01  0.00000000000E+00 0. -1.
</event>
<event>
 5   0  0.4143600E+04  0.9118800E+02  0.7546771E-02  0.1180000E+00
      -11   -1    0    0    0    0  0.00000000000E+00  0.00000000000E+00  0.34996269501E-01  0.35000000000E-01  0.51099999109E-03 0.  1.
       11   -1    0    0    0    0 -0.00000000000E+00 -0.00000000000E+00 -0.34996269501E-01  0.35000000000E-01  0.51099999109E-03 0. -1.
       22    1    1    2    0    0  0.74463988534E-04 -0.25633203550E-03 -0.51685012173E-03  0.58170872981E-03  0.00000000000E+00 0. -1.
       22    1    1    2    0    0  0.43762134764E-03  0.55320354457E-03  0.34961470473E-01  0.34968585390E-01  0.00000000000E+00 0.  1.
       22    1    1    2    0    0 -0.51208533617E-03 -0.29687150907E-03 -0.34444620351E-01  0.34449705880E-01  0.00000000000E+00 0. -1.
</event>
<event>
 5   0  0.4143600E+04  0.9118800E+02  0.7546771E-02  0.1180000E+00
      -11   -1    0    0    0    0  0.00000000000E+00  0.00000000000E+00  0.34996269501E-01  0.35000000000E-01  0.51099999109E-03 0.  1.
       11   -1    0    0    0    0 -0.00000000000E+00 -0.00000000000E+00 -0.34996269501E-01  0.35000000000E-01  0.51099999109E-03 0. -1.
       22    1    1    2    0    0 -0.13802986698E-01 -0.31135582003E-02 -0.31551199803E-01  0.34578821487E-01  0.00000000000E+00 0. -1.
       22    1    1    2    0    0 -0.54517164484E-03  0.38402513718E-03  0.15003141257E-04  0.66701763288E-03  0.00000000000E+00 0.  1.
       22    1    1    2    0    0  0.14348158343E-01  0.27295330631E-02  0.31536196662E-01  0.34754160880E-01  0.00000000000E+00 0.  1.
</event>
<event>
 5   0  0.4143600E+04  0.9118800E+02  0.7546771E-02  0.1180000E+00
      -11   -1    0    0    0    0  0.00000000000E+00  0.00000000000E+00  0.34996269501E-01  0.35000000000E-01  0.51099999109E-03 0.  1.
       11   -1    0    0    0    0 -0.00000000000E+00 -0.00000000000E+00 -0.34996269501E-01  0.35000000000E-01  0.51099999109E-03 0. -1.
       22    1    1    2    0    0 -0.48470041246E-02  0.15319287990E-01 -0.27114136213E-01  0.31517462082E-01  0.00000000000E+00 0. -1.
       22    1    1    2    0    0  0.63301573068E-02 -0.15351276050E-01  0.30532690170E-01  0.34755974118E-01  0.00000000000E+00 0.  1.
       22    1    1    2    0    0 -0.14831531822E-02  0.31988059937E-04 -0.34185539573E-02  0.37265638002E-02  0.00000000000E+00 0. -1.
</event>
<event>
 5   0  0.4143600E+04  0.9118800E+02  0.7546771E-02  0.1180000E+00
      -11   -1    0    0    0    0  0.00000000000E+00  0.00000000000E+00  0.34996269501E-01  0.35000000000E-01  0.51099999109E-03 0.  1.
       11   -1    0    0    0    0 -0.00000000000E+00 -0.00000000000E+00 -0.34996269501E-01  0.35000000000E-01  0.51099999109E-03 0. -1.
       22    1    1    2    0    0  0.79713278565E-03 -0.99335823750E-03 -0.33926092953E-02  0.36238072653E-02  0.00000000000E+00 0. -1.
       22    1    1    2    0    0 -0.17455623828E-02  0.23320422693E-01 -0.22307538166E-01  0.32318962880E-01  0.00000000000E+00 0. -1.
       22    1    1    2    0    0  0.94842959710E-03 -0.22327064455E-01  0.25700147461E-01  0.34057229855E-01  0.00000000000E+00 0.  1.
</event>
<event>
 5   0  0.4143600E+04  0.9118800E+02  0.7546771E-02  0.1180000E+00
      -11   -1    0    0    0    0  0.00000000000E+00  0.00000000000E+00  0.34996269501E-01  0.35000000000E-01  0.51099999109E-03 0.  1.
       11   -1    0    0    0    0 -0.00000000000E+00 -0.00000000000E+00 -0.34996269501E-01  0.35000000000E-01  0.51099999109E-03 0. -1.
       22    1    1    2    0    0 -0.76437099086E-02 -0.21792712744E-01 -0.25875935766E-01  0.34683031610E-01  0.00000000000E+00 0. -1.
       22    1    1    2    0    0  0.32906466065E-03  0.39047128821E-03  0.33741636701E-02  0.34125843360E-02  0.00000000000E+00 0. -1.
       22    1    1    2    0    0  0.73146452479E-02  0.21402241455E-01  0.22501772096E-01  0.31904384054E-01  0.00000000000E+00 0.  1.
</event>
<event>
 5   0  0.4143600E+04  0.9118800E+02  0.7546771E-02  0.1180000E+00
      -11   -1    0    0    0    0  0.00000000000E+00  0.00000000000E+00  0.34996269501E-01  0.35000000000E-01  0.51099999109E-03 0. -1.
       11   -1    0    0    0    0 -0.00000000000E+00 -0.00000000000E+00 -0.34996269501E-01  0.35000000000E-01  0.51099999109E-03 0.  1.
       22    1    1    2    0    0  0.93891939677E-02 -0.13162324020E-01 -0.30857406901E-01  0.34836522467E-01  0.00000000000E+00 0.  1.
       22    1    1    2    0    0 -0.25848489827E-03  0.82244542289E-04 -0.13784955130E-03  0.30427143501E-03  0.00000000000E+00 0.  1.
       22    1    1    2    0    0 -0.91307090695E-02  0.13080079478E-01  0.30995256452E-01  0.34859206098E-01  0.00000000000E+00 0. -1.
</event>
<event>
 5   0  0.4143600E+04  0.9118800E+02  0.7546771E-02  0.1180000E+00
      -11   -1    0    0    0    0  0.00000000000E+00  0.00000000000E+00  0.34996269501E-01  0.35000000000E-01  0.51099999109E-03 0.  1.
       11   -1    0    0    0    0 -0.00000000000E+00 -0.00000000000E+00 -0.34996269501E-01  0.35000000000E-01  0.51099999109E-03 0. -1.
       22    1    1    2    0    0  0.96663015880E-02 -0.59710843371E-02  0.28016259212E-01  0.30232466237E-01  0.00000000000E+00 0.  1.
       22    1    1    2    0    0 -0.99141211883E-02  0.60911888610E-02 -0.32889186530E-01  0.34886830914E-01  0.00000000000E+00 0. -1.
       22    1    1    2    0    0  0.24781960026E-03 -0.12010452392E-03  0.48729273177E-02  0.48807028484E-02  0.00000000000E+00 0.  1.
</event>
<event>
 5   0  0.4143600E+04  0.9118800E+02  0.7546771E-02  0.1180000E+00
      -11   -1    0    0    0    0  0.00000000000E+00  0.00000000000E+00  0.34996269501E-01  0.35000000000E-01  0.51099999109E-03 0.  1.
       11   -1    0    0    0    0 -0.00000000000E+00 -0.00000000000E+00 -0.34996269501E-01  0.35000000000E-01  0.51099999109E-03 0.  1.
       22    1    1    2    0    0 -0.10272570863E-01 -0.15935996636E-01  0.10551549238E-01  0.21698315423E-01  0.00000000000E+00 0. -1.
       22    1    1    2    0    0  0.00000000000E+00  0.00000000000E+00  0.15821773761E-01  0.15820399705E-01  0.00000000000E+00 0.  1.
       22    1    1    2    0    0  0.10272570863E-01  0.15935996636E-01 -0.26373322999E-01  0.32481284871E-01  0.00000000000E+00 0.  1.
</event>
<event>
 5   0  0.4143600E+04  0.9118800E+02  0.7546771E-02  0.1180000E+00
      -11   -1    0    0    0    0  0.00000000000E+00  0.00000000000E+00  0.34996269501E-01  0.35000000000E-01  0.51099999109E-03 0. -1.
       11   -1    0    0    0    0 -0.00000000000E+00 -0.00000000000E+00 -0.34996269501E-01  0.35000000000E-01  0.51099999109E-03 0.  1.
       22    1    1    2    0    0  0.10083898245E-01 -0.70130201809E-02  0.10522844094E-01  0.16173982308E-01  0.00000000000E+00 0. -1.
       22    1    1    2    0    0 -0.97374384141E-02  0.65845227856E-02 -0.31096989504E-01  0.33244494332E-01  0.00000000000E+00 0.  1.
       22    1    1    2    0    0 -0.34645983115E-03  0.42849739531E-03  0.20574145411E-01  0.20581523360E-01  0.00000000000E+00 0. -1.
</event>
<event>
 5   0  0.4143600E+04  0.9118800E+02  0.7546771E-02  0.1180000E+00
      -11   -1    0    0    0    0  0.00000000000E+00  0.00000000000E+00  0.34996269501E-01  0.35000000000E-01  0.51099999109E-03 0. -1.
       11   -1    0    0    0    0 -0.00000000000E+00 -0.00000000000E+00 -0.34996269501E-01  0.35000000000E-01  0.51099999109E-03 0.  1.
       22    1    1    2    0    0  0.17780929809E-01 -0.11947757340E-01 -0.27193181521E-01  0.34617618225E-01  0.00000000000E+00 0.  1.
       22    1    1    2    0    0 -0.17765655201E-01  0.11797439491E-01  0.27639916788E-01  0.34910787492E-01  0.00000000000E+00 0. -1.
       22    1    1    2    0    0 -0.15274608138E-04  0.15031784888E-03 -0.44673526685E-03  0.47159428325E-03  0.00000000000E+00 0. -1.
</event>
<event>
 5   0  0.4143600E+04  0.9118800E+02  0.7546771E-02  0.1180000E+00
      -11   -1    0    0    0    0  0.00000000000E+00  0.00000000000E+00  0.34996269501E-01  0.35000000000E-01  0.51099999109E-03 0.  1.
       11   -1    0    0    0    0 -0.00000000000E+00 -0.00000000000E+00 -0.34996269501E-01  0.35000000000E-01  0.51099999109E-03 0. -1.
       22    1    1    2    0    0 -0.89383918176E-03  0.15648548952E-01  0.20223346027E-01  0.25586319730E-01  0.00000000000E+00 0.  1.
       22    1    1    2    0    0  0.78413819463E-03 -0.15484998736E-01 -0.30457895668E-01  0.34177236095E-01  0.00000000000E+00 0. -1.
       22    1    1    2    0    0  0.10970098712E-03 -0.16355021613E-03  0.10234549642E-01  0.10236444175E-01  0.00000000000E+00 0. -1.
</event>
<event>
 5   0  0.4143600E+04  0.9118800E+02  0.7546771E-02  0.1180000E+00
      -11   -1    0    0    0    0  0.00000000000E+00  0.00000000000E+00  0.34996269501E-01  0.35000000000E-01  0.51099999109E-03 0. -1.
       11   -1    0    0    0    0 -0.00000000000E+00 -0.00000000000E+00 -0.34996269501E-01  0.35000000000E-01  0.51099999109E-03 0.  1.
       22    1    1    2    0    0  0.62200364725E-02  0.10919409786E-01  0.49645205848E-02  0.13511803300E-01  0.00000000000E+00 0.  1.
       22    1    1    2    0    0 -0.46600955391E-02 -0.13697846476E-01 -0.28911636493E-01  0.32330020310E-01  0.00000000000E+00 0. -1.
       22    1    1    2    0    0 -0.15599409334E-02  0.27784366903E-02  0.23947115908E-01  0.24158176390E-01  0.00000000000E+00 0. -1.
</event>
<event>
 5   0  0.4143600E+04  0.9118800E+02  0.7546771E-02  0.1180000E+00
      -11   -1    0    0    0    0  0.00000000000E+00  0.00000000000E+00  0.34996269501E-01  0.35000000000E-01  0.51099999109E-03 0.  1.
       11   -1    0    0    0    0 -0.00000000000E+00 -0.00000000000E+00 -0.34996269501E-01  0.35000000000E-01  0.51099999109E-03 0. -1.
       22    1    1    2    0    0 -0.42858215371E-03 -0.43420953602E-04 -0.34564203971E-01  0.34566888263E-01  0.00000000000E+00 0. -1.
       22    1    1    2    0    0 -0.13288280867E-03  0.12233895049E-03 -0.41328315393E-03  0.45102951674E-03  0.00000000000E+00 0.  1.
       22    1    1    2    0    0  0.56146496238E-03 -0.78917996886E-04  0.34977487124E-01  0.34982082221E-01  0.00000000000E+00 0.  1.
</event>
<event>
 5   0  0.4143600E+04  0.9118800E+02  0.7546771E-02  0.1180000E+00
      -11   -1    0    0    0    0  0.00000000000E+00  0.00000000000E+00  0.34996269501E-01  0.35000000000E-01  0.51099999109E-03 0. -1.
       11   -1    0    0    0    0 -0.00000000000E+00 -0.00000000000E+00 -0.34996269501E-01  0.35000000000E-01  0.51099999109E-03 0.  1.
       22    1    1    2    0    0 -0.73423217846E-04  0.54583435028E-03 -0.23648419321E-02  0.24281275648E-02  0.00000000000E+00 0. -1.
       22    1    1    2    0    0  0.17999609243E-01  0.84634780395E-02  0.28419145069E-01  0.34688098822E-01  0.00000000000E+00 0. -1.
       22    1    1    2    0    0 -0.17926186025E-01 -0.90093123898E-02 -0.26054303137E-01  0.32883773614E-01  0.00000000000E+00 0.  1.
</event>
<event>
 5   0  0.4143600E+04  0.9118800E+02  0.7546771E-02  0.1180000E+00
      -11   -1    0    0    0    0  0.00000000000E+00  0.00000000000E+00  0.34996269501E-01  0.35000000000E-01  0.51099999109E-03 0.  1.
       11   -1    0    0    0    0 -0.00000000000E+00 -0.00000000000E+00 -0.34996269501E-01  0.35000000000E-01  0.51099999109E-03 0. -1.
       22    1    1    2    0    0  0.16269013735E-01  0.21519910520E-02  0.21226735040E-01  0.26830694249E-01  0.00000000000E+00 0.  1.
       22    1    1    2    0    0 -0.13227703074E-02  0.64002102553E-03  0.91141185615E-02  0.92318202621E-02  0.00000000000E+00 0.  1.
       22    1    1    2    0    0 -0.14946243428E-01 -0.27920120775E-02 -0.30340853602E-01  0.33937485489E-01  0.00000000000E+00 0. -1.
</event>
<event>
 5   0  0.4143600E+04  0.9118800E+02  0.7546771E-02  0.1180000E+00
      -11   -1    0    0    0    0  0.00000000000E+00  0.00000000000E+00  0.34996269501E-01  0.35000000000E-01  0.51099999109E-03 0. -1.
       11   -1    0    0    0    0 -0.00000000000E+00 -0.00000000000E+00 -0.34996269501E-01  0.35000000000E-01  0.51099999109E-03 0.  1.
       22    1    1    2    0    0  0.18783472728E-02  0.26370670939E-02  0.34735049756E-01  0.34885612979E-01  0.00000000000E+00 0. -1.
       22    1    1    2    0    0  0.34374680391E-03 -0.54330335644E-03 -0.73080596723E-03  0.97335387401E-03  0.00000000000E+00 0. -1.
       22    1    1    2    0    0 -0.22220940767E-02 -0.20937637375E-02 -0.34004243789E-01  0.34141033147E-01  0.00000000000E+00 0.  1.
</event>
<event>
 5   0  0.4143600E+04  0.9118800E+02  0.7546771E-02  0.1180000E+00
      -11   -1    0    0    0    0  0.00000000000E+00  0.00000000000E+00  0.34996269501E-01  0.35000000000E-01  0.51099999109E-03 0.  1.
       11   -1    0    0    0    0 -0.00000000000E+00 -0.00000000000E+00 -0.34996269501E-01  0.35000000000E-01  0.51099999109E-03 0. -1.
       22    1    1    2    0    0  0.93585765940E-03 -0.28955329784E-03 -0.76813585116E-02  0.77435740621E-02  0.00000000000E+00 0. -1.
       22    1    1    2    0    0  0.10921518743E-02  0.11503428574E-01  0.32744844442E-01  0.34723860704E-01  0.00000000000E+00 0.  1.
       22    1    1    2    0    0 -0.20280095336E-02 -0.11213875276E-01 -0.25063485930E-01  0.27532565234E-01  0.00000000000E+00 0. -1.
</event>
<event>
 5   0  0.4143600E+04  0.9118800E+02  0.7546771E-02  0.1180000E+00
      -11   -1    0    0    0    0  0.00000000000E+00  0.00000000000E+00  0.34996269501E-01  0.35000000000E-01  0.51099999109E-03 0. -1.
       11   -1    0    0    0    0 -0.00000000000E+00 -0.00000000000E+00 -0.34996269501E-01  0.35000000000E-01  0.51099999109E-03 0.  1.
       22    1    1    2    0    0  0.10404344078E-01  0.48831532566E-02  0.30798900140E-02  0.11898793381E-01  0.00000000000E+00 0. -1.
       22    1    1    2    0    0  0.14744839451E-02 -0.40691640002E-02  0.26167527423E-01  0.26523040738E-01  0.00000000000E+00 0. -1.
       22    1    1    2    0    0 -0.11878828023E-01 -0.81398925643E-03 -0.29247417437E-01  0.31578165881E-01  0.00000000000E+00 0.  1.
</event>
<event>
 5   0  0.4143600E+04  0.9118800E+02  0.7546771E-02  0.1180000E+00
      -11   -1    0    0    0    0  0.00000000000E+00  0.00000000000E+00  0.34996269501E-01  0.35000000000E-01  0.51099999109E-03 0.  1.
       11   -1    0    0    0    0 -0.00000000000E+00 -0.00000000000E+00 -0.34996269501E-01  0.35000000000E-01  0.51099999109E-03 0. -1.
       22    1    1    2    0    0  0.15501723881E-03  0.24741867063E-04  0.57956128493E-03  0.60044465799E-03  0.00000000000E+00 0.  1.
       22    1    1    2    0    0  0.11877344113E-01 -0.48471759290E-02 -0.32503910318E-01  0.34943820679E-01  0.00000000000E+00 0. -1.
       22    1    1    2    0    0 -0.12032361352E-01  0.48224340619E-02  0.31924349033E-01  0.34455734663E-01  0.00000000000E+00 0.  1.
</event>
<event>
 5   0  0.4143600E+04  0.9118800E+02  0.7546771E-02  0.1180000E+00
      -11   -1    0    0    0    0  0.00000000000E+00  0.00000000000E+00  0.34996269501E-01  0.35000000000E-01  0.51099999109E-03 0. -1.
       11   -1    0    0    0    0 -0.00000000000E+00 -0.00000000000E+00 -0.34996269501E-01  0.35000000000E-01  0.51099999109E-03 0. -1.
       22    1    1    2    0    0 -0.35511338909E-02 -0.51703232735E-02 -0.23681207547E-01  0.24497803689E-01  0.00000000000E+00 0.  1.
       22    1    1    2    0    0 -0.22871021798E-03  0.18511678020E-03  0.33694175150E-01  0.33695459867E-01  0.00000000000E+00 0. -1.
       22    1    1    2    0    0  0.37798441088E-02  0.49852064933E-02 -0.10012967603E-01  0.11806736445E-01  0.00000000000E+00 0. -1.
</event>
<event>
 5   0  0.4143600E+04  0.9118800E+02  0.7546771E-02  0.1180000E+00
      -11   -1    0    0    0    0  0.00000000000E+00  0.00000000000E+00  0.34996269501E-01  0.35000000000E-01  0.51099999109E-03 0.  1.
       11   -1    0    0    0    0 -0.00000000000E+00 -0.00000000000E+00 -0.34996269501E-01  0.35000000000E-01  0.51099999109E-03 0.  1.
       22    1    1    2    0    0 -0.38611780181E-03  0.13874106911E-03 -0.10661463928E-02  0.11423677920E-02  0.00000000000E+00 0. -1.
       22    1    1    2    0    0 -0.23767284905E-04  0.35531853106E-03  0.34957942851E-01  0.34959756643E-01  0.00000000000E+00 0.  1.
       22    1    1    2    0    0  0.40988508672E-03 -0.49405960017E-03 -0.33891796458E-01  0.33897875565E-01  0.00000000000E+00 0.  1.
</event>
<event>
 5   0  0.4143600E+04  0.9118800E+02  0.7546771E-02  0.1180000E+00
      -11   -1    0    0    0    0  0.00000000000E+00  0.00000000000E+00  0.34996269501E-01  0.35000000000E-01  0.51099999109E-03 0. -1.
       11   -1    0    0    0    0 -0.00000000000E+00 -0.00000000000E+00 -0.34996269501E-01  0.35000000000E-01  0.51099999109E-03 0.  1.
       22    1    1    2    0    0  0.73956937044E-03  0.13064289333E-02 -0.20878164768E-02  0.25715164888E-02  0.00000000000E+00 0. -1.
       22    1    1    2    0    0  0.44560678744E-02 -0.12419824162E-01  0.32261825466E-01  0.34855902736E-01  0.00000000000E+00 0. -1.
       22    1    1    2    0    0 -0.51956372449E-02  0.11113395229E-01 -0.30174008989E-01  0.32572580775E-01  0.00000000000E+00 0.  1.
</event>
<event>
 5   0  0.4143600E+04  0.9118800E+02  0.7546771E-02  0.1180000E+00
      -11   -1    0    0    0    0  0.00000000000E+00  0.00000000000E+00  0.34996269501E-01  0.35000000000E-01  0.51099999109E-03 0.  1.
       11   -1    0    0    0    0 -0.00000000000E+00 -0.00000000000E+00 -0.34996269501E-01  0.35000000000E-01  0.51099999109E-03 0. -1.
       22    1    1    2    0    0 -0.18762960968E-02  0.12620735533E-01 -0.31415000287E-01  0.33907310354E-01  0.00000000000E+00 0. -1.
       22    1    1    2    0    0  0.18880024483E-02 -0.12150144157E-01  0.32587030395E-01  0.34829658428E-01  0.00000000000E+00 0.  1.
       22    1    1    2    0    0 -0.11706351590E-04 -0.47059137636E-03 -0.11720301081E-02  0.12630312175E-02  0.00000000000E+00 0.  1.
</event>
<event>
 5   0  0.4143600E+04  0.9118800E+02  0.7546771E-02  0.1180000E+00
      -11   -1    0    0    0    0  0.00000000000E+00  0.00000000000E+00  0.34996269501E-01  0.35000000000E-01  0.51099999109E-03 0.  1.
       11   -1    0    0    0    0 -0.00000000000E+00 -0.00000000000E+00 -0.34996269501E-01  0.35000000000E-01  0.51099999109E-03 0. -1.
       22    1    1    2    0    0 -0.12424339044E-01 -0.16247608731E-01 -0.26817463101E-01  0.33727219235E-01  0.00000000000E+00 0. -1.
       22    1    1    2    0    0  0.12456007495E-03 -0.47672230810E-04 -0.14208395589E-02  0.14270854586E-02  0.00000000000E+00 0.  1.
       22    1    1    2    0    0  0.12299778969E-01  0.16295280962E-01  0.28238302659E-01  0.34845695307E-01  0.00000000000E+00 0.  1.
</event>
<event>
 5   0  0.4143600E+04  0.9118800E+02  0.7546771E-02  0.1180000E+00
      -11   -1    0    0    0    0  0.00000000000E+00  0.00000000000E+00  0.34996269501E-01  0.35000000000E-01  0.51099999109E-03 0.  1.
       11   -1    0    0    0    0 -0.00000000000E+00 -0.00000000000E+00 -0.34996269501E-01  0.35000000000E-01  0.51099999109E-03 0. -1.
       22    1    1    2    0    0 -0.15310287148E-01  0.12043036390E-01  0.28450946154E-01  0.34480370577E-01  0.00000000000E+00 0.  1.
       22    1    1    2    0    0 -0.65981331741E-03 -0.10872183994E-03 -0.35917900700E-02  0.36535092664E-02  0.00000000000E+00 0.  1.
       22    1    1    2    0    0  0.15970100465E-01 -0.11934314550E-01 -0.24859156084E-01  0.31866120157E-01  0.00000000000E+00 0. -1.
</event>
<event>
 5   0  0.4143600E+04  0.9118800E+02  0.7546771E-02  0.1180000E+00
      -11   -1    0    0    0    0  0.00000000000E+00  0.00000000000E+00  0.34996269501E-01  0.35000000000E-01  0.51099999109E-03 0.  1.
       11   -1    0    0    0    0 -0.00000000000E+00 -0.00000000000E+00 -0.34996269501E-01  0.35000000000E-01  0.51099999109E-03 0. -1.
       22    1    1    2    0    0  0.19684752917E-01  0.89232522868E-03 -0.27976853966E-01  0.34219732605E-01  0.00000000000E+00 0. -1.
       22    1    1    2    0    0 -0.31251833149E-03  0.21540667714E-02  0.57009269642E-02  0.61023142835E-02  0.00000000000E+00 0.  1.
       22    1    1    2    0    0 -0.19372234586E-01 -0.30463920001E-02  0.22275927002E-01  0.29677953111E-01  0.00000000000E+00 0.  1.
</event>
<event>
 5   0  0.4143600E+04  0.9118800E+02  0.7546771E-02  0.1180000E+00
      -11   -1    0    0    0    0  0.00000000000E+00  0.00000000000E+00  0.34996269501E-01  0.35000000000E-01  0.51099999109E-03 0.  1.
       11   -1    0    0    0    0 -0.00000000000E+00 -0.00000000000E+00 -0.34996269501E-01  0.35000000000E-01  0.51099999109E-03 0. -1.
       22    1    1    2    0    0  0.81813881234E-02 -0.12271200279E-01 -0.30803182292E-01  0.34151918061E-01  0.00000000000E+00 0. -1.
       22    1    1    2    0    0  0.51273096420E-03  0.15048344590E-02  0.13954924990E-01  0.14045189614E-01  0.00000000000E+00 0.  1.
       22    1    1    2    0    0 -0.86941190876E-02  0.10766365820E-01  0.16848257301E-01  0.21802892326E-01  0.00000000000E+00 0.  1.
</event>
<event>
 5   0  0.4143600E+04  0.9118800E+02  0.7546771E-02  0.1180000E+00
      -11   -1    0    0    0    0  0.00000000000E+00  0.00000000000E+00  0.34996269501E-01  0.35000000000E-01  0.51099999109E-03 0.  1.
       11   -1    0    0    0    0 -0.00000000000E+00 -0.00000000000E+00 -0.34996269501E-01  0.35000000000E-01  0.51099999109E-03 0. -1.
       22    1    1    2    0    0  0.41433802115E-02 -0.43718583328E-02 -0.25830438197E-01  0.26523428932E-01  0.00000000000E+00 0. -1.
       22    1    1    2    0    0 -0.20134827490E-02  0.47327378448E-02 -0.80361785715E-02  0.95411260510E-02  0.00000000000E+00 0.  1.
       22    1    1    2    0    0 -0.21298974625E-02 -0.36087951204E-03  0.33866616768E-01  0.33935445018E-01  0.00000000000E+00 0.  1.
</event>
<event>
 5   0  0.4143600E+04  0.9118800E+02  0.7546771E-02  0.1180000E+00
      -11   -1    0    0    0    0  0.00000000000E+00  0.00000000000E+00  0.34996269501E-01  0.35000000000E-01  0.51099999109E-03 0. -1.
       11   -1    0    0    0    0 -0.00000000000E+00 -0.00000000000E+00 -0.34996269501E-01  0.35000000000E-01  0.51099999109E-03 0.  1.
       22    1    1    2    0    0 -0.26622686800E-03  0.36278658198E-03 -0.77280854576E-03  0.89427283181E-03  0.00000000000E+00 0. -1.
       22    1    1    2    0    0  0.69173210577E-03  0.43290507701E-03 -0.34155759518E-01  0.34165506119E-01  0.00000000000E+00 0.  1.
       22    1    1    2    0    0 -0.42550523777E-03 -0.79569165899E-03  0.34928568064E-01  0.34940221049E-01  0.00000000000E+00 0. -1.
</event>
<event>
 5   0  0.4143600E+04  0.9118800E+02  0.7546771E-02  0.1180000E+00
      -11   -1    0    0    0    0  0.00000000000E+00  0.00000000000E+00  0.34996269501E-01  0.35000000000E-01  0.51099999109E-03 0.  1.
       11   -1    0    0    0    0 -0.00000000000E+00 -0.00000000000E+00 -0.34996269501E-01  0.35000000000E-01  0.51099999109E-03 0. -1.
       22    1    1    2    0    0  0.32087985777E-03 -0.55333792468E-02 -0.86321140432E-02  0.10258393764E-01  0.00000000000E+00 0. -1.
       22    1    1    2    0    0 -0.87458442905E-02  0.17633933830E-01 -0.19671128352E-01  0.27828020147E-01  0.00000000000E+00 0. -1.
       22    1    1    2    0    0  0.84249644327E-02 -0.12100554583E-01  0.28303242395E-01  0.31913586088E-01  0.00000000000E+00 0.  1.
</event>
<event>
 5   0  0.4143600E+04  0.9118800E+02  0.7546771E-02  0.1180000E+00
      -11   -1    0    0    0    0  0.00000000000E+00  0.00000000000E+00  0.34996269501E-01  0.35000000000E-01  0.51099999109E-03 0. -1.
       11   -1    0    0    0    0 -0.00000000000E+00 -0.00000000000E+00 -0.34996269501E-01  0.35000000000E-01  0.51099999109E-03 0.  1.
       22    1    1    2    0    0  0.23556928976E-03  0.76153063298E-03 -0.15456909049E-02  0.17391325909E-02  0.00000000000E+00 0.  1.
       22    1    1    2    0    0  0.23451538530E-01 -0.10354953541E-01 -0.21796257466E-01  0.33649317405E-01  0.00000000000E+00 0.  1.
       22    1    1    2    0    0 -0.23687107820E-01  0.95934229081E-02  0.23341948371E-01  0.34611550005E-01  0.00000000000E+00 0. -1.
</event>
<event>
 5   0  0.4143600E+04  0.9118800E+02  0.7546771E-02  0.1180000E+00
      -11   -1    0    0    0    0  0.00000000000E+00  0.00000000000E+00  0.34996269501E-01  0.35000000000E-01  0.51099999109E-03 0.  1.
       11   -1    0    0    0    0 -0.00000000000E+00 -0.00000000000E+00 -0.34996269501E-01  0.35000000000E-01  0.51099999109E-03 0. -1.
       22    1    1    2    0    0 -0.96087131169E-03 -0.59161247117E-04 -0.28912970574E-03  0.10051714866E-02  0.00000000000E+00 0.  1.
       22    1    1    2    0    0  0.23578566825E-01 -0.58374531649E-02 -0.24793724063E-01  0.34709558134E-01  0.00000000000E+00 0. -1.
       22    1    1    2    0    0 -0.22617695513E-01  0.58966144120E-02  0.25082853768E-01  0.34285270380E-01  0.00000000000E+00 0.  1.
</event>
<event>
 5   0  0.4143600E+04  0.9118800E+02  0.7546771E-02  0.1180000E+00
      -11   -1    0    0    0    0  0.00000000000E+00  0.00000000000E+00  0.34996269501E-01  0.35000000000E-01  0.51099999109E-03 0.  1.
       11   -1    0    0    0    0 -0.00000000000E+00 -0.00000000000E+00 -0.34996269501E-01  0.35000000000E-01  0.51099999109E-03 0. -1.
       22    1    1    2    0    0  0.65329609743E-03  0.20207193931E-01  0.27709580563E-01  0.34301287692E-01  0.00000000000E+00 0.  1.
       22    1    1    2    0    0  0.50444240118E-05 -0.18179449311E-04  0.77696060920E-03  0.77718963377E-03  0.00000000000E+00 0.  1.
       22    1    1    2    0    0 -0.65834052144E-03 -0.20189014481E-01 -0.28486541172E-01  0.34921522675E-01  0.00000000000E+00 0. -1.
</event>
<event>
 5   0  0.4143600E+04  0.9118800E+02  0.7546771E-02  0.1180000E+00
      -11   -1    0    0    0    0  0.00000000000E+00  0.00000000000E+00  0.34996269501E-01  0.35000000000E-01  0.51099999109E-03 0.  1.
       11   -1    0    0    0    0 -0.00000000000E+00 -0.00000000000E+00 -0.34996269501E-01  0.35000000000E-01  0.51099999109E-03 0. -1.
       22    1    1    2    0    0  0.11658493152E-01 -0.29224489312E-04 -0.32844472291E-01  0.34852269320E-01  0.00000000000E+00 0. -1.
       22    1    1    2    0    0  0.50878591342E-04 -0.76001095265E-03  0.24731497763E-02  0.25877934800E-02  0.00000000000E+00 0.  1.
       22    1    1    2    0    0 -0.11709371743E-01  0.78923544196E-03  0.30371322515E-01  0.32559937200E-01  0.00000000000E+00 0.  1.
</event>
<event>
 5   0  0.4143600E+04  0.9118800E+02  0.7546771E-02  0.1180000E+00
      -11   -1    0    0    0    0  0.00000000000E+00  0.00000000000E+00  0.34996269501E-01  0.35000000000E-01  0.51099999109E-03 0.  1.
       11   -1    0    0    0    0 -0.00000000000E+00 -0.00000000000E+00 -0.34996269501E-01  0.35000000000E-01  0.51099999109E-03 0. -1.
       22    1    1    2    0    0  0.14242149445E-01  0.98258346564E-02 -0.29641605115E-01  0.34322159042E-01  0.00000000000E+00 0. -1.
       22    1    1    2    0    0  0.15899851268E-03 -0.38896850901E-04  0.75383375213E-02  0.75401144605E-02  0.00000000000E+00 0.  1.
       22    1    1    2    0    0 -0.14401147958E-01 -0.97869378055E-02  0.22103267594E-01  0.28137726497E-01  0.00000000000E+00 0.  1.
</event>
<event>
 5   0  0.4143600E+04  0.9118800E+02  0.7546771E-02  0.1180000E+00
      -11   -1    0    0    0    0  0.00000000000E+00  0.00000000000E+00  0.34996269501E-01  0.35000000000E-01  0.51099999109E-03 0. -1.
       11   -1    0    0    0    0 -0.00000000000E+00 -0.00000000000E+00 -0.34996269501E-01  0.35000000000E-01  0.51099999109E-03 0.  1.
       22    1    1    2    0    0 -0.96903763897E-02 -0.17111376983E-02  0.33136483437E-01  0.34566716960E-01  0.00000000000E+00 0. -1.
       22    1    1    2    0    0  0.99116135063E-02  0.23850363073E-02 -0.21705877690E-01  0.23980692375E-01  0.00000000000E+00 0.  1.
       22    1    1    2    0    0 -0.22123711658E-03 -0.67389860899E-03 -0.11430605747E-01  0.11452590665E-01  0.00000000000E+00 0.  1.
</event>
<event>
 5   0  0.4143600E+04  0.9118800E+02  0.7546771E-02  0.1180000E+00
      -11   -1    0    0    0    0  0.00000000000E+00  0.00000000000E+00  0.34996269501E-01  0.35000000000E-01  0.51099999109E-03 0. -1.
       11   -1    0    0    0    0 -0.00000000000E+00 -0.00000000000E+00 -0.34996269501E-01  0.35000000000E-01  0.51099999109E-03 0.  1.
       22    1    1    2    0    0  0.22708119413E-03  0.31311845326E-03  0.69930428073E-03  0.79914673969E-03  0.00000000000E+00 0. -1.
       22    1    1    2    0    0  0.50145465920E-02  0.16936274850E-01  0.29293603921E-01  0.34206699841E-01  0.00000000000E+00 0. -1.
       22    1    1    2    0    0 -0.52416277861E-02 -0.17249393303E-01 -0.29992908202E-01  0.34994153420E-01  0.00000000000E+00 0.  1.
</event>
<event>
 5   0  0.4143600E+04  0.9118800E+02  0.7546771E-02  0.1180000E+00
      -11   -1    0    0    0    0  0.00000000000E+00  0.00000000000E+00  0.34996269501E-01  0.35000000000E-01  0.51099999109E-03 0.  1.
       11   -1    0    0    0    0 -0.00000000000E+00 -0.00000000000E+00 -0.34996269501E-01  0.35000000000E-01  0.51099999109E-03 0. -1.
       22    1    1    2    0    0 -0.17241781380E-03 -0.46365796388E-04 -0.25164431653E-02  0.25227690924E-02  0.00000000000E+00 0.  1.
       22    1    1    2    0    0 -0.46819655786E-02 -0.20937071387E-01 -0.24734608880E-01  0.32742673019E-01  0.00000000000E+00 0. -1.
       22    1    1    2    0    0  0.48543833924E-02  0.20983437183E-01  0.27251052046E-01  0.34734557889E-01  0.00000000000E+00 0.  1.
</event>
<event>
 5   0  0.4143600E+04  0.9118800E+02  0.7546771E-02  0.1180000E+00
      -11   -1    0    0    0    0  0.00000000000E+00  0.00000000000E+00  0.34996269501E-01  0.35000000000E-01  0.51099999109E-03 0. -1.
       11   -1    0    0    0    0 -0.00000000000E+00 -0.00000000000E+00 -0.34996269501E-01  0.35000000000E-01  0.51099999109E-03 0.  1.
       22    1    1    2    0    0  0.11512291442E-01  0.14257082602E-01  0.29151305398E-01  0.34432482702E-01  0.00000000000E+00 0. -1.
       22    1    1    2    0    0  0.13616362589E-02 -0.31208437697E-03 -0.21192892769E-02  0.25382744137E-02  0.00000000000E+00 0. -1.
       22    1    1    2    0    0 -0.12873927701E-01 -0.13944998225E-01 -0.27032016121E-01  0.33029242885E-01  0.00000000000E+00 0.  1.
</event>
<event>
 5   0  0.4143600E+04  0.9118800E+02  0.7546771E-02  0.1180000E+00
      -11   -1    0    0    0    0  0.00000000000E+00  0.00000000000E+00  0.34996269501E-01  0.35000000000E-01  0.51099999109E-03 0. -1.
       11   -1    0    0    0    0 -0.00000000000E+00 -0.00000000000E+00 -0.34996269501E-01  0.35000000000E-01  0.51099999109E-03 0. -1.
       22    1    1    2    0    0  0.62190915243E-03 -0.20533468059E-02 -0.29875059875E-01  0.29951998374E-01  0.00000000000E+00 0. -1.
       22    1    1    2    0    0 -0.37814110860E-03 -0.88519558362E-03  0.34526926442E-01  0.34540341797E-01  0.00000000000E+00 0. -1.
       22    1    1    2    0    0 -0.24376804383E-03  0.29385423895E-02 -0.46518665670E-02  0.55076598289E-02  0.00000000000E+00 0.  1.
</event>
<event>
 5   0  0.4143600E+04  0.9118800E+02  0.7546771E-02  0.1180000E+00
      -11   -1    0    0    0    0  0.00000000000E+00  0.00000000000E+00  0.34996269501E-01  0.35000000000E-01  0.51099999109E-03 0. -1.
       11   -1    0    0    0    0 -0.00000000000E+00 -0.00000000000E+00 -0.34996269501E-01  0.35000000000E-01  0.51099999109E-03 0.  1.
       22    1    1    2    0    0  0.13941796296E-01 -0.87055628874E-02 -0.16260830358E-01  0.23120880456E-01  0.00000000000E+00 0. -1.
       22    1    1    2    0    0 -0.15154831426E-01  0.83250567964E-02 -0.10406865137E-01  0.20181137931E-01  0.00000000000E+00 0.  1.
       22    1    1    2    0    0  0.12130351302E-02  0.38050609106E-03  0.26667695496E-01  0.26697981612E-01  0.00000000000E+00 0. -1.
</event>
<event>
 5   0  0.4143600E+04  0.9118800E+02  0.7546771E-02  0.1180000E+00
      -11   -1    0    0    0    0  0.00000000000E+00  0.00000000000E+00  0.34996269501E-01  0.35000000000E-01  0.51099999109E-03 0.  1.
       11   -1    0    0    0    0 -0.00000000000E+00 -0.00000000000E+00 -0.34996269501E-01  0.35000000000E-01  0.51099999109E-03 0. -1.
       22    1    1    2    0    0 -0.44436085155E-02  0.35743566531E-02  0.34490977162E-01  0.34959250388E-01  0.00000000000E+00 0.  1.
       22    1    1    2    0    0  0.45642997468E-02 -0.32435155080E-02 -0.33844550030E-01  0.34304617645E-01  0.00000000000E+00 0. -1.
       22    1    1    2    0    0 -0.12069123137E-03 -0.33084114510E-03 -0.64642713203E-03  0.73613196755E-03  0.00000000000E+00 0.  1.
</event>
<event>
 5   0  0.4143600E+04  0.9118800E+02  0.7546771E-02  0.1180000E+00
      -11   -1    0    0    0    0  0.00000000000E+00  0.00000000000E+00  0.34996269501E-01  0.35000000000E-01  0.51099999109E-03 0.  1.
       11   -1    0    0    0    0 -0.00000000000E+00 -0.00000000000E+00 -0.34996269501E-01  0.35000000000E-01  0.51099999109E-03 0. -1.
       22    1    1    2    0    0 -0.10295693100E-01 -0.84833257902E-02 -0.32200047593E-01  0.34854141473E-01  0.00000000000E+00 0. -1.
       22    1    1    2    0    0  0.24680027964E-03 -0.48282707021E-03  0.21261097241E-02  0.21941683884E-02  0.00000000000E+00 0. -1.
       22    1    1    2    0    0  0.10048892820E-01  0.89661528604E-02  0.30073937869E-01  0.32951690138E-01  0.00000000000E+00 0.  1.
</event>
<event>
 5   0  0.4143600E+04  0.9118800E+02  0.7546771E-02  0.1180000E+00
      -11   -1    0    0    0    0  0.00000000000E+00  0.00000000000E+00  0.34996269501E-01  0.35000000000E-01  0.51099999109E-03 0. -1.
       11   -1    0    0    0    0 -0.00000000000E+00 -0.00000000000E+00 -0.34996269501E-01  0.35000000000E-01  0.51099999109E-03 0.  1.
       22    1    1    2    0    0 -0.72860820018E-03  0.14236453169E-01 -0.20726659159E-01  0.25155553435E-01  0.00000000000E+00 0.  1.
       22    1    1    2    0    0 -0.48428554465E-03  0.35263568817E-03 -0.10415657453E-01  0.10432871349E-01  0.00000000000E+00 0.  1.
       22    1    1    2    0    0  0.12128937448E-02 -0.14589088857E-01  0.31142316611E-01  0.34411575216E-01  0.00000000000E+00 0. -1.
</event>
<event>
 5   0  0.4143600E+04  0.9118800E+02  0.7546771E-02  0.1180000E+00
      -11   -1    0    0    0    0  0.00000000000E+00  0.00000000000E+00  0.34996269501E-01  0.35000000000E-01  0.51099999109E-03 0. -1.
       11   -1    0    0    0    0 -0.00000000000E+00 -0.00000000000E+00 -0.34996269501E-01  0.35000000000E-01  0.51099999109E-03 0.  1.
       22    1    1    2    0    0 -0.21967498108E-02 -0.13440296904E-03 -0.12759859122E-01  0.12948273194E-01  0.00000000000E+00 0. -1.
       22    1    1    2    0    0 -0.63116376281E-02  0.62239953563E-02 -0.20420131582E-01  0.22261101985E-01  0.00000000000E+00 0.  1.
       22    1    1    2    0    0  0.85083874389E-02 -0.60895923872E-02  0.33179990705E-01  0.34790624821E-01  0.00000000000E+00 0. -1.
</event>
<event>
 5   0  0.4143600E+04  0.9118800E+02  0.7546771E-02  0.1180000E+00
      -11   -1    0    0    0    0  0.00000000000E+00  0.00000000000E+00  0.34996269501E-01  0.35000000000E-01  0.51099999109E-03 0.  1.
       11   -1    0    0    0    0 -0.00000000000E+00 -0.00000000000E+00 -0.34996269501E-01  0.35000000000E-01  0.51099999109E-03 0. -1.
       22    1    1    2    0    0  0.99354556413E-02 -0.58283709578E-02 -0.32985143815E-01  0.34938558919E-01  0.00000000000E+00 0. -1.
       22    1    1    2    0    0 -0.20808794037E-03 -0.24063052049E-03  0.36055721121E-03  0.48083795698E-03  0.00000000000E+00 0. -1.
       22    1    1    2    0    0 -0.97273677010E-02  0.60690014783E-02  0.32624586604E-01  0.34580603124E-01  0.00000000000E+00 0.  1.
</event>
<event>
 5   0  0.4143600E+04  0.9118800E+02  0.7546771E-02  0.1180000E+00
      -11   -1    0    0    0    0  0.00000000000E+00  0.00000000000E+00  0.34996269501E-01  0.35000000000E-01  0.51099999109E-03 0.  1.
       11   -1    0    0    0    0 -0.00000000000E+00 -0.00000000000E+00 -0.34996269501E-01  0.35000000000E-01  0.51099999109E-03 0. -1.
       22    1    1    2    0    0  0.12421252121E-01  0.29606672006E-02 -0.32249667431E-01  0.34685646944E-01  0.00000000000E+00 0. -1.
       22    1    1    2    0    0 -0.12853896808E-01 -0.35047599894E-02  0.27999440452E-01  0.31007655044E-01  0.00000000000E+00 0.  1.
       22    1    1    2    0    0  0.43264468712E-03  0.54409278887E-03  0.42502269795E-02  0.43066980119E-02  0.00000000000E+00 0.  1.
</event>
<event>
 5   0  0.4143600E+04  0.9118800E+02  0.7546771E-02  0.1180000E+00
      -11   -1    0    0    0    0  0.00000000000E+00  0.00000000000E+00  0.34996269501E-01  0.35000000000E-01  0.51099999109E-03 0. -1.
       11   -1    0    0    0    0 -0.00000000000E+00 -0.00000000000E+00 -0.34996269501E-01  0.35000000000E-01  0.51099999109E-03 0.  1.
       22    1    1    2    0    0  0.96383005691E-03 -0.20762259293E-02  0.15110906651E-02  0.27428229047E-02  0.00000000000E+00 0.  1.
       22    1    1    2    0    0  0.45456185916E-02 -0.15321188036E-01 -0.29671002184E-01  0.33701184279E-01  0.00000000000E+00 0.  1.
       22    1    1    2    0    0 -0.55094486485E-02  0.17397413966E-01  0.28159911519E-01  0.33555992816E-01  0.00000000000E+00 0. -1.
</event>
<event>
 5   0  0.4143600E+04  0.9118800E+02  0.7546771E-02  0.1180000E+00
      -11   -1    0    0    0    0  0.00000000000E+00  0.00000000000E+00  0.34996269501E-01  0.35000000000E-01  0.51099999109E-03 0. -1.
       11   -1    0    0    0    0 -0.00000000000E+00 -0.00000000000E+00 -0.34996269501E-01  0.35000000000E-01  0.51099999109E-03 0.  1.
       22    1    1    2    0    0  0.12792963197E-04  0.25075287593E-03 -0.27864480462E-03  0.37507811431E-03  0.00000000000E+00 0.  1.
       22    1    1    2    0    0 -0.16244767094E-02 -0.30802400624E-02  0.34788207602E-01  0.34962067896E-01  0.00000000000E+00 0. -1.
       22    1    1    2    0    0  0.16116837462E-02  0.28294871864E-02 -0.34509562797E-01  0.34662853990E-01  0.00000000000E+00 0.  1.
</event>
<event>
 5   0  0.4143600E+04  0.9118800E+02  0.7546771E-02  0.1180000E+00
      -11   -1    0    0    0    0  0.00000000000E+00  0.00000000000E+00  0.34996269501E-01  0.35000000000E-01  0.51099999109E-03 0.  1.
       11   -1    0    0    0    0 -0.00000000000E+00 -0.00000000000E+00 -0.34996269501E-01  0.35000000000E-01  0.51099999109E-03 0. -1.
       22    1    1    2    0    0  0.12304268616E-03 -0.74456888188E-04  0.89209004014E-02  0.89220595886E-02  0.00000000000E+00 0.  1.
       22    1    1    2    0    0 -0.80669465960E-02  0.16404516996E-01 -0.28825914185E-01  0.34133812179E-01  0.00000000000E+00 0. -1.
       22    1    1    2    0    0  0.79439039098E-02 -0.16330060108E-01  0.19905013784E-01  0.26944128232E-01  0.00000000000E+00 0.  1.
</event>
<event>
 5   0  0.4143600E+04  0.9118800E+02  0.7546771E-02  0.1180000E+00
      -11   -1    0    0    0    0  0.00000000000E+00  0.00000000000E+00  0.34996269501E-01  0.35000000000E-01  0.51099999109E-03 0.  1.
       11   -1    0    0    0    0 -0.00000000000E+00 -0.00000000000E+00 -0.34996269501E-01  0.35000000000E-01  0.51099999109E-03 0. -1.
       22    1    1    2    0    0 -0.37946630753E-02 -0.91097151234E-02  0.79568087509E-02  0.12676639262E-01  0.00000000000E+00 0.  1.
       22    1    1    2    0    0 -0.18685412200E-01  0.84354324355E-02  0.14833264090E-01  0.25304680852E-01  0.00000000000E+00 0.  1.
       22    1    1    2    0    0  0.22480075275E-01  0.67428268794E-03 -0.22790072841E-01  0.32018679886E-01  0.00000000000E+00 0. -1.
</event>
<event>
 5   0  0.4143600E+04  0.9118800E+02  0.7546771E-02  0.1180000E+00
      -11   -1    0    0    0    0  0.00000000000E+00  0.00000000000E+00  0.34996269501E-01  0.35000000000E-01  0.51099999109E-03 0. -1.
       11   -1    0    0    0    0 -0.00000000000E+00 -0.00000000000E+00 -0.34996269501E-01  0.35000000000E-01  0.51099999109E-03 0.  1.
       22    1    1    2    0    0  0.14237990900E-01  0.17715834903E-01  0.24858536866E-01  0.33682607475E-01  0.00000000000E+00 0. -1.
       22    1    1    2    0    0 -0.39121303430E-02 -0.81000976333E-02 -0.19034291420E-01  0.21052804928E-01  0.00000000000E+00 0.  1.
       22    1    1    2    0    0 -0.10325860557E-01 -0.96157372695E-02 -0.58242454467E-02  0.15264587597E-01  0.00000000000E+00 0.  1.
</event>
<event>
 5   0  0.4143600E+04  0.9118800E+02  0.7546771E-02  0.1180000E+00
      -11   -1    0    0    0    0  0.00000000000E+00  0.00000000000E+00  0.34996269501E-01  0.35000000000E-01  0.51099999109E-03 0. -1.
       11   -1    0    0    0    0 -0.00000000000E+00 -0.00000000000E+00 -0.34996269501E-01  0.35000000000E-01  0.51099999109E-03 0.  1.
       22    1    1    2    0    0 -0.64728963507E-02 -0.12900850801E-01  0.29184878089E-01  0.32558984131E-01  0.00000000000E+00 0. -1.
       22    1    1    2    0    0  0.60490804482E-02  0.12945261084E-01 -0.31762426994E-01  0.34828478683E-01  0.00000000000E+00 0.  1.
       22    1    1    2    0    0  0.42381590248E-03 -0.44410283202E-04  0.25775489048E-02  0.26125371862E-02  0.00000000000E+00 0.  1.
</event>
<event>
 5   0  0.4143600E+04  0.9118800E+02  0.7546771E-02  0.1180000E+00
      -11   -1    0    0    0    0  0.00000000000E+00  0.00000000000E+00  0.34996269501E-01  0.35000000000E-01  0.51099999109E-03 0. -1.
       11   -1    0    0    0    0 -0.00000000000E+00 -0.00000000000E+00 -0.34996269501E-01  0.35000000000E-01  0.51099999109E-03 0.  1.
       22    1    1    2    0    0 -0.60292478850E-02 -0.45908494162E-02  0.31391477223E-01  0.32293227938E-01  0.00000000000E+00 0. -1.
       22    1    1    2    0    0  0.10184003629E-01  0.89007582810E-02 -0.27266414210E-01  0.30436733920E-01  0.00000000000E+00 0.  1.
       22    1    1    2    0    0 -0.41547557438E-02 -0.43099088648E-02 -0.41250630136E-02  0.72700381415E-02  0.00000000000E+00 0. -1.
</event>
<event>
 5   0  0.4143600E+04  0.9118800E+02  0.7546771E-02  0.1180000E+00
      -11   -1    0    0    0    0  0.00000000000E+00  0.00000000000E+00  0.34996269501E-01  0.35000000000E-01  0.51099999109E-03 0.  1.
       11   -1    0    0    0    0 -0.00000000000E+00 -0.00000000000E+00 -0.34996269501E-01  0.35000000000E-01  0.51099999109E-03 0. -1.
       22    1    1    2    0    0 -0.92758296124E-02 -0.80823207243E-02 -0.32746965476E-01  0.34981833445E-01  0.00000000000E+00 0. -1.
       22    1    1    2    0    0  0.67310718141E-05  0.43793840960E-05  0.60215527375E-03  0.60220881763E-03  0.00000000000E+00 0.  1.
       22    1    1    2    0    0  0.92690985406E-02  0.80779413402E-02  0.32144810202E-01  0.34415957737E-01  0.00000000000E+00 0.  1.
</event>
<event>
 5   0  0.4143600E+04  0.9118800E+02  0.7546771E-02  0.1180000E+00
      -11   -1    0    0    0    0  0.00000000000E+00  0.00000000000E+00  0.34996269501E-01  0.35000000000E-01  0.51099999109E-03 0. -1.
       11   -1    0    0    0    0 -0.00000000000E+00 -0.00000000000E+00 -0.34996269501E-01  0.35000000000E-01  0.51099999109E-03 0.  1.
       22    1    1    2    0    0 -0.42173217694E-02  0.86936995582E-03 -0.38781914754E-02  0.57949957849E-02  0.00000000000E+00 0. -1.
       22    1    1    2    0    0  0.33987518582E-02  0.21078505152E-01  0.25586215346E-01  0.33324305084E-01  0.00000000000E+00 0. -1.
       22    1    1    2    0    0  0.81856991114E-03 -0.21947875108E-01 -0.21708023870E-01  0.30880699131E-01  0.00000000000E+00 0.  1.
</event>
<event>
 5   0  0.4143600E+04  0.9118800E+02  0.7546771E-02  0.1180000E+00
      -11   -1    0    0    0    0  0.00000000000E+00  0.00000000000E+00  0.34996269501E-01  0.35000000000E-01  0.51099999109E-03 0. -1.
       11   -1    0    0    0    0 -0.00000000000E+00 -0.00000000000E+00 -0.34996269501E-01  0.35000000000E-01  0.51099999109E-03 0.  1.
       22    1    1    2    0    0 -0.17718347639E-01 -0.13924936299E-02  0.30132873660E-01  0.34983838506E-01  0.00000000000E+00 0. -1.
       22    1    1    2    0    0  0.17212134416E-01  0.13832857235E-02 -0.28673862044E-01  0.33471800296E-01  0.00000000000E+00 0.  1.
       22    1    1    2    0    0  0.50621322309E-03  0.92079063949E-05 -0.14590116166E-02  0.15443611981E-02  0.00000000000E+00 0.  1.
</event>
<event>
 5   0  0.4143600E+04  0.9118800E+02  0.7546771E-02  0.1180000E+00
      -11   -1    0    0    0    0  0.00000000000E+00  0.00000000000E+00  0.34996269501E-01  0.35000000000E-01  0.51099999109E-03 0.  1.
       11   -1    0    0    0    0 -0.00000000000E+00 -0.00000000000E+00 -0.34996269501E-01  0.35000000000E-01  0.51099999109E-03 0.  1.
       22    1    1    2    0    0 -0.19855981057E-04  0.36264872192E-03 -0.75470184450E-03  0.83754595670E-03  0.00000000000E+00 0. -1.
       22    1    1    2    0    0 -0.36065757929E-05 -0.21980273761E-03 -0.34203373015E-01  0.34204079462E-01  0.00000000000E+00 0.  1.
       22    1    1    2    0    0  0.23462556850E-04 -0.14284598431E-03  0.34958074860E-01  0.34958374581E-01  0.00000000000E+00 0.  1.
</event>
<event>
 5   0  0.4143600E+04  0.9118800E+02  0.7546771E-02  0.1180000E+00
      -11   -1    0    0    0    0  0.00000000000E+00  0.00000000000E+00  0.34996269501E-01  0.35000000000E-01  0.51099999109E-03 0. -1.
       11   -1    0    0    0    0 -0.00000000000E+00 -0.00000000000E+00 -0.34996269501E-01  0.35000000000E-01  0.51099999109E-03 0.  1.
       22    1    1    2    0    0 -0.38511601351E-02  0.46712338405E-02 -0.23132224338E-01  0.23911329173E-01  0.00000000000E+00 0.  1.
       22    1    1    2    0    0  0.35387260742E-02 -0.30547844042E-02 -0.10981551639E-01  0.11935190254E-01  0.00000000000E+00 0. -1.
       22    1    1    2    0    0  0.31243406086E-03 -0.16164494363E-02  0.34113775978E-01  0.34153480573E-01  0.00000000000E+00 0. -1.
</event>
<event>
 5   0  0.4143600E+04  0.9118800E+02  0.7546771E-02  0.1180000E+00
      -11   -1    0    0    0    0  0.00000000000E+00  0.00000000000E+00  0.34996269501E-01  0.35000000000E-01  0.51099999109E-03 0.  1.
       11   -1    0    0    0    0 -0.00000000000E+00 -0.00000000000E+00 -0.34996269501E-01  0.35000000000E-01  0.51099999109E-03 0. -1.
       22    1    1    2    0    0 -0.53473163607E-03  0.59047372389E-04  0.51650661169E-02  0.51930080403E-02  0.00000000000E+00 0. -1.
       22    1    1    2    0    0 -0.27002240835E-03 -0.12347414629E-01  0.27365591197E-01  0.30023443202E-01  0.00000000000E+00 0.  1.
       22    1    1    2    0    0  0.80475404442E-03  0.12288367257E-01 -0.32530657314E-01  0.34783548758E-01  0.00000000000E+00 0. -1.
</event>
<event>
 5   0  0.4143600E+04  0.9118800E+02  0.7546771E-02  0.1180000E+00
      -11   -1    0    0    0    0  0.00000000000E+00  0.00000000000E+00  0.34996269501E-01  0.35000000000E-01  0.51099999109E-03 0. -1.
       11   -1    0    0    0    0 -0.00000000000E+00 -0.00000000000E+00 -0.34996269501E-01  0.35000000000E-01  0.51099999109E-03 0.  1.
       22    1    1    2    0    0  0.16277699664E-01  0.31780237187E-02 -0.30134693879E-01  0.34397138199E-01  0.00000000000E+00 0.  1.
       22    1    1    2    0    0 -0.14905968920E-01 -0.57145647408E-02  0.24002211971E-01  0.28826209240E-01  0.00000000000E+00 0. -1.
       22    1    1    2    0    0 -0.13717307440E-02  0.25365410221E-02  0.61324819077E-02  0.67766525615E-02  0.00000000000E+00 0.  1.
</event>
<event>
 5   0  0.4143600E+04  0.9118800E+02  0.7546771E-02  0.1180000E+00
      -11   -1    0    0    0    0  0.00000000000E+00  0.00000000000E+00  0.34996269501E-01  0.35000000000E-01  0.51099999109E-03 0. -1.
       11   -1    0    0    0    0 -0.00000000000E+00 -0.00000000000E+00 -0.34996269501E-01  0.35000000000E-01  0.51099999109E-03 0.  1.
       22    1    1    2    0    0  0.13275513926E-04 -0.16286642345E-03 -0.72743466256E-02  0.72761817281E-02  0.00000000000E+00 0.  1.
       22    1    1    2    0    0  0.22153382659E-02 -0.95557837134E-02 -0.26104966088E-01  0.27887093439E-01  0.00000000000E+00 0.  1.
       22    1    1    2    0    0 -0.22286137798E-02  0.97186501369E-02  0.33379312714E-01  0.34836724833E-01  0.00000000000E+00 0. -1.
</event>
<event>
 5   0  0.4143600E+04  0.9118800E+02  0.7546771E-02  0.1180000E+00
      -11   -1    0    0    0    0  0.00000000000E+00  0.00000000000E+00  0.34996269501E-01  0.35000000000E-01  0.51099999109E-03 0. -1.
       11   -1    0    0    0    0 -0.00000000000E+00 -0.00000000000E+00 -0.34996269501E-01  0.35000000000E-01  0.51099999109E-03 0.  1.
       22    1    1    2    0    0  0.22309697376E-01 -0.91355140420E-03 -0.49640251297E-02  0.22873537519E-01  0.00000000000E+00 0. -1.
       22    1    1    2    0    0 -0.45007691872E-02 -0.11231880066E-01 -0.13937414428E-01  0.18457073820E-01  0.00000000000E+00 0.  1.
       22    1    1    2    0    0 -0.17808928188E-01  0.12145431470E-01  0.18901439557E-01  0.28669388660E-01  0.00000000000E+00 0.  1.
</event>
<event>
 5   0  0.4143600E+04  0.9118800E+02  0.7546771E-02  0.1180000E+00
      -11   -1    0    0    0    0  0.00000000000E+00  0.00000000000E+00  0.34996269501E-01  0.35000000000E-01  0.51099999109E-03 0. -1.
       11   -1    0    0    0    0 -0.00000000000E+00 -0.00000000000E+00 -0.34996269501E-01  0.35000000000E-01  0.51099999109E-03 0.  1.
       22    1    1    2    0    0 -0.37828651313E-02 -0.10471801193E-01 -0.15244085063E-01  0.18877256639E-01  0.00000000000E+00 0. -1.
       22    1    1    2    0    0  0.72588139454E-02  0.57262158600E-02 -0.16459297088E-01  0.18878251736E-01  0.00000000000E+00 0.  1.
       22    1    1    2    0    0 -0.34759488142E-02  0.47455853328E-02  0.31703382151E-01  0.32244491625E-01  0.00000000000E+00 0. -1.
</event>
<event>
 5   0  0.4143600E+04  0.9118800E+02  0.7546771E-02  0.1180000E+00
      -11   -1    0    0    0    0  0.00000000000E+00  0.00000000000E+00  0.34996269501E-01  0.35000000000E-01  0.51099999109E-03 0.  1.
       11   -1    0    0    0    0 -0.00000000000E+00 -0.00000000000E+00 -0.34996269501E-01  0.35000000000E-01  0.51099999109E-03 0. -1.
       22    1    1    2    0    0 -0.59195078910E-03  0.61100976300E-04 -0.34543027807E-02  0.35051885494E-02  0.00000000000E+00 0. -1.
       22    1    1    2    0    0  0.50986246003E-02  0.10934861621E-01 -0.29280964350E-01  0.31669260250E-01  0.00000000000E+00 0. -1.
       22    1    1    2    0    0 -0.45066738112E-02 -0.10995962598E-01  0.32735267131E-01  0.34825551201E-01  0.00000000000E+00 0.  1.
</event>
<event>
 5   0  0.4143600E+04  0.9118800E+02  0.7546771E-02  0.1180000E+00
      -11   -1    0    0    0    0  0.00000000000E+00  0.00000000000E+00  0.34996269501E-01  0.35000000000E-01  0.51099999109E-03 0. -1.
       11   -1    0    0    0    0 -0.00000000000E+00 -0.00000000000E+00 -0.34996269501E-01  0.35000000000E-01  0.51099999109E-03 0.  1.
       22    1    1    2    0    0  0.89776224172E-02 -0.10638002761E-01  0.19884702179E-01  0.24272745781E-01  0.00000000000E+00 0. -1.
       22    1    1    2    0    0  0.29748213273E-03  0.70229021439E-03  0.11500234043E-01  0.11525497395E-01  0.00000000000E+00 0. -1.
       22    1    1    2    0    0 -0.92751045499E-02  0.99357125469E-02 -0.31384936221E-01  0.34201756824E-01  0.00000000000E+00 0.  1.
</event>
<event>
 5   0  0.4143600E+04  0.9118800E+02  0.7546771E-02  0.1180000E+00
      -11   -1    0    0    0    0  0.00000000000E+00  0.00000000000E+00  0.34996269501E-01  0.35000000000E-01  0.51099999109E-03 0.  1.
       11   -1    0    0    0    0 -0.00000000000E+00 -0.00000000000E+00 -0.34996269501E-01  0.35000000000E-01  0.51099999109E-03 0. -1.
       22    1    1    2    0    0  0.18983307909E-03 -0.68698609559E-02  0.28717996345E-01  0.29528872992E-01  0.00000000000E+00 0.  1.
       22    1    1    2    0    0 -0.99288674377E-02 -0.23010548609E-02 -0.24352794892E-01  0.26399543199E-01  0.00000000000E+00 0. -1.
       22    1    1    2    0    0  0.97390343586E-02  0.91709158168E-02 -0.43652014528E-02  0.14071583809E-01  0.00000000000E+00 0.  1.
</event>
<event>
 5   0  0.4143600E+04  0.9118800E+02  0.7546771E-02  0.1180000E+00
      -11   -1    0    0    0    0  0.00000000000E+00  0.00000000000E+00  0.34996269501E-01  0.35000000000E-01  0.51099999109E-03 0.  1.
       11   -1    0    0    0    0 -0.00000000000E+00 -0.00000000000E+00 -0.34996269501E-01  0.35000000000E-01  0.51099999109E-03 0. -1.
       22    1    1    2    0    0  0.27118981352E-02 -0.11763905104E-01 -0.32538659374E-01  0.34706025538E-01  0.00000000000E+00 0. -1.
       22    1    1    2    0    0  0.26041074663E-04  0.73963407761E-04 -0.31007459185E-03  0.31983585754E-03  0.00000000000E+00 0. -1.
       22    1    1    2    0    0 -0.27379392098E-02  0.11689941696E-01  0.32848733966E-01  0.34974138605E-01  0.00000000000E+00 0.  1.
</event>
<event>
 5   0  0.4143600E+04  0.9118800E+02  0.7546771E-02  0.1180000E+00
      -11   -1    0    0    0    0  0.00000000000E+00  0.00000000000E+00  0.34996269501E-01  0.35000000000E-01  0.51099999109E-03 0.  1.
       11   -1    0    0    0    0 -0.00000000000E+00 -0.00000000000E+00 -0.34996269501E-01  0.35000000000E-01  0.51099999109E-03 0. -1.
       22    1    1    2    0    0 -0.12437774887E-01 -0.56902709647E-02 -0.24172088491E-01  0.27773499776E-01  0.00000000000E+00 0. -1.
       22    1    1    2    0    0 -0.19922367714E-02 -0.39492876888E-02  0.24473790491E-01  0.24870309640E-01  0.00000000000E+00 0.  1.
       22    1    1    2    0    0  0.14430011658E-01  0.96395586535E-02 -0.30170199980E-03  0.17356190584E-01  0.00000000000E+00 0.  1.
</event>
<event>
 5   0  0.4143600E+04  0.9118800E+02  0.7546771E-02  0.1180000E+00
      -11   -1    0    0    0    0  0.00000000000E+00  0.00000000000E+00  0.34996269501E-01  0.35000000000E-01  0.51099999109E-03 0. -1.
       11   -1    0    0    0    0 -0.00000000000E+00 -0.00000000000E+00 -0.34996269501E-01  0.35000000000E-01  0.51099999109E-03 0.  1.
       22    1    1    2    0    0 -0.67274683139E-02 -0.12054217019E-01  0.13194834574E-01  0.19096246681E-01  0.00000000000E+00 0. -1.
       22    1    1    2    0    0  0.76048136496E-03  0.22026841914E-02  0.17741007198E-01  0.17893392243E-01  0.00000000000E+00 0. -1.
       22    1    1    2    0    0  0.59669869490E-02  0.98515328275E-02 -0.30935841772E-01  0.33010361077E-01  0.00000000000E+00 0.  1.
</event>
<event>
 5   0  0.4143600E+04  0.9118800E+02  0.7546771E-02  0.1180000E+00
      -11   -1    0    0    0    0  0.00000000000E+00  0.00000000000E+00  0.34996269501E-01  0.35000000000E-01  0.51099999109E-03 0.  1.
       11   -1    0    0    0    0 -0.00000000000E+00 -0.00000000000E+00 -0.34996269501E-01  0.35000000000E-01  0.51099999109E-03 0. -1.
       22    1    1    2    0    0  0.14014406092E-01 -0.28191127365E-02 -0.30086024936E-01  0.33309456183E-01  0.00000000000E+00 0. -1.
       22    1    1    2    0    0  0.16803202652E-02  0.10613546727E-02  0.14026932692E-01  0.14167031823E-01  0.00000000000E+00 0.  1.
       22    1    1    2    0    0 -0.15694726357E-01  0.17577580638E-02  0.16059092245E-01  0.22523511994E-01  0.00000000000E+00 0.  1.
</event>
<event>
 5   0  0.4143600E+04  0.9118800E+02  0.7546771E-02  0.1180000E+00
      -11   -1    0    0    0    0  0.00000000000E+00  0.00000000000E+00  0.34996269501E-01  0.35000000000E-01  0.51099999109E-03 0.  1.
       11   -1    0    0    0    0 -0.00000000000E+00 -0.00000000000E+00 -0.34996269501E-01  0.35000000000E-01  0.51099999109E-03 0. -1.
       22    1    1    2    0    0  0.24544681983E-04 -0.24404957084E-03  0.14012935420E-02  0.14225984062E-02  0.00000000000E+00 0.  1.
       22    1    1    2    0    0 -0.16446283052E-01  0.52688792608E-02 -0.30349241593E-01  0.34918731079E-01  0.00000000000E+00 0. -1.
       22    1    1    2    0    0  0.16421738370E-01 -0.50248296899E-02  0.28947948051E-01  0.33658670515E-01  0.00000000000E+00 0.  1.
</event>
<event>
 5   0  0.4143600E+04  0.9118800E+02  0.7546771E-02  0.1180000E+00
      -11   -1    0    0    0    0  0.00000000000E+00  0.00000000000E+00  0.34996269501E-01  0.35000000000E-01  0.51099999109E-03 0.  1.
       11   -1    0    0    0    0 -0.00000000000E+00 -0.00000000000E+00 -0.34996269501E-01  0.35000000000E-01  0.51099999109E-03 0. -1.
       22    1    1    2    0    0 -0.15930516530E-03  0.56734934387E-02  0.33753899873E-01  0.34227761577E-01  0.00000000000E+00 0.  1.
       22    1    1    2    0    0  0.86406238195E-03 -0.86875242226E-03 -0.28831758697E-01  0.28857783077E-01  0.00000000000E+00 0. -1.
       22    1    1    2    0    0 -0.70475721666E-03 -0.48047410164E-02 -0.49221411760E-02  0.69144553456E-02  0.00000000000E+00 0. -1.
</event>
<event>
 5   0  0.4143600E+04  0.9118800E+02  0.7546771E-02  0.1180000E+00
      -11   -1    0    0    0    0  0.00000000000E+00  0.00000000000E+00  0.34996269501E-01  0.35000000000E-01  0.51099999109E-03 0.  1.
       11   -1    0    0    0    0 -0.00000000000E+00 -0.00000000000E+00 -0.34996269501E-01  0.35000000000E-01  0.51099999109E-03 0. -1.
       22    1    1    2    0    0 -0.33665391872E-04  0.60679912888E-04  0.20470501443E-02  0.20482259894E-02  0.00000000000E+00 0. -1.
       22    1    1    2    0    0  0.13770051955E-01  0.14671117092E-01 -0.28385858626E-01  0.34793864079E-01  0.00000000000E+00 0. -1.
       22    1    1    2    0    0 -0.13736386564E-01 -0.14731797005E-01  0.26338808482E-01  0.33157909932E-01  0.00000000000E+00 0.  1.
</event>
<event>
 5   0  0.4143600E+04  0.9118800E+02  0.7546771E-02  0.1180000E+00
      -11   -1    0    0    0    0  0.00000000000E+00  0.00000000000E+00  0.34996269501E-01  0.35000000000E-01  0.51099999109E-03 0.  1.
       11   -1    0    0    0    0 -0.00000000000E+00 -0.00000000000E+00 -0.34996269501E-01  0.35000000000E-01  0.51099999109E-03 0. -1.
       22    1    1    2    0    0 -0.29369480739E-02  0.81537596474E-02 -0.10250425344E-01  0.13423139726E-01  0.00000000000E+00 0. -1.
       22    1    1    2    0    0 -0.49295276939E-02 -0.29437514576E-02 -0.22123288930E-01  0.22856198919E-01  0.00000000000E+00 0.  1.
       22    1    1    2    0    0  0.78664757678E-02 -0.52100081898E-02  0.32373714274E-01  0.33720661355E-01  0.00000000000E+00 0.  1.
</event>
<event>
 5   0  0.4143600E+04  0.9118800E+02  0.7546771E-02  0.1180000E+00
      -11   -1    0    0    0    0  0.00000000000E+00  0.00000000000E+00  0.34996269501E-01  0.35000000000E-01  0.51099999109E-03 0.  1.
       11   -1    0    0    0    0 -0.00000000000E+00 -0.00000000000E+00 -0.34996269501E-01  0.35000000000E-01  0.51099999109E-03 0.  1.
       22    1    1    2    0    0  0.18735141971E-02 -0.12368068988E-02  0.34685566547E-01  0.34758139672E-01  0.00000000000E+00 0.  1.
       22    1    1    2    0    0 -0.19670139335E-02  0.11113737463E-02 -0.43131495219E-02  0.48690403795E-02  0.00000000000E+00 0. -1.
       22    1    1    2    0    0  0.93499736403E-04  0.12543315252E-03 -0.30372417025E-01  0.30372819949E-01  0.00000000000E+00 0.  1.
</event>
<event>
 5   0  0.4143600E+04  0.9118800E+02  0.7546771E-02  0.1180000E+00
      -11   -1    0    0    0    0  0.00000000000E+00  0.00000000000E+00  0.34996269501E-01  0.35000000000E-01  0.51099999109E-03 0.  1.
       11   -1    0    0    0    0 -0.00000000000E+00 -0.00000000000E+00 -0.34996269501E-01  0.35000000000E-01  0.51099999109E-03 0. -1.
       22    1    1    2    0    0 -0.60891279824E-02  0.38581955326E-03  0.13151536952E-02  0.62414714256E-02  0.00000000000E+00 0.  1.
       22    1    1    2    0    0  0.59535930275E-02 -0.13294050434E-01  0.28091367764E-01  0.31643356171E-01  0.00000000000E+00 0.  1.
       22    1    1    2    0    0  0.13553495491E-03  0.12908230881E-01 -0.29406521459E-01  0.32115172404E-01  0.00000000000E+00 0. -1.
</event>
<event>
 5   0  0.4143600E+04  0.9118800E+02  0.7546771E-02  0.1180000E+00
      -11   -1    0    0    0    0  0.00000000000E+00  0.00000000000E+00  0.34996269501E-01  0.35000000000E-01  0.51099999109E-03 0.  1.
       11   -1    0    0    0    0 -0.00000000000E+00 -0.00000000000E+00 -0.34996269501E-01  0.35000000000E-01  0.51099999109E-03 0.  1.
       22    1    1    2    0    0 -0.63448655235E-03  0.13439299187E-03 -0.34375228730E-01  0.34381346468E-01  0.00000000000E+00 0.  1.
       22    1    1    2    0    0  0.39110018547E-03  0.92200164841E-05 -0.55954281899E-03  0.68273899117E-03  0.00000000000E+00 0. -1.
       22    1    1    2    0    0  0.24338636687E-03 -0.14361300835E-03  0.34934771549E-01  0.34935914541E-01  0.00000000000E+00 0.  1.
</event>
<event>
 5   0  0.4143600E+04  0.9118800E+02  0.7546771E-02  0.1180000E+00
      -11   -1    0    0    0    0  0.00000000000E+00  0.00000000000E+00  0.34996269501E-01  0.35000000000E-01  0.51099999109E-03 0.  1.
       11   -1    0    0    0    0 -0.00000000000E+00 -0.00000000000E+00 -0.34996269501E-01  0.35000000000E-01  0.51099999109E-03 0. -1.
       22    1    1    2    0    0  0.33949750492E-02 -0.51691119834E-02 -0.31356761102E-01  0.31960789119E-01  0.00000000000E+00 0. -1.
       22    1    1    2    0    0 -0.27773071075E-02  0.36645143458E-02  0.34337294854E-01  0.34643786139E-01  0.00000000000E+00 0.  1.
       22    1    1    2    0    0 -0.61766794166E-03  0.15045976376E-02 -0.29805337516E-02  0.33954247424E-02  0.00000000000E+00 0.  1.
</event>
<event>
 5   0  0.4143600E+04  0.9118800E+02  0.7546771E-02  0.1180000E+00
      -11   -1    0    0    0    0  0.00000000000E+00  0.00000000000E+00  0.34996269501E-01  0.35000000000E-01  0.51099999109E-03 0.  1.
       11   -1    0    0    0    0 -0.00000000000E+00 -0.00000000000E+00 -0.34996269501E-01  0.35000000000E-01  0.51099999109E-03 0. -1.
       22    1    1    2    0    0  0.15364243389E-02 -0.24724952787E-02  0.21804292344E-01  0.21997749823E-01  0.00000000000E+00 0.  1.
       22    1    1    2    0    0 -0.19912871679E-01  0.23599853710E-02 -0.21807699979E-01  0.29625458103E-01  0.00000000000E+00 0. -1.
       22    1    1    2    0    0  0.18376447340E-01  0.11250990772E-03  0.34076354957E-05  0.18376792074E-01  0.00000000000E+00 0.  1.
</event>
<event>
 5   0  0.4143600E+04  0.9118800E+02  0.7546771E-02  0.1180000E+00
      -11   -1    0    0    0    0  0.00000000000E+00  0.00000000000E+00  0.34996269501E-01  0.35000000000E-01  0.51099999109E-03 0.  1.
       11   -1    0    0    0    0 -0.00000000000E+00 -0.00000000000E+00 -0.34996269501E-01  0.35000000000E-01  0.51099999109E-03 0. -1.
       22    1    1    2    0    0 -0.11139768378E-02 -0.11884432588E-01  0.31554786793E-01  0.33737001229E-01  0.00000000000E+00 0.  1.
       22    1    1    2    0    0  0.11087559352E-02  0.11894454662E-01 -0.32856729111E-01  0.34961007413E-01  0.00000000000E+00 0. -1.
       22    1    1    2    0    0  0.52209025409E-05 -0.10022074079E-04  0.13019423176E-02  0.13019913587E-02  0.00000000000E+00 0.  1.
</event>
<event>
 5   0  0.4143600E+04  0.9118800E+02  0.7546771E-02  0.1180000E+00
      -11   -1    0    0    0    0  0.00000000000E+00  0.00000000000E+00  0.34996269501E-01  0.35000000000E-01  0.51099999109E-03 0. -1.
       11   -1    0    0    0    0 -0.00000000000E+00 -0.00000000000E+00 -0.34996269501E-01  0.35000000000E-01  0.51099999109E-03 0.  1.
       22    1    1    2    0    0 -0.21096678521E-02 -0.71146845066E-03 -0.54666439933E-02  0.59026335099E-02  0.00000000000E+00 0.  1.
       22    1    1    2    0    0 -0.67451626848E-03  0.36709256551E-02 -0.29077000113E-01  0.29315569292E-01  0.00000000000E+00 0.  1.
       22    1    1    2    0    0  0.27841841206E-02 -0.29594572044E-02  0.34543644106E-01  0.34781797198E-01  0.00000000000E+00 0. -1.
</event>
<event>
 5   0  0.4143600E+04  0.9118800E+02  0.7546771E-02  0.1180000E+00
      -11   -1    0    0    0    0  0.00000000000E+00  0.00000000000E+00  0.34996269501E-01  0.35000000000E-01  0.51099999109E-03 0.  1.
       11   -1    0    0    0    0 -0.00000000000E+00 -0.00000000000E+00 -0.34996269501E-01  0.35000000000E-01  0.51099999109E-03 0. -1.
       22    1    1    2    0    0  0.94392770138E-02 -0.47512144183E-02 -0.26785329968E-01  0.28794580922E-01  0.00000000000E+00 0. -1.
       22    1    1    2    0    0 -0.96958750794E-02  0.63445422425E-02  0.32900270552E-01  0.34881098208E-01  0.00000000000E+00 0.  1.
       22    1    1    2    0    0  0.25659806561E-03 -0.15933278242E-02 -0.61149405835E-02  0.63243208696E-02  0.00000000000E+00 0. -1.
</event>
<event>
 5   0  0.4143600E+04  0.9118800E+02  0.7546771E-02  0.1180000E+00
      -11   -1    0    0    0    0  0.00000000000E+00  0.00000000000E+00  0.34996269501E-01  0.35000000000E-01  0.51099999109E-03 0.  1.
       11   -1    0    0    0    0 -0.00000000000E+00 -0.00000000000E+00 -0.34996269501E-01  0.35000000000E-01  0.51099999109E-03 0. -1.
       22    1    1    2    0    0 -0.39876854296E-02 -0.15944849841E-01 -0.29881206995E-01  0.34103172917E-01  0.00000000000E+00 0. -1.
       22    1    1    2    0    0 -0.11042204631E-03 -0.66195330408E-04 -0.92679321353E-03  0.93569253001E-03  0.00000000000E+00 0.  1.
       22    1    1    2    0    0  0.40981074760E-02  0.16011045172E-01  0.30808000208E-01  0.34961134553E-01  0.00000000000E+00 0.  1.
</event>
<event>
 5   0  0.4143600E+04  0.9118800E+02  0.7546771E-02  0.1180000E+00
      -11   -1    0    0    0    0  0.00000000000E+00  0.00000000000E+00  0.34996269501E-01  0.35000000000E-01  0.51099999109E-03 0.  1.
       11   -1    0    0    0    0 -0.00000000000E+00 -0.00000000000E+00 -0.34996269501E-01  0.35000000000E-01  0.51099999109E-03 0. -1.
       22    1    1    2    0    0 -0.24030097322E-02  0.36633055115E-02 -0.31080308807E-01  0.31387574907E-01  0.00000000000E+00 0. -1.
       22    1    1    2    0    0 -0.12793509877E-03 -0.18850240338E-02 -0.34555406292E-02  0.39383301077E-02  0.00000000000E+00 0.  1.
       22    1    1    2    0    0  0.25309448310E-02 -0.17782814776E-02  0.34535849436E-01  0.34674094985E-01  0.00000000000E+00 0.  1.
</event>
<event>
 5   0  0.4143600E+04  0.9118800E+02  0.7546771E-02  0.1180000E+00
      -11   -1    0    0    0    0  0.00000000000E+00  0.00000000000E+00  0.34996269501E-01  0.35000000000E-01  0.51099999109E-03 0. -1.
       11   -1    0    0    0    0 -0.00000000000E+00 -0.00000000000E+00 -0.34996269501E-01  0.35000000000E-01  0.51099999109E-03 0.  1.
       22    1    1    2    0    0  0.74664602493E-02 -0.22025796581E-01  0.17771125263E-01  0.29269380533E-01  0.00000000000E+00 0. -1.
       22    1    1    2    0    0 -0.32479959925E-03 -0.40134396080E-03  0.67335340699E-02  0.67532994029E-02  0.00000000000E+00 0.  1.
       22    1    1    2    0    0 -0.71416606500E-02  0.22427140542E-01 -0.24504659333E-01  0.33977320064E-01  0.00000000000E+00 0.  1.
</event>
<event>
 5   0  0.4143600E+04  0.9118800E+02  0.7546771E-02  0.1180000E+00
      -11   -1    0    0    0    0  0.00000000000E+00  0.00000000000E+00  0.34996269501E-01  0.35000000000E-01  0.51099999109E-03 0. -1.
       11   -1    0    0    0    0 -0.00000000000E+00 -0.00000000000E+00 -0.34996269501E-01  0.35000000000E-01  0.51099999109E-03 0.  1.
       22    1    1    2    0    0  0.15845763530E-01  0.61026017365E-02  0.28797207664E-01  0.33430661660E-01  0.00000000000E+00 0. -1.
       22    1    1    2    0    0  0.55205713160E-04 -0.22711217976E-04  0.16687201295E-02  0.16697875137E-02  0.00000000000E+00 0. -1.
       22    1    1    2    0    0 -0.15900969243E-01 -0.60798905185E-02 -0.30465927793E-01  0.34899550826E-01  0.00000000000E+00 0.  1.
</event>
<event>
 5   0  0.4143600E+04  0.9118800E+02  0.7546771E-02  0.1180000E+00
      -11   -1    0    0    0    0  0.00000000000E+00  0.00000000000E+00  0.34996269501E-01  0.35000000000E-01  0.51099999109E-03 0.  1.
       11   -1    0    0    0    0 -0.00000000000E+00 -0.00000000000E+00 -0.34996269501E-01  0.35000000000E-01  0.51099999109E-03 0. -1.
       22    1    1    2    0    0  0.62494405939E-05  0.49009764857E-04 -0.37434303813E-03  0.37758935731E-03  0.00000000000E+00 0. -1.
       22    1    1    2    0    0 -0.87416011517E-02  0.81952898167E-02 -0.32491430535E-01  0.34630498467E-01  0.00000000000E+00 0. -1.
       22    1    1    2    0    0  0.87353517112E-02 -0.82442995816E-02  0.32865773573E-01  0.34991912175E-01  0.00000000000E+00 0.  1.
</event>
<event>
 5   0  0.4143600E+04  0.9118800E+02  0.7546771E-02  0.1180000E+00
      -11   -1    0    0    0    0  0.00000000000E+00  0.00000000000E+00  0.34996269501E-01  0.35000000000E-01  0.51099999109E-03 0. -1.
       11   -1    0    0    0    0 -0.00000000000E+00 -0.00000000000E+00 -0.34996269501E-01  0.35000000000E-01  0.51099999109E-03 0.  1.
       22    1    1    2    0    0 -0.26162810501E-02  0.11053493976E-01  0.32804727495E-01  0.34715627629E-01  0.00000000000E+00 0. -1.
       22    1    1    2    0    0  0.27104144828E-02 -0.10162673559E-01 -0.21405306351E-01  0.23849809654E-01  0.00000000000E+00 0.  1.
       22    1    1    2    0    0 -0.94133432774E-04 -0.89082041728E-03 -0.11399421144E-01  0.11434562717E-01  0.00000000000E+00 0. -1.
</event>
<event>
 5   0  0.4143600E+04  0.9118800E+02  0.7546771E-02  0.1180000E+00
      -11   -1    0    0    0    0  0.00000000000E+00  0.00000000000E+00  0.34996269501E-01  0.35000000000E-01  0.51099999109E-03 0.  1.
       11   -1    0    0    0    0 -0.00000000000E+00 -0.00000000000E+00 -0.34996269501E-01  0.35000000000E-01  0.51099999109E-03 0. -1.
       22    1    1    2    0    0 -0.61960872433E-04  0.37597840388E-04 -0.39220954075E-03  0.39884968493E-03  0.00000000000E+00 0.  1.
       22    1    1    2    0    0 -0.52244546974E-02 -0.11396059610E-01 -0.32269439065E-01  0.34619095873E-01  0.00000000000E+00 0. -1.
       22    1    1    2    0    0  0.52864155698E-02  0.11358461770E-01  0.32661648605E-01  0.34982054442E-01  0.00000000000E+00 0.  1.
</event>
<event>
 5   0  0.4143600E+04  0.9118800E+02  0.7546771E-02  0.1180000E+00
      -11   -1    0    0    0    0  0.00000000000E+00  0.00000000000E+00  0.34996269501E-01  0.35000000000E-01  0.51099999109E-03 0.  1.
       11   -1    0    0    0    0 -0.00000000000E+00 -0.00000000000E+00 -0.34996269501E-01  0.35000000000E-01  0.51099999109E-03 0. -1.
       22    1    1    2    0    0 -0.12144909652E-01 -0.15595397227E-01  0.28008105817E-01  0.34280741482E-01  0.00000000000E+00 0.  1.
       22    1    1    2    0    0  0.58476090646E-04 -0.15366412402E-05  0.79962500908E-03  0.80176179105E-03  0.00000000000E+00 0.  1.
       22    1    1    2    0    0  0.12086433561E-01  0.15596933868E-01 -0.28807730826E-01  0.34917496727E-01  0.00000000000E+00 0. -1.
</event>
<event>
 5   0  0.4143600E+04  0.9118800E+02  0.7546771E-02  0.1180000E+00
      -11   -1    0    0    0    0  0.00000000000E+00  0.00000000000E+00  0.34996269501E-01  0.35000000000E-01  0.51099999109E-03 0. -1.
       11   -1    0    0    0    0 -0.00000000000E+00 -0.00000000000E+00 -0.34996269501E-01  0.35000000000E-01  0.51099999109E-03 0.  1.
       22    1    1    2    0    0 -0.66889056782E-04 -0.16611350247E-04 -0.57823604181E-03  0.58232894735E-03  0.00000000000E+00 0. -1.
       22    1    1    2    0    0  0.45972442831E-03 -0.23083410486E-01 -0.25619533559E-01  0.34487906373E-01  0.00000000000E+00 0.  1.
       22    1    1    2    0    0 -0.39283537153E-03  0.23100021836E-01  0.26197769601E-01  0.34929764679E-01  0.00000000000E+00 0. -1.
</event>
<event>
 5   0  0.4143600E+04  0.9118800E+02  0.7546771E-02  0.1180000E+00
      -11   -1    0    0    0    0  0.00000000000E+00  0.00000000000E+00  0.34996269501E-01  0.35000000000E-01  0.51099999109E-03 0. -1.
       11   -1    0    0    0    0 -0.00000000000E+00 -0.00000000000E+00 -0.34996269501E-01  0.35000000000E-01  0.51099999109E-03 0.  1.
       22    1    1    2    0    0  0.11184019441E-03 -0.82537885704E-04 -0.33589400963E-03  0.36351824901E-03  0.00000000000E+00 0. -1.
       22    1    1    2    0    0  0.56338184286E-02  0.10453149791E-01  0.32902064165E-01  0.34979337857E-01  0.00000000000E+00 0. -1.
       22    1    1    2    0    0 -0.57456586230E-02 -0.10370611905E-01 -0.32566170155E-01  0.34657143894E-01  0.00000000000E+00 0.  1.
</event>
<event>
 5   0  0.4143600E+04  0.9118800E+02  0.7546771E-02  0.1180000E+00
      -11   -1    0    0    0    0  0.00000000000E+00  0.00000000000E+00  0.34996269501E-01  0.35000000000E-01  0.51099999109E-03 0.  1.
       11   -1    0    0    0    0 -0.00000000000E+00 -0.00000000000E+00 -0.34996269501E-01  0.35000000000E-01  0.51099999109E-03 0. -1.
       22    1    1    2    0    0  0.14723063198E-01  0.14940019802E-01  0.26147599558E-01  0.33521183515E-01  0.00000000000E+00 0.  1.
       22    1    1    2    0    0 -0.14802527027E-01 -0.14658719588E-01 -0.27834311265E-01  0.34766963485E-01  0.00000000000E+00 0. -1.
       22    1    1    2    0    0  0.79463829330E-04 -0.28130021414E-03  0.16867117069E-02  0.17118529998E-02  0.00000000000E+00 0. -1.
</event>
<event>
 5   0  0.4143600E+04  0.9118800E+02  0.7546771E-02  0.1180000E+00
      -11   -1    0    0    0    0  0.00000000000E+00  0.00000000000E+00  0.34996269501E-01  0.35000000000E-01  0.51099999109E-03 0. -1.
       11   -1    0    0    0    0 -0.00000000000E+00 -0.00000000000E+00 -0.34996269501E-01  0.35000000000E-01  0.51099999109E-03 0.  1.
       22    1    1    2    0    0 -0.50190175004E-04 -0.27083518425E-05  0.26539793276E-02  0.26544552473E-02  0.00000000000E+00 0. -1.
       22    1    1    2    0    0 -0.57028572466E-02  0.12727662324E-01 -0.31966418301E-01  0.34876465819E-01  0.00000000000E+00 0.  1.
       22    1    1    2    0    0  0.57530474216E-02 -0.12724953973E-01  0.29312438973E-01  0.32469078934E-01  0.00000000000E+00 0. -1.
</event>
<event>
 5   0  0.4143600E+04  0.9118800E+02  0.7546771E-02  0.1180000E+00
      -11   -1    0    0    0    0  0.00000000000E+00  0.00000000000E+00  0.34996269501E-01  0.35000000000E-01  0.51099999109E-03 0.  1.
       11   -1    0    0    0    0 -0.00000000000E+00 -0.00000000000E+00 -0.34996269501E-01  0.35000000000E-01  0.51099999109E-03 0. -1.
       22    1    1    2    0    0  0.94740289267E-02  0.85799699093E-02  0.31531743478E-01  0.34023873303E-01  0.00000000000E+00 0.  1.
       22    1    1    2    0    0 -0.87402614803E-02 -0.82711537571E-02 -0.32538676232E-01  0.34692500719E-01  0.00000000000E+00 0. -1.
       22    1    1    2    0    0 -0.73376744637E-03 -0.30881615215E-03  0.10069327540E-02  0.12836259783E-02  0.00000000000E+00 0. -1.
</event>
<event>
 5   0  0.4143600E+04  0.9118800E+02  0.7546771E-02  0.1180000E+00
      -11   -1    0    0    0    0  0.00000000000E+00  0.00000000000E+00  0.34996269501E-01  0.35000000000E-01  0.51099999109E-03 0. -1.
       11   -1    0    0    0    0 -0.00000000000E+00 -0.00000000000E+00 -0.34996269501E-01  0.35000000000E-01  0.51099999109E-03 0.  1.
       22    1    1    2    0    0  0.99390376798E-02  0.94427710236E-02  0.32167892045E-01  0.34967465925E-01  0.00000000000E+00 0. -1.
       22    1    1    2    0    0 -0.10013142496E-01 -0.94198135386E-02 -0.31621325804E-01  0.34480489489E-01  0.00000000000E+00 0.  1.
       22    1    1    2    0    0  0.74104816495E-04 -0.22957484979E-04 -0.54656624072E-03  0.55204458646E-03  0.00000000000E+00 0. -1.
</event>
<event>
 5   0  0.4143600E+04  0.9118800E+02  0.7546771E-02  0.1180000E+00
      -11   -1    0    0    0    0  0.00000000000E+00  0.00000000000E+00  0.34996269501E-01  0.35000000000E-01  0.51099999109E-03 0.  1.
       11   -1    0    0    0    0 -0.00000000000E+00 -0.00000000000E+00 -0.34996269501E-01  0.35000000000E-01  0.51099999109E-03 0.  1.
       22    1    1    2    0    0  0.27181956346E-03 -0.46715990951E-03 -0.97567705500E-03  0.11153788467E-02  0.00000000000E+00 0. -1.
       22    1    1    2    0    0 -0.00000000000E+00 -0.00000000000E+00  0.34928392089E-01  0.34927604464E-01  0.00000000000E+00 0.  1.
       22    1    1    2    0    0 -0.27181956346E-03  0.46715990951E-03 -0.33952715034E-01  0.33957016689E-01  0.00000000000E+00 0.  1.
</event>
<event>
 5   0  0.4143600E+04  0.9118800E+02  0.7546771E-02  0.1180000E+00
      -11   -1    0    0    0    0  0.00000000000E+00  0.00000000000E+00  0.34996269501E-01  0.35000000000E-01  0.51099999109E-03 0.  1.
       11   -1    0    0    0    0 -0.00000000000E+00 -0.00000000000E+00 -0.34996269501E-01  0.35000000000E-01  0.51099999109E-03 0. -1.
       22    1    1    2    0    0 -0.21295762953E-02  0.66778133330E-02 -0.33172319467E-01  0.33904735140E-01  0.00000000000E+00 0. -1.
       22    1    1    2    0    0  0.19055288854E-02 -0.63541892991E-02  0.34281951787E-01  0.34917889116E-01  0.00000000000E+00 0.  1.
       22    1    1    2    0    0  0.22404740996E-03 -0.32362403395E-03 -0.11096323203E-02  0.11773757444E-02  0.00000000000E+00 0. -1.
</event>
<event>
 5   0  0.4143600E+04  0.9118800E+02  0.7546771E-02  0.1180000E+00
      -11   -1    0    0    0    0  0.00000000000E+00  0.00000000000E+00  0.34996269501E-01  0.35000000000E-01  0.51099999109E-03 0. -1.
       11   -1    0    0    0    0 -0.00000000000E+00 -0.00000000000E+00 -0.34996269501E-01  0.35000000000E-01  0.51099999109E-03 0.  1.
       22    1    1    2    0    0 -0.16600583005E-01  0.13350555454E-01 -0.27659919472E-01  0.34912574128E-01  0.00000000000E+00 0.  1.
       22    1    1    2    0    0  0.16485253407E-01 -0.13378354731E-01  0.26661358347E-01  0.34081842440E-01  0.00000000000E+00 0. -1.
       22    1    1    2    0    0  0.11532959819E-03  0.27799277287E-04  0.99856112549E-03  0.10055834313E-02  0.00000000000E+00 0. -1.
</event>
<event>
 5   0  0.4143600E+04  0.9118800E+02  0.7546771E-02  0.1180000E+00
      -11   -1    0    0    0    0  0.00000000000E+00  0.00000000000E+00  0.34996269501E-01  0.35000000000E-01  0.51099999109E-03 0.  1.
       11   -1    0    0    0    0 -0.00000000000E+00 -0.00000000000E+00 -0.34996269501E-01  0.35000000000E-01  0.51099999109E-03 0. -1.
       22    1    1    2    0    0  0.10938477098E-01  0.14884774168E-01 -0.28725198535E-01  0.34151776149E-01  0.00000000000E+00 0. -1.
       22    1    1    2    0    0  0.11185528961E-03  0.18697162509E-03 -0.84206531599E-03  0.86979537295E-03  0.00000000000E+00 0.  1.
       22    1    1    2    0    0 -0.11050332388E-01 -0.15071745793E-01  0.29567263851E-01  0.34978428478E-01  0.00000000000E+00 0.  1.
</event>
<event>
 5   0  0.4143600E+04  0.9118800E+02  0.7546771E-02  0.1180000E+00
      -11   -1    0    0    0    0  0.00000000000E+00  0.00000000000E+00  0.34996269501E-01  0.35000000000E-01  0.51099999109E-03 0. -1.
       11   -1    0    0    0    0 -0.00000000000E+00 -0.00000000000E+00 -0.34996269501E-01  0.35000000000E-01  0.51099999109E-03 0.  1.
       22    1    1    2    0    0  0.95565616350E-02  0.90048285393E-02  0.17922600623E-01  0.22217885147E-01  0.00000000000E+00 0. -1.
       22    1    1    2    0    0  0.10188393924E-01 -0.79568696758E-02 -0.23860168275E-01  0.27137110677E-01  0.00000000000E+00 0.  1.
       22    1    1    2    0    0 -0.19744955559E-01 -0.10479588635E-02  0.59375676517E-02  0.20645004176E-01  0.00000000000E+00 0.  1.
</event>
<event>
 5   0  0.4143600E+04  0.9118800E+02  0.7546771E-02  0.1180000E+00
      -11   -1    0    0    0    0  0.00000000000E+00  0.00000000000E+00  0.34996269501E-01  0.35000000000E-01  0.51099999109E-03 0.  1.
       11   -1    0    0    0    0 -0.00000000000E+00 -0.00000000000E+00 -0.34996269501E-01  0.35000000000E-01  0.51099999109E-03 0. -1.
       22    1    1    2    0    0  0.30661340355E-02 -0.31233112893E-03 -0.34114581229E-01  0.34253516332E-01  0.00000000000E+00 0. -1.
       22    1    1    2    0    0 -0.34263001257E-02  0.51119422226E-03  0.34786524409E-01  0.34958591684E-01  0.00000000000E+00 0.  1.
       22    1    1    2    0    0  0.36016609016E-03 -0.19886309334E-03 -0.67194317934E-03  0.78789198413E-03  0.00000000000E+00 0. -1.
</event>
<event>
 5   0  0.4143600E+04  0.9118800E+02  0.7546771E-02  0.1180000E+00
      -11   -1    0    0    0    0  0.00000000000E+00  0.00000000000E+00  0.34996269501E-01  0.35000000000E-01  0.51099999109E-03 0.  1.
       11   -1    0    0    0    0 -0.00000000000E+00 -0.00000000000E+00 -0.34996269501E-01  0.35000000000E-01  0.51099999109E-03 0. -1.
       22    1    1    2    0    0 -0.10354257226E-02 -0.35978358280E-03 -0.34186375755E-01  0.34203944772E-01  0.00000000000E+00 0. -1.
       22    1    1    2    0    0  0.12553153230E-02  0.65986962452E-03  0.34933054466E-01  0.34961829740E-01  0.00000000000E+00 0.  1.
       22    1    1    2    0    0 -0.21988960041E-03 -0.30008604172E-03 -0.74667871022E-03  0.83422548816E-03  0.00000000000E+00 0.  1.
</event>
<event>
 5   0  0.4143600E+04  0.9118800E+02  0.7546771E-02  0.1180000E+00
      -11   -1    0    0    0    0  0.00000000000E+00  0.00000000000E+00  0.34996269501E-01  0.35000000000E-01  0.51099999109E-03 0. -1.
       11   -1    0    0    0    0 -0.00000000000E+00 -0.00000000000E+00 -0.34996269501E-01  0.35000000000E-01  0.51099999109E-03 0.  1.
       22    1    1    2    0    0  0.10777435468E-03 -0.28904569999E-03  0.72753817393E-02  0.72819188529E-02  0.00000000000E+00 0.  1.
       22    1    1    2    0    0 -0.18886494743E-01 -0.29360785615E-02 -0.28423720378E-01  0.34252417742E-01  0.00000000000E+00 0.  1.
       22    1    1    2    0    0  0.18778720388E-01  0.32251242615E-02  0.21148338639E-01  0.28465663406E-01  0.00000000000E+00 0. -1.
</event>
<event>
 5   0  0.4143600E+04  0.9118800E+02  0.7546771E-02  0.1180000E+00
      -11   -1    0    0    0    0  0.00000000000E+00  0.00000000000E+00  0.34996269501E-01  0.35000000000E-01  0.51099999109E-03 0.  1.
       11   -1    0    0    0    0 -0.00000000000E+00 -0.00000000000E+00 -0.34996269501E-01  0.35000000000E-01  0.51099999109E-03 0.  1.
       22    1    1    2    0    0  0.55125658493E-03  0.16016464027E-03  0.34865600204E-01  0.34870325696E-01  0.00000000000E+00 0.  1.
       22    1    1    2    0    0 -0.13371973881E-02  0.19169586008E-03 -0.33418187070E-01  0.33445479085E-01  0.00000000000E+00 0.  1.
       22    1    1    2    0    0  0.78594080319E-03 -0.35186050036E-03 -0.14474131336E-02  0.16841952194E-02  0.00000000000E+00 0.  1.
</event>
<event>
 5   0  0.4143600E+04  0.9118800E+02  0.7546771E-02  0.1180000E+00
      -11   -1    0    0    0    0  0.00000000000E+00  0.00000000000E+00  0.34996269501E-01  0.35000000000E-01  0.51099999109E-03 0. -1.
       11   -1    0    0    0    0 -0.00000000000E+00 -0.00000000000E+00 -0.34996269501E-01  0.35000000000E-01  0.51099999109E-03 0.  1.
       22    1    1    2    0    0 -0.54906120072E-02 -0.33031260035E-02  0.36112499068E-02  0.73551741990E-02  0.00000000000E+00 0. -1.
       22    1    1    2    0    0  0.12601251151E-01  0.19629461322E-02 -0.31420268679E-01  0.33909850663E-01  0.00000000000E+00 0.  1.
       22    1    1    2    0    0 -0.71106391439E-02  0.13401798714E-02  0.27809018772E-01  0.28734975138E-01  0.00000000000E+00 0. -1.
</event>
<event>
 5   0  0.4143600E+04  0.9118800E+02  0.7546771E-02  0.1180000E+00
      -11   -1    0    0    0    0  0.00000000000E+00  0.00000000000E+00  0.34996269501E-01  0.35000000000E-01  0.51099999109E-03 0.  1.
       11   -1    0    0    0    0 -0.00000000000E+00 -0.00000000000E+00 -0.34996269501E-01  0.35000000000E-01  0.51099999109E-03 0. -1.
       22    1    1    2    0    0 -0.42188018230E-02  0.14867481305E-01 -0.25362163716E-01  0.29699825547E-01  0.00000000000E+00 0. -1.
       22    1    1    2    0    0  0.39496452672E-02 -0.12183727192E-01 -0.18621412944E-02  0.12942583831E-01  0.00000000000E+00 0.  1.
       22    1    1    2    0    0  0.26915655571E-03 -0.26837541132E-02  0.27224305010E-01  0.27357590622E-01  0.00000000000E+00 0.  1.
</event>
<event>
 5   0  0.4143600E+04  0.9118800E+02  0.7546771E-02  0.1180000E+00
      -11   -1    0    0    0    0  0.00000000000E+00  0.00000000000E+00  0.34996269501E-01  0.35000000000E-01  0.51099999109E-03 0.  1.
       11   -1    0    0    0    0 -0.00000000000E+00 -0.00000000000E+00 -0.34996269501E-01  0.35000000000E-01  0.51099999109E-03 0. -1.
       22    1    1    2    0    0 -0.42913877061E-03 -0.83971566301E-03  0.34918905122E-01  0.34931636340E-01  0.00000000000E+00 0.  1.
       22    1    1    2    0    0  0.31655878611E-03 -0.11839147913E-03 -0.35194964625E-03  0.48794934254E-03  0.00000000000E+00 0. -1.
       22    1    1    2    0    0  0.11257998450E-03  0.95810714213E-03 -0.34566955475E-01  0.34580414318E-01  0.00000000000E+00 0. -1.
</event>
<event>
 5   0  0.4143600E+04  0.9118800E+02  0.7546771E-02  0.1180000E+00
      -11   -1    0    0    0    0  0.00000000000E+00  0.00000000000E+00  0.34996269501E-01  0.35000000000E-01  0.51099999109E-03 0. -1.
       11   -1    0    0    0    0 -0.00000000000E+00 -0.00000000000E+00 -0.34996269501E-01  0.35000000000E-01  0.51099999109E-03 0.  1.
       22    1    1    2    0    0 -0.22807030110E-02 -0.20503134284E-01 -0.27972581862E-01  0.34756948337E-01  0.00000000000E+00 0.  1.
       22    1    1    2    0    0  0.31247672764E-03  0.33853288293E-04  0.24356929142E-02  0.24558883775E-02  0.00000000000E+00 0.  1.
       22    1    1    2    0    0  0.19682262833E-02  0.20469280995E-01  0.25536888948E-01  0.32787163285E-01  0.00000000000E+00 0. -1.
</event>
<event>
 5   0  0.4143600E+04  0.9118800E+02  0.7546771E-02  0.1180000E+00
      -11   -1    0    0    0    0  0.00000000000E+00  0.00000000000E+00  0.34996269501E-01  0.35000000000E-01  0.51099999109E-03 0.  1.
       11   -1    0    0    0    0 -0.00000000000E+00 -0.00000000000E+00 -0.34996269501E-01  0.35000000000E-01  0.51099999109E-03 0. -1.
       22    1    1    2    0    0 -0.83496858149E-02 -0.71141362027E-02  0.18189052699E-01  0.21240758584E-01  0.00000000000E+00 0.  1.
       22    1    1    2    0    0  0.79793270686E-02  0.96868901592E-02 -0.32173849053E-01  0.34534939761E-01  0.00000000000E+00 0. -1.
       22    1    1    2    0    0  0.37035874632E-03 -0.25727539565E-02  0.13984796353E-01  0.14224301655E-01  0.00000000000E+00 0.  1.
</event>
<event>
 5   0  0.4143600E+04  0.9118800E+02  0.7546771E-02  0.1180000E+00
      -11   -1    0    0    0    0  0.00000000000E+00  0.00000000000E+00  0.34996269501E-01  0.35000000000E-01  0.51099999109E-03 0. -1.
       11   -1    0    0    0    0 -0.00000000000E+00 -0.00000000000E+00 -0.34996269501E-01  0.35000000000E-01  0.51099999109E-03 0.  1.
       22    1    1    2    0    0  0.22273328868E-02  0.35052889322E-02  0.86464186064E-02  0.95921122285E-02  0.00000000000E+00 0.  1.
       22    1    1    2    0    0  0.19128805197E-01  0.77344046173E-03  0.17804194629E-01  0.26143808919E-01  0.00000000000E+00 0. -1.
       22    1    1    2    0    0 -0.21356138084E-01 -0.42787293939E-02 -0.26450613236E-01  0.34264078852E-01  0.00000000000E+00 0.  1.
</event>
<event>
 5   0  0.4143600E+04  0.9118800E+02  0.7546771E-02  0.1180000E+00
      -11   -1    0    0    0    0  0.00000000000E+00  0.00000000000E+00  0.34996269501E-01  0.35000000000E-01  0.51099999109E-03 0. -1.
       11   -1    0    0    0    0 -0.00000000000E+00 -0.00000000000E+00 -0.34996269501E-01  0.35000000000E-01  0.51099999109E-03 0.  1.
       22    1    1    2    0    0  0.10681101286E-01  0.15719746274E-01  0.21685282971E-01  0.28834837352E-01  0.00000000000E+00 0. -1.
       22    1    1    2    0    0  0.44728338400E-02  0.48808756256E-03  0.48230939293E-02  0.65959614219E-02  0.00000000000E+00 0.  1.
       22    1    1    2    0    0 -0.15153935126E-01 -0.16207833837E-01 -0.26508376900E-01  0.34569201226E-01  0.00000000000E+00 0.  1.
</event>
<event>
 5   0  0.4143600E+04  0.9118800E+02  0.7546771E-02  0.1180000E+00
      -11   -1    0    0    0    0  0.00000000000E+00  0.00000000000E+00  0.34996269501E-01  0.35000000000E-01  0.51099999109E-03 0. -1.
       11   -1    0    0    0    0 -0.00000000000E+00 -0.00000000000E+00 -0.34996269501E-01  0.35000000000E-01  0.51099999109E-03 0.  1.
       22    1    1    2    0    0 -0.10958297331E-03  0.17383323003E-03 -0.28995550861E-03  0.35538798077E-03  0.00000000000E+00 0. -1.
       22    1    1    2    0    0 -0.51743914861E-03 -0.52567410080E-02 -0.34286463408E-01  0.34690959087E-01  0.00000000000E+00 0.  1.
       22    1    1    2    0    0  0.62702212191E-03  0.50829077779E-02  0.34576418917E-01  0.34953652933E-01  0.00000000000E+00 0. -1.
</event>
<event>
 5   0  0.4143600E+04  0.9118800E+02  0.7546771E-02  0.1180000E+00
      -11   -1    0    0    0    0  0.00000000000E+00  0.00000000000E+00  0.34996269501E-01  0.35000000000E-01  0.51099999109E-03 0.  1.
       11   -1    0    0    0    0 -0.00000000000E+00 -0.00000000000E+00 -0.34996269501E-01  0.35000000000E-01  0.51099999109E-03 0. -1.
       22    1    1    2    0    0  0.35371477648E-03  0.13170286066E-02  0.83787801825E-03  0.16005368059E-02  0.00000000000E+00 0. -1.
       22    1    1    2    0    0  0.49139499174E-02  0.14309335112E-01 -0.30734473079E-01  0.34256558651E-01  0.00000000000E+00 0. -1.
       22    1    1    2    0    0 -0.52676646938E-02 -0.15626363718E-01  0.29896595061E-01  0.34142904543E-01  0.00000000000E+00 0.  1.
</event>
<event>
 5   0  0.4143600E+04  0.9118800E+02  0.7546771E-02  0.1180000E+00
      -11   -1    0    0    0    0  0.00000000000E+00  0.00000000000E+00  0.34996269501E-01  0.35000000000E-01  0.51099999109E-03 0.  1.
       11   -1    0    0    0    0 -0.00000000000E+00 -0.00000000000E+00 -0.34996269501E-01  0.35000000000E-01  0.51099999109E-03 0. -1.
       22    1    1    2    0    0  0.17719472226E-02  0.32329136690E-03  0.34802379051E-01  0.34848958405E-01  0.00000000000E+00 0.  1.
       22    1    1    2    0    0 -0.19447570042E-03  0.86168654771E-03 -0.29165177936E-01  0.29178552544E-01  0.00000000000E+00 0. -1.
       22    1    1    2    0    0 -0.15774715222E-02 -0.11849779146E-02 -0.56372011147E-02  0.59724890514E-02  0.00000000000E+00 0. -1.
</event>
<event>
 5   0  0.4143600E+04  0.9118800E+02  0.7546771E-02  0.1180000E+00
      -11   -1    0    0    0    0  0.00000000000E+00  0.00000000000E+00  0.34996269501E-01  0.35000000000E-01  0.51099999109E-03 0.  1.
       11   -1    0    0    0    0 -0.00000000000E+00 -0.00000000000E+00 -0.34996269501E-01  0.35000000000E-01  0.51099999109E-03 0.  1.
       22    1    1    2    0    0 -0.54894611342E-03 -0.40504583965E-04 -0.15538335964E-02  0.16484481497E-02  0.00000000000E+00 0. -1.
       22    1    1    2    0    0  0.40795154812E-03  0.36898127282E-03 -0.33395680247E-01  0.33400210041E-01  0.00000000000E+00 0.  1.
       22    1    1    2    0    0  0.14099456529E-03 -0.32847668885E-03  0.34949513843E-01  0.34951341809E-01  0.00000000000E+00 0.  1.
</event>
<event>
 5   0  0.4143600E+04  0.9118800E+02  0.7546771E-02  0.1180000E+00
      -11   -1    0    0    0    0  0.00000000000E+00  0.00000000000E+00  0.34996269501E-01  0.35000000000E-01  0.51099999109E-03 0.  1.
       11   -1    0    0    0    0 -0.00000000000E+00 -0.00000000000E+00 -0.34996269501E-01  0.35000000000E-01  0.51099999109E-03 0. -1.
       22    1    1    2    0    0 -0.18572426198E-01  0.30842930938E-02  0.29244863471E-01  0.34780884380E-01  0.00000000000E+00 0.  1.
       22    1    1    2    0    0  0.17969996329E-01 -0.40537174656E-02 -0.28118748615E-01  0.33615731690E-01  0.00000000000E+00 0. -1.
       22    1    1    2    0    0  0.60242986886E-03  0.96942437179E-03 -0.11261148557E-02  0.16033839303E-02  0.00000000000E+00 0. -1.
</event>
<event>
 5   0  0.4143600E+04  0.9118800E+02  0.7546771E-02  0.1180000E+00
      -11   -1    0    0    0    0  0.00000000000E+00  0.00000000000E+00  0.34996269501E-01  0.35000000000E-01  0.51099999109E-03 0. -1.
       11   -1    0    0    0    0 -0.00000000000E+00 -0.00000000000E+00 -0.34996269501E-01  0.35000000000E-01  0.51099999109E-03 0. -1.
       22    1    1    2    0    0  0.21766425608E-03 -0.12318414388E-02  0.34853941902E-01  0.34876382799E-01  0.00000000000E+00 0. -1.
       22    1    1    2    0    0  0.18298678565E-03  0.62575556414E-03 -0.68034137777E-03  0.94229431712E-03  0.00000000000E+00 0.  1.
       22    1    1    2    0    0 -0.40065104172E-03  0.60608587466E-03 -0.34173600524E-01  0.34181322884E-01  0.00000000000E+00 0. -1.
</event>
<event>
 5   0  0.4143600E+04  0.9118800E+02  0.7546771E-02  0.1180000E+00
      -11   -1    0    0    0    0  0.00000000000E+00  0.00000000000E+00  0.34996269501E-01  0.35000000000E-01  0.51099999109E-03 0.  1.
       11   -1    0    0    0    0 -0.00000000000E+00 -0.00000000000E+00 -0.34996269501E-01  0.35000000000E-01  0.51099999109E-03 0. -1.
       22    1    1    2    0    0  0.10288521535E-01  0.14716679035E-01  0.30021731823E-01  0.34981976772E-01  0.00000000000E+00 0.  1.
       22    1    1    2    0    0 -0.15444055614E-03  0.43502262718E-05 -0.26706376985E-03  0.30853503369E-03  0.00000000000E+00 0. -1.
       22    1    1    2    0    0 -0.10134080979E-01 -0.14721029262E-01 -0.29754668053E-01  0.34709488195E-01  0.00000000000E+00 0. -1.
</event>
<event>
 5   0  0.4143600E+04  0.9118800E+02  0.7546771E-02  0.1180000E+00
      -11   -1    0    0    0    0  0.00000000000E+00  0.00000000000E+00  0.34996269501E-01  0.35000000000E-01  0.51099999109E-03 0.  1.
       11   -1    0    0    0    0 -0.00000000000E+00 -0.00000000000E+00 -0.34996269501E-01  0.35000000000E-01  0.51099999109E-03 0. -1.
       22    1    1    2    0    0  0.51378008185E-03  0.76304496545E-04 -0.10540350235E-02  0.11750668829E-02  0.00000000000E+00 0. -1.
       22    1    1    2    0    0  0.28459938022E-01 -0.18830667712E-01 -0.19450974083E-02  0.34181069653E-01  0.00000000000E+00 0. -1.
       22    1    1    2    0    0 -0.28973718104E-01  0.18754363216E-01  0.29991324318E-02  0.34643863464E-01  0.00000000000E+00 0.  1.
</event>
<event>
 5   0  0.4143600E+04  0.9118800E+02  0.7546771E-02  0.1180000E+00
      -11   -1    0    0    0    0  0.00000000000E+00  0.00000000000E+00  0.34996269501E-01  0.35000000000E-01  0.51099999109E-03 0. -1.
       11   -1    0    0    0    0 -0.00000000000E+00 -0.00000000000E+00 -0.34996269501E-01  0.35000000000E-01  0.51099999109E-03 0.  1.
       22    1    1    2    0    0 -0.13514532375E-03 -0.67899133830E-03 -0.25309871958E-01  0.25319338697E-01  0.00000000000E+00 0. -1.
       22    1    1    2    0    0  0.23724332133E-02  0.39637046944E-02 -0.90133203213E-02  0.10128145806E-01  0.00000000000E+00 0.  1.
       22    1    1    2    0    0 -0.22372878895E-02 -0.32847133561E-02  0.34323192279E-01  0.34552515497E-01  0.00000000000E+00 0. -1.
</event>
<event>
 5   0  0.4143600E+04  0.9118800E+02  0.7546771E-02  0.1180000E+00
      -11   -1    0    0    0    0  0.00000000000E+00  0.00000000000E+00  0.34996269501E-01  0.35000000000E-01  0.51099999109E-03 0.  1.
       11   -1    0    0    0    0 -0.00000000000E+00 -0.00000000000E+00 -0.34996269501E-01  0.35000000000E-01  0.51099999109E-03 0.  1.
       22    1    1    2    0    0 -0.63966595675E-02 -0.12293569372E-01 -0.28611980549E-01  0.31791422309E-01  0.00000000000E+00 0.  1.
       22    1    1    2    0    0  0.66138807865E-02  0.11802853286E-01  0.47479922811E-02  0.14338556254E-01  0.00000000000E+00 0. -1.
       22    1    1    2    0    0 -0.21722121902E-03  0.49071608593E-03  0.23863988267E-01  0.23870021436E-01  0.00000000000E+00 0.  1.
</event>
<event>
 5   0  0.4143600E+04  0.9118800E+02  0.7546771E-02  0.1180000E+00
      -11   -1    0    0    0    0  0.00000000000E+00  0.00000000000E+00  0.34996269501E-01  0.35000000000E-01  0.51099999109E-03 0. -1.
       11   -1    0    0    0    0 -0.00000000000E+00 -0.00000000000E+00 -0.34996269501E-01  0.35000000000E-01  0.51099999109E-03 0.  1.
       22    1    1    2    0    0  0.28078907922E-04  0.50487152274E-04  0.25169969612E-02  0.25176598421E-02  0.00000000000E+00 0. -1.
       22    1    1    2    0    0 -0.10069829873E-01 -0.74043667884E-02  0.30088845622E-01  0.32581662819E-01  0.00000000000E+00 0. -1.
       22    1    1    2    0    0  0.10041750965E-01  0.73538796361E-02 -0.32605842583E-01  0.34900677339E-01  0.00000000000E+00 0.  1.
</event>
<event>
 5   0  0.4143600E+04  0.9118800E+02  0.7546771E-02  0.1180000E+00
      -11   -1    0    0    0    0  0.00000000000E+00  0.00000000000E+00  0.34996269501E-01  0.35000000000E-01  0.51099999109E-03 0.  1.
       11   -1    0    0    0    0 -0.00000000000E+00 -0.00000000000E+00 -0.34996269501E-01  0.35000000000E-01  0.51099999109E-03 0. -1.
       22    1    1    2    0    0 -0.11870486089E-01 -0.82384400925E-02 -0.31756129010E-01  0.34888853017E-01  0.00000000000E+00 0. -1.
       22    1    1    2    0    0  0.11441688065E-01  0.84124642566E-02  0.31560976510E-01  0.34608915309E-01  0.00000000000E+00 0.  1.
       22    1    1    2    0    0  0.42879802436E-03 -0.17402416414E-03  0.19515250062E-03  0.50223167353E-03  0.00000000000E+00 0. -1.
</event>
<event>
 5   0  0.4143600E+04  0.9118800E+02  0.7546771E-02  0.1180000E+00
      -11   -1    0    0    0    0  0.00000000000E+00  0.00000000000E+00  0.34996269501E-01  0.35000000000E-01  0.51099999109E-03 0.  1.
       11   -1    0    0    0    0 -0.00000000000E+00 -0.00000000000E+00 -0.34996269501E-01  0.35000000000E-01  0.51099999109E-03 0. -1.
       22    1    1    2    0    0 -0.77971412103E-03 -0.21007198507E-04 -0.83172545920E-03  0.11402467507E-02  0.00000000000E+00 0. -1.
       22    1    1    2    0    0 -0.47007102253E-02 -0.29617106055E-02 -0.33504082597E-01  0.33961624770E-01  0.00000000000E+00 0. -1.
       22    1    1    2    0    0  0.54804243463E-02  0.29827178040E-02  0.34335808056E-01  0.34898128480E-01  0.00000000000E+00 0.  1.
</event>
<event>
 5   0  0.4143600E+04  0.9118800E+02  0.7546771E-02  0.1180000E+00
      -11   -1    0    0    0    0  0.00000000000E+00  0.00000000000E+00  0.34996269501E-01  0.35000000000E-01  0.51099999109E-03 0.  1.
       11   -1    0    0    0    0 -0.00000000000E+00 -0.00000000000E+00 -0.34996269501E-01  0.35000000000E-01  0.51099999109E-03 0.  1.
       22    1    1    2    0    0 -0.38363401979E-02 -0.12299759493E-01 -0.40461442544E-02  0.13504550086E-01  0.00000000000E+00 0. -1.
       22    1    1    2    0    0  0.38363401979E-02  0.12299759493E-01 -0.24643012006E-01  0.27807905898E-01  0.00000000000E+00 0.  1.
       22    1    1    2    0    0 -0.00000000000E+00 -0.00000000000E+00  0.28689156261E-01  0.28687544016E-01  0.00000000000E+00 0.  1.
</event>
<event>
 5   0  0.4143600E+04  0.9118800E+02  0.7546771E-02  0.1180000E+00
      -11   -1    0    0    0    0  0.00000000000E+00  0.00000000000E+00  0.34996269501E-01  0.35000000000E-01  0.51099999109E-03 0. -1.
       11   -1    0    0    0    0 -0.00000000000E+00 -0.00000000000E+00 -0.34996269501E-01  0.35000000000E-01  0.51099999109E-03 0.  1.
       22    1    1    2    0    0  0.18688727608E-02 -0.37383329221E-02  0.17355163949E-02  0.45254652346E-02  0.00000000000E+00 0. -1.
       22    1    1    2    0    0 -0.10376166303E-02 -0.13622864476E-01  0.27929825071E-01  0.31092349755E-01  0.00000000000E+00 0. -1.
       22    1    1    2    0    0 -0.83125613054E-03  0.17361197398E-01 -0.29665341466E-01  0.34382185011E-01  0.00000000000E+00 0.  1.
</event>
<event>
 5   0  0.4143600E+04  0.9118800E+02  0.7546771E-02  0.1180000E+00
      -11   -1    0    0    0    0  0.00000000000E+00  0.00000000000E+00  0.34996269501E-01  0.35000000000E-01  0.51099999109E-03 0. -1.
       11   -1    0    0    0    0 -0.00000000000E+00 -0.00000000000E+00 -0.34996269501E-01  0.35000000000E-01  0.51099999109E-03 0.  1.
       22    1    1    2    0    0  0.62041578171E-03  0.88569271162E-04  0.16347831401E-01  0.16359839601E-01  0.00000000000E+00 0.  1.
       22    1    1    2    0    0 -0.19317776273E-01 -0.45265622214E-02 -0.25537301764E-01  0.32339140791E-01  0.00000000000E+00 0.  1.
       22    1    1    2    0    0  0.18697360492E-01  0.44379929503E-02  0.91894703632E-02  0.21301019608E-01  0.00000000000E+00 0. -1.
</event>
<event>
 5   0  0.4143600E+04  0.9118800E+02  0.7546771E-02  0.1180000E+00
      -11   -1    0    0    0    0  0.00000000000E+00  0.00000000000E+00  0.34996269501E-01  0.35000000000E-01  0.51099999109E-03 0. -1.
       11   -1    0    0    0    0 -0.00000000000E+00 -0.00000000000E+00 -0.34996269501E-01  0.35000000000E-01  0.51099999109E-03 0.  1.
       22    1    1    2    0    0 -0.48724351942E-02 -0.11954395077E-01  0.24866387491E-01  0.28017591139E-01  0.00000000000E+00 0. -1.
       22    1    1    2    0    0 -0.51724981928E-03  0.40842957571E-03  0.73283174836E-02  0.73578936684E-02  0.00000000000E+00 0.  1.
       22    1    1    2    0    0  0.53896850135E-02  0.11545965502E-01 -0.32194704975E-01  0.34624515192E-01  0.00000000000E+00 0.  1.
</event>
<event>
 5   0  0.4143600E+04  0.9118800E+02  0.7546771E-02  0.1180000E+00
      -11   -1    0    0    0    0  0.00000000000E+00  0.00000000000E+00  0.34996269501E-01  0.35000000000E-01  0.51099999109E-03 0. -1.
       11   -1    0    0    0    0 -0.00000000000E+00 -0.00000000000E+00 -0.34996269501E-01  0.35000000000E-01  0.51099999109E-03 0.  1.
       22    1    1    2    0    0  0.14116270417E-01 -0.20306429050E-01 -0.24158624664E-01  0.34572522282E-01  0.00000000000E+00 0.  1.
       22    1    1    2    0    0 -0.14096525716E-01  0.20095778748E-01  0.24714134201E-01  0.34833041642E-01  0.00000000000E+00 0. -1.
       22    1    1    2    0    0 -0.19744701814E-04  0.21065030219E-03 -0.55550953719E-03  0.59443607644E-03  0.00000000000E+00 0. -1.
</event>
<event>
 5   0  0.4143600E+04  0.9118800E+02  0.7546771E-02  0.1180000E+00
      -11   -1    0    0    0    0  0.00000000000E+00  0.00000000000E+00  0.34996269501E-01  0.35000000000E-01  0.51099999109E-03 0. -1.
       11   -1    0    0    0    0 -0.00000000000E+00 -0.00000000000E+00 -0.34996269501E-01  0.35000000000E-01  0.51099999109E-03 0.  1.
       22    1    1    2    0    0 -0.43570277267E-02  0.11827395298E-01 -0.21686352377E-01  0.25083238418E-01  0.00000000000E+00 0.  1.
       22    1    1    2    0    0  0.10948978678E-02 -0.15764533945E-01  0.30714518386E-01  0.34541293716E-01  0.00000000000E+00 0. -1.
       22    1    1    2    0    0  0.32621298589E-02  0.39371386471E-02 -0.90281660098E-02  0.10375467866E-01  0.00000000000E+00 0.  1.
</event>
<event>
 5   0  0.4143600E+04  0.9118800E+02  0.7546771E-02  0.1180000E+00
      -11   -1    0    0    0    0  0.00000000000E+00  0.00000000000E+00  0.34996269501E-01  0.35000000000E-01  0.51099999109E-03 0. -1.
       11   -1    0    0    0    0 -0.00000000000E+00 -0.00000000000E+00 -0.34996269501E-01  0.35000000000E-01  0.51099999109E-03 0.  1.
       22    1    1    2    0    0  0.21159984541E-02 -0.45442886194E-02  0.34533570178E-01  0.34895493659E-01  0.00000000000E+00 0. -1.
       22    1    1    2    0    0 -0.32508117498E-03 -0.30987392406E-03 -0.46941953536E-03  0.64965707824E-03  0.00000000000E+00 0.  1.
       22    1    1    2    0    0 -0.17909172792E-02  0.48541625435E-02 -0.34064150642E-01  0.34454849262E-01  0.00000000000E+00 0.  1.
</event>
<event>
 5   0  0.4143600E+04  0.9118800E+02  0.7546771E-02  0.1180000E+00
      -11   -1    0    0    0    0  0.00000000000E+00  0.00000000000E+00  0.34996269501E-01  0.35000000000E-01  0.51099999109E-03 0. -1.
       11   -1    0    0    0    0 -0.00000000000E+00 -0.00000000000E+00 -0.34996269501E-01  0.35000000000E-01  0.51099999109E-03 0.  1.
       22    1    1    2    0    0  0.13621047914E-03  0.11738407554E-01 -0.32741889077E-01  0.34782755290E-01  0.00000000000E+00 0.  1.
       22    1    1    2    0    0 -0.54211077745E-04 -0.11906172703E-01  0.27436262108E-01  0.29908332714E-01  0.00000000000E+00 0. -1.
       22    1    1    2    0    0 -0.81999401393E-04  0.16776514939E-03  0.53056269690E-02  0.53089119960E-02  0.00000000000E+00 0. -1.
</event>
<event>
 5   0  0.4143600E+04  0.9118800E+02  0.7546771E-02  0.1180000E+00
      -11   -1    0    0    0    0  0.00000000000E+00  0.00000000000E+00  0.34996269501E-01  0.35000000000E-01  0.51099999109E-03 0.  1.
       11   -1    0    0    0    0 -0.00000000000E+00 -0.00000000000E+00 -0.34996269501E-01  0.35000000000E-01  0.51099999109E-03 0.  1.
       22    1    1    2    0    0  0.88163981524E-03  0.47667833537E-03  0.34908390736E-01  0.34922775588E-01  0.00000000000E+00 0.  1.
       22    1    1    2    0    0 -0.39213172438E-03  0.17104513046E-03 -0.33006720604E-01  0.33009493009E-01  0.00000000000E+00 0.  1.
       22    1    1    2    0    0 -0.48950809086E-03 -0.64772346582E-03 -0.19016701325E-02  0.20677314023E-02  0.00000000000E+00 0. -1.
</event>
<event>
 5   0  0.4143600E+04  0.9118800E+02  0.7546771E-02  0.1180000E+00
      -11   -1    0    0    0    0  0.00000000000E+00  0.00000000000E+00  0.34996269501E-01  0.35000000000E-01  0.51099999109E-03 0.  1.
       11   -1    0    0    0    0 -0.00000000000E+00 -0.00000000000E+00 -0.34996269501E-01  0.35000000000E-01  0.51099999109E-03 0. -1.
       22    1    1    2    0    0  0.92319772206E-02 -0.24279205478E-02  0.11966803715E-01  0.15307795163E-01  0.00000000000E+00 0.  1.
       22    1    1    2    0    0 -0.11632948445E-01  0.44199447527E-02 -0.32043222088E-01  0.34374837933E-01  0.00000000000E+00 0. -1.
       22    1    1    2    0    0  0.24009712246E-02 -0.19920242049E-02  0.20076418372E-01  0.20317366904E-01  0.00000000000E+00 0.  1.
</event>
<event>
 5   0  0.4143600E+04  0.9118800E+02  0.7546771E-02  0.1180000E+00
      -11   -1    0    0    0    0  0.00000000000E+00  0.00000000000E+00  0.34996269501E-01  0.35000000000E-01  0.51099999109E-03 0.  1.
       11   -1    0    0    0    0 -0.00000000000E+00 -0.00000000000E+00 -0.34996269501E-01  0.35000000000E-01  0.51099999109E-03 0. -1.
       22    1    1    2    0    0 -0.11530204329E-01  0.12603771266E-01 -0.30524223781E-01  0.34978977964E-01  0.00000000000E+00 0. -1.
       22    1    1    2    0    0  0.48980775285E-05 -0.14831470733E-04  0.37886511306E-03  0.37918694279E-03  0.00000000000E+00 0. -1.
       22    1    1    2    0    0  0.11525306251E-01 -0.12588939795E-01  0.30145358668E-01  0.34641835093E-01  0.00000000000E+00 0.  1.
</event>
<event>
 5   0  0.4143600E+04  0.9118800E+02  0.7546771E-02  0.1180000E+00
      -11   -1    0    0    0    0  0.00000000000E+00  0.00000000000E+00  0.34996269501E-01  0.35000000000E-01  0.51099999109E-03 0.  1.
       11   -1    0    0    0    0 -0.00000000000E+00 -0.00000000000E+00 -0.34996269501E-01  0.35000000000E-01  0.51099999109E-03 0. -1.
       22    1    1    2    0    0 -0.28661392552E-02  0.10732986198E-01 -0.19286354582E-01  0.22257026307E-01  0.00000000000E+00 0. -1.
       22    1    1    2    0    0 -0.22820530193E-02  0.16642730792E-03 -0.13041616722E-01  0.13240816846E-01  0.00000000000E+00 0. -1.
       22    1    1    2    0    0  0.51481922745E-02 -0.10899413506E-01  0.32327971304E-01  0.34502156847E-01  0.00000000000E+00 0.  1.
</event>
<event>
 5   0  0.4143600E+04  0.9118800E+02  0.7546771E-02  0.1180000E+00
      -11   -1    0    0    0    0  0.00000000000E+00  0.00000000000E+00  0.34996269501E-01  0.35000000000E-01  0.51099999109E-03 0.  1.
       11   -1    0    0    0    0 -0.00000000000E+00 -0.00000000000E+00 -0.34996269501E-01  0.35000000000E-01  0.51099999109E-03 0. -1.
       22    1    1    2    0    0 -0.16969620291E-01 -0.85494868857E-02  0.29240778593E-01  0.34872408457E-01  0.00000000000E+00 0.  1.
       22    1    1    2    0    0  0.17161969258E-01  0.86472430257E-02 -0.28646547439E-01  0.34495400866E-01  0.00000000000E+00 0. -1.
       22    1    1    2    0    0 -0.19234896656E-03 -0.97756139955E-04 -0.59423115401E-03  0.63219067711E-03  0.00000000000E+00 0.  1.
</event>
<event>
 5   0  0.4143600E+04  0.9118800E+02  0.7546771E-02  0.1180000E+00
      -11   -1    0    0    0    0  0.00000000000E+00  0.00000000000E+00  0.34996269501E-01  0.35000000000E-01  0.51099999109E-03 0. -1.
       11   -1    0    0    0    0 -0.00000000000E+00 -0.00000000000E+00 -0.34996269501E-01  0.35000000000E-01  0.51099999109E-03 0.  1.
       22    1    1    2    0    0 -0.27682803494E-02  0.68790805349E-02 -0.33720477571E-01  0.34526160121E-01  0.00000000000E+00 0.  1.
       22    1    1    2    0    0  0.23875766947E-02 -0.68001667765E-02  0.34145495043E-01  0.34897816871E-01  0.00000000000E+00 0. -1.
       22    1    1    2    0    0  0.38070365463E-03 -0.78913758328E-04 -0.42501747163E-03  0.57602300744E-03  0.00000000000E+00 0.  1.
</event>
<event>
 5   0  0.4143600E+04  0.9118800E+02  0.7546771E-02  0.1180000E+00
      -11   -1    0    0    0    0  0.00000000000E+00  0.00000000000E+00  0.34996269501E-01  0.35000000000E-01  0.51099999109E-03 0.  1.
       11   -1    0    0    0    0 -0.00000000000E+00 -0.00000000000E+00 -0.34996269501E-01  0.35000000000E-01  0.51099999109E-03 0. -1.
       22    1    1    2    0    0 -0.54514283493E-04  0.52565986486E-05  0.50992545826E-03  0.51285808165E-03  0.00000000000E+00 0.  1.
       22    1    1    2    0    0 -0.22177985334E-02 -0.14810165027E-01 -0.31604590792E-01  0.34972986398E-01  0.00000000000E+00 0. -1.
       22    1    1    2    0    0  0.22723128169E-02  0.14804908428E-01  0.31094665334E-01  0.34514155521E-01  0.00000000000E+00 0.  1.
</event>
<event>
 5   0  0.4143600E+04  0.9118800E+02  0.7546771E-02  0.1180000E+00
      -11   -1    0    0    0    0  0.00000000000E+00  0.00000000000E+00  0.34996269501E-01  0.35000000000E-01  0.51099999109E-03 0.  1.
       11   -1    0    0    0    0 -0.00000000000E+00 -0.00000000000E+00 -0.34996269501E-01  0.35000000000E-01  0.51099999109E-03 0. -1.
       22    1    1    2    0    0 -0.32608457529E-04 -0.13997614297E-03  0.17824829156E-02  0.17882678704E-02  0.00000000000E+00 0.  1.
       22    1    1    2    0    0 -0.94259535199E-02  0.73660362008E-02  0.31057181346E-01  0.33281460338E-01  0.00000000000E+00 0.  1.
       22    1    1    2    0    0  0.94585619775E-02 -0.72260600579E-02 -0.32839664261E-01  0.34930271792E-01  0.00000000000E+00 0. -1.
</event>
<event>
 5   0  0.4143600E+04  0.9118800E+02  0.7546771E-02  0.1180000E+00
      -11   -1    0    0    0    0  0.00000000000E+00  0.00000000000E+00  0.34996269501E-01  0.35000000000E-01  0.51099999109E-03 0. -1.
       11   -1    0    0    0    0 -0.00000000000E+00 -0.00000000000E+00 -0.34996269501E-01  0.35000000000E-01  0.51099999109E-03 0.  1.
       22    1    1    2    0    0 -0.98667486161E-02  0.15803849628E-01 -0.26751539550E-01  0.32599988644E-01  0.00000000000E+00 0.  1.
       22    1    1    2    0    0 -0.82008114511E-03 -0.15378716732E-01  0.14754670363E-01  0.21327863440E-01  0.00000000000E+00 0. -1.
       22    1    1    2    0    0  0.10686829761E-01 -0.42513289514E-03  0.11996869187E-01  0.16072147915E-01  0.00000000000E+00 0. -1.
</event>
<event>
 5   0  0.4143600E+04  0.9118800E+02  0.7546771E-02  0.1180000E+00
      -11   -1    0    0    0    0  0.00000000000E+00  0.00000000000E+00  0.34996269501E-01  0.35000000000E-01  0.51099999109E-03 0.  1.
       11   -1    0    0    0    0 -0.00000000000E+00 -0.00000000000E+00 -0.34996269501E-01  0.35000000000E-01  0.51099999109E-03 0. -1.
       22    1    1    2    0    0  0.13512910733E-01  0.76039519883E-02  0.30149330568E-01  0.33902816639E-01  0.00000000000E+00 0.  1.
       22    1    1    2    0    0  0.77472279386E-03  0.41432057219E-03  0.72891439611E-03  0.11415660913E-02  0.00000000000E+00 0. -1.
       22    1    1    2    0    0 -0.14287633527E-01 -0.80182725605E-02 -0.30878244964E-01  0.34955617270E-01  0.00000000000E+00 0. -1.
</event>
<event>
 5   0  0.4143600E+04  0.9118800E+02  0.7546771E-02  0.1180000E+00
      -11   -1    0    0    0    0  0.00000000000E+00  0.00000000000E+00  0.34996269501E-01  0.35000000000E-01  0.51099999109E-03 0.  1.
       11   -1    0    0    0    0 -0.00000000000E+00 -0.00000000000E+00 -0.34996269501E-01  0.35000000000E-01  0.51099999109E-03 0. -1.
       22    1    1    2    0    0  0.24732815859E-02  0.12556883303E-01 -0.21568834219E-01  0.25080012952E-01  0.00000000000E+00 0. -1.
       22    1    1    2    0    0 -0.60497420372E-02  0.33616309508E-02 -0.83477871649E-02  0.10843684425E-01  0.00000000000E+00 0. -1.
       22    1    1    2    0    0  0.35764604513E-02 -0.15918514254E-01  0.29916621384E-01  0.34076302623E-01  0.00000000000E+00 0.  1.
</event>
<event>
 5   0  0.4143600E+04  0.9118800E+02  0.7546771E-02  0.1180000E+00
      -11   -1    0    0    0    0  0.00000000000E+00  0.00000000000E+00  0.34996269501E-01  0.35000000000E-01  0.51099999109E-03 0.  1.
       11   -1    0    0    0    0 -0.00000000000E+00 -0.00000000000E+00 -0.34996269501E-01  0.35000000000E-01  0.51099999109E-03 0. -1.
       22    1    1    2    0    0  0.35715598662E-02 -0.10808951146E-01 -0.31237573693E-01  0.33247187475E-01  0.00000000000E+00 0. -1.
       22    1    1    2    0    0 -0.38642230285E-02  0.10426496169E-01  0.33053693624E-01  0.34873925850E-01  0.00000000000E+00 0.  1.
       22    1    1    2    0    0  0.29266316224E-03  0.38245497671E-03 -0.18161199308E-02  0.18788866753E-02  0.00000000000E+00 0.  1.
</event>
<event>
 5   0  0.4143600E+04  0.9118800E+02  0.7546771E-02  0.1180000E+00
      -11   -1    0    0    0    0  0.00000000000E+00  0.00000000000E+00  0.34996269501E-01  0.35000000000E-01  0.51099999109E-03 0.  1.
       11   -1    0    0    0    0 -0.00000000000E+00 -0.00000000000E+00 -0.34996269501E-01  0.35000000000E-01  0.51099999109E-03 0. -1.
       22    1    1    2    0    0 -0.10737099511E-01  0.20250107664E-01 -0.25885188211E-01  0.34574486765E-01  0.00000000000E+00 0. -1.
       22    1    1    2    0    0  0.10450864318E-01 -0.20096886208E-01  0.22168265000E-01  0.31694437578E-01  0.00000000000E+00 0.  1.
       22    1    1    2    0    0  0.28623519296E-03 -0.15322145593E-03  0.37169232110E-02  0.37310756568E-02  0.00000000000E+00 0.  1.
</event>
<event>
 5   0  0.4143600E+04  0.9118800E+02  0.7546771E-02  0.1180000E+00
      -11   -1    0    0    0    0  0.00000000000E+00  0.00000000000E+00  0.34996269501E-01  0.35000000000E-01  0.51099999109E-03 0. -1.
       11   -1    0    0    0    0 -0.00000000000E+00 -0.00000000000E+00 -0.34996269501E-01  0.35000000000E-01  0.51099999109E-03 0.  1.
       22    1    1    2    0    0  0.69331033875E-02 -0.16998672789E-01  0.29781886113E-01  0.34985476124E-01  0.00000000000E+00 0. -1.
       22    1    1    2    0    0  0.15897218793E-05  0.44169805635E-04 -0.31503131898E-03  0.31811669381E-03  0.00000000000E+00 0. -1.
       22    1    1    2    0    0 -0.69346931094E-02  0.16954502984E-01 -0.29466854794E-01  0.34696407182E-01  0.00000000000E+00 0.  1.
</event>
<event>
 5   0  0.4143600E+04  0.9118800E+02  0.7546771E-02  0.1180000E+00
      -11   -1    0    0    0    0  0.00000000000E+00  0.00000000000E+00  0.34996269501E-01  0.35000000000E-01  0.51099999109E-03 0. -1.
       11   -1    0    0    0    0 -0.00000000000E+00 -0.00000000000E+00 -0.34996269501E-01  0.35000000000E-01  0.51099999109E-03 0.  1.
       22    1    1    2    0    0  0.19743203846E-01  0.67360316959E-03 -0.27290681641E-01  0.33690193584E-01  0.00000000000E+00 0.  1.
       22    1    1    2    0    0 -0.14733897344E-03 -0.41892194429E-03 -0.14539198763E-02  0.15202260935E-02  0.00000000000E+00 0.  1.
       22    1    1    2    0    0 -0.19595864872E-01 -0.25468122530E-03  0.28744601517E-01  0.34789580322E-01  0.00000000000E+00 0. -1.
</event>
<event>
 5   0  0.4143600E+04  0.9118800E+02  0.7546771E-02  0.1180000E+00
      -11   -1    0    0    0    0  0.00000000000E+00  0.00000000000E+00  0.34996269501E-01  0.35000000000E-01  0.51099999109E-03 0. -1.
       11   -1    0    0    0    0 -0.00000000000E+00 -0.00000000000E+00 -0.34996269501E-01  0.35000000000E-01  0.51099999109E-03 0.  1.
       22    1    1    2    0    0 -0.12741797224E-01 -0.10857998480E-01 -0.15944046377E-01  0.23118437282E-01  0.00000000000E+00 0.  1.
       22    1    1    2    0    0  0.92324359508E-02  0.24321474869E-02 -0.13228760968E-01  0.16314206439E-01  0.00000000000E+00 0. -1.
       22    1    1    2    0    0  0.35093612737E-02  0.84258509934E-02  0.29172807345E-01  0.30567356279E-01  0.00000000000E+00 0. -1.
</event>
<event>
 5   0  0.4143600E+04  0.9118800E+02  0.7546771E-02  0.1180000E+00
      -11   -1    0    0    0    0  0.00000000000E+00  0.00000000000E+00  0.34996269501E-01  0.35000000000E-01  0.51099999109E-03 0.  1.
       11   -1    0    0    0    0 -0.00000000000E+00 -0.00000000000E+00 -0.34996269501E-01  0.35000000000E-01  0.51099999109E-03 0. -1.
       22    1    1    2    0    0 -0.78758629955E-06  0.64159865733E-05  0.35145139906E-03  0.35151084063E-03  0.00000000000E+00 0.  1.
       22    1    1    2    0    0 -0.77684164277E-02  0.94045093296E-02 -0.32792659014E-01  0.34987877540E-01  0.00000000000E+00 0. -1.
       22    1    1    2    0    0  0.77692040140E-02 -0.94109253161E-02  0.32441207615E-01  0.34660611620E-01  0.00000000000E+00 0.  1.
</event>
<event>
 5   0  0.4143600E+04  0.9118800E+02  0.7546771E-02  0.1180000E+00
      -11   -1    0    0    0    0  0.00000000000E+00  0.00000000000E+00  0.34996269501E-01  0.35000000000E-01  0.51099999109E-03 0. -1.
       11   -1    0    0    0    0 -0.00000000000E+00 -0.00000000000E+00 -0.34996269501E-01  0.35000000000E-01  0.51099999109E-03 0.  1.
       22    1    1    2    0    0 -0.30219629902E-02 -0.17806971850E-01 -0.28788296301E-01  0.33985092478E-01  0.00000000000E+00 0.  1.
       22    1    1    2    0    0  0.32165340530E-02  0.18012515471E-01  0.29797397547E-01  0.34966865823E-01  0.00000000000E+00 0. -1.
       22    1    1    2    0    0 -0.19457106277E-03 -0.20554362068E-03 -0.10091012462E-02  0.10480416993E-02  0.00000000000E+00 0. -1.
</event>
<event>
 5   0  0.4143600E+04  0.9118800E+02  0.7546771E-02  0.1180000E+00
      -11   -1    0    0    0    0  0.00000000000E+00  0.00000000000E+00  0.34996269501E-01  0.35000000000E-01  0.51099999109E-03 0. -1.
       11   -1    0    0    0    0 -0.00000000000E+00 -0.00000000000E+00 -0.34996269501E-01  0.35000000000E-01  0.51099999109E-03 0.  1.
       22    1    1    2    0    0  0.31170578663E-02 -0.20527063759E-02  0.34485028996E-01  0.34686407684E-01  0.00000000000E+00 0. -1.
       22    1    1    2    0    0  0.13680499279E-02  0.19187776329E-02 -0.55041020681E-02  0.59873539887E-02  0.00000000000E+00 0. -1.
       22    1    1    2    0    0 -0.44851077942E-02  0.13392874295E-03 -0.28980926928E-01  0.29326238327E-01  0.00000000000E+00 0.  1.
</event>
<event>
 5   0  0.4143600E+04  0.9118800E+02  0.7546771E-02  0.1180000E+00
      -11   -1    0    0    0    0  0.00000000000E+00  0.00000000000E+00  0.34996269501E-01  0.35000000000E-01  0.51099999109E-03 0. -1.
       11   -1    0    0    0    0 -0.00000000000E+00 -0.00000000000E+00 -0.34996269501E-01  0.35000000000E-01  0.51099999109E-03 0.  1.
       22    1    1    2    0    0  0.88540794182E-02 -0.10236812750E-01  0.32171714203E-01  0.34902811525E-01  0.00000000000E+00 0. -1.
       22    1    1    2    0    0 -0.87768693359E-02  0.10481145751E-01 -0.30740534970E-01  0.33643251059E-01  0.00000000000E+00 0.  1.
       22    1    1    2    0    0 -0.77210082299E-04 -0.24433300033E-03 -0.14311792328E-02  0.14539374156E-02  0.00000000000E+00 0.  1.
</event>
<event>
 5   0  0.4143600E+04  0.9118800E+02  0.7546771E-02  0.1180000E+00
      -11   -1    0    0    0    0  0.00000000000E+00  0.00000000000E+00  0.34996269501E-01  0.35000000000E-01  0.51099999109E-03 0.  1.
       11   -1    0    0    0    0 -0.00000000000E+00 -0.00000000000E+00 -0.34996269501E-01  0.35000000000E-01  0.51099999109E-03 0. -1.
       22    1    1    2    0    0  0.71302614144E-02 -0.20607665010E-01 -0.26795111925E-01  0.34546989855E-01  0.00000000000E+00 0. -1.
       22    1    1    2    0    0 -0.71431090702E-02  0.21025254206E-01  0.27023805260E-01  0.34976726153E-01  0.00000000000E+00 0.  1.
       22    1    1    2    0    0  0.12847655792E-04 -0.41758919669E-03 -0.22869333481E-03  0.47628399179E-03  0.00000000000E+00 0. -1.
</event>
<event>
 5   0  0.4143600E+04  0.9118800E+02  0.7546771E-02  0.1180000E+00
      -11   -1    0    0    0    0  0.00000000000E+00  0.00000000000E+00  0.34996269501E-01  0.35000000000E-01  0.51099999109E-03 0. -1.
       11   -1    0    0    0    0 -0.00000000000E+00 -0.00000000000E+00 -0.34996269501E-01  0.35000000000E-01  0.51099999109E-03 0.  1.
       22    1    1    2    0    0  0.14871069312E-01 -0.25055983333E-02 -0.29489271839E-01  0.33121652722E-01  0.00000000000E+00 0.  1.
       22    1    1    2    0    0 -0.33599110600E-03  0.33471039818E-02 -0.63210154499E-03  0.34227981903E-02  0.00000000000E+00 0. -1.
       22    1    1    2    0    0 -0.14535078206E-01 -0.84150564848E-03  0.30121373384E-01  0.33455549087E-01  0.00000000000E+00 0. -1.
</event>
<event>
 5   0  0.4143600E+04  0.9118800E+02  0.7546771E-02  0.1180000E+00
      -11   -1    0    0    0    0  0.00000000000E+00  0.00000000000E+00  0.34996269501E-01  0.35000000000E-01  0.51099999109E-03 0. -1.
       11   -1    0    0    0    0 -0.00000000000E+00 -0.00000000000E+00 -0.34996269501E-01  0.35000000000E-01  0.51099999109E-03 0.  1.
       22    1    1    2    0    0  0.97166589919E-03 -0.68741380858E-02  0.34244906615E-01  0.34941544587E-01  0.00000000000E+00 0. -1.
       22    1    1    2    0    0  0.45134005858E-03  0.91212139318E-03 -0.20906301491E-02  0.23251683175E-02  0.00000000000E+00 0. -1.
       22    1    1    2    0    0 -0.14230059578E-02  0.59620166926E-02 -0.32154276466E-01  0.32733287095E-01  0.00000000000E+00 0.  1.
</event>
<event>
 5   0  0.4143600E+04  0.9118800E+02  0.7546771E-02  0.1180000E+00
      -11   -1    0    0    0    0  0.00000000000E+00  0.00000000000E+00  0.34996269501E-01  0.35000000000E-01  0.51099999109E-03 0. -1.
       11   -1    0    0    0    0 -0.00000000000E+00 -0.00000000000E+00 -0.34996269501E-01  0.35000000000E-01  0.51099999109E-03 0.  1.
       22    1    1    2    0    0 -0.93990076466E-04 -0.30973715932E-03 -0.35249995614E-02  0.35398295369E-02  0.00000000000E+00 0.  1.
       22    1    1    2    0    0  0.94731356071E-02  0.51305169597E-02 -0.29704334890E-01  0.31597626711E-01  0.00000000000E+00 0.  1.
       22    1    1    2    0    0 -0.93791455306E-02 -0.48207798004E-02  0.33229334452E-01  0.34862543752E-01  0.00000000000E+00 0. -1.
</event>
<event>
 5   0  0.4143600E+04  0.9118800E+02  0.7546771E-02  0.1180000E+00
      -11   -1    0    0    0    0  0.00000000000E+00  0.00000000000E+00  0.34996269501E-01  0.35000000000E-01  0.51099999109E-03 0.  1.
       11   -1    0    0    0    0 -0.00000000000E+00 -0.00000000000E+00 -0.34996269501E-01  0.35000000000E-01  0.51099999109E-03 0. -1.
       22    1    1    2    0    0  0.19844790403E-02 -0.10815536036E-04  0.19239747266E-01  0.19341823826E-01  0.00000000000E+00 0.  1.
       22    1    1    2    0    0 -0.19588932818E-01  0.96656226681E-03  0.54166332372E-02  0.20347000939E-01  0.00000000000E+00 0.  1.
       22    1    1    2    0    0  0.17604453778E-01 -0.95574673078E-03 -0.24656380504E-01  0.30311175236E-01  0.00000000000E+00 0. -1.
</event>
<event>
 5   0  0.4143600E+04  0.9118800E+02  0.7546771E-02  0.1180000E+00
      -11   -1    0    0    0    0  0.00000000000E+00  0.00000000000E+00  0.34996269501E-01  0.35000000000E-01  0.51099999109E-03 0.  1.
       11   -1    0    0    0    0 -0.00000000000E+00 -0.00000000000E+00 -0.34996269501E-01  0.35000000000E-01  0.51099999109E-03 0. -1.
       22    1    1    2    0    0  0.10074960224E-01  0.16383676601E-01  0.28798746439E-01  0.34630874649E-01  0.00000000000E+00 0.  1.
       22    1    1    2    0    0 -0.18136363760E-05  0.36483017250E-05  0.40201651405E-03  0.40203715867E-03  0.00000000000E+00 0.  1.
       22    1    1    2    0    0 -0.10073146588E-01 -0.16387324903E-01 -0.29200762953E-01  0.34967088193E-01  0.00000000000E+00 0. -1.
</event>
<event>
 5   0  0.4143600E+04  0.9118800E+02  0.7546771E-02  0.1180000E+00
      -11   -1    0    0    0    0  0.00000000000E+00  0.00000000000E+00  0.34996269501E-01  0.35000000000E-01  0.51099999109E-03 0.  1.
       11   -1    0    0    0    0 -0.00000000000E+00 -0.00000000000E+00 -0.34996269501E-01  0.35000000000E-01  0.51099999109E-03 0. -1.
       22    1    1    2    0    0 -0.12570607810E-01 -0.30697750739E-01 -0.97132361738E-02  0.34564707985E-01  0.00000000000E+00 0. -1.
       22    1    1    2    0    0 -0.10898883601E-04 -0.28872853716E-03 -0.40258997688E-03  0.49554176749E-03  0.00000000000E+00 0. -1.
       22    1    1    2    0    0  0.12581506694E-01  0.30986479276E-01  0.10115826151E-01  0.34939750247E-01  0.00000000000E+00 0.  1.
</event>
<event>
 5   0  0.4143600E+04  0.9118800E+02  0.7546771E-02  0.1180000E+00
      -11   -1    0    0    0    0  0.00000000000E+00  0.00000000000E+00  0.34996269501E-01  0.35000000000E-01  0.51099999109E-03 0. -1.
       11   -1    0    0    0    0 -0.00000000000E+00 -0.00000000000E+00 -0.34996269501E-01  0.35000000000E-01  0.51099999109E-03 0.  1.
       22    1    1    2    0    0 -0.19642304963E-03 -0.81786769878E-02  0.11691509455E-01  0.14269573667E-01  0.00000000000E+00 0. -1.
       22    1    1    2    0    0  0.56284728911E-02 -0.28145292256E-02  0.20414546966E-01  0.21362467313E-01  0.00000000000E+00 0. -1.
       22    1    1    2    0    0 -0.54320498414E-02  0.10993206213E-01 -0.32106056421E-01  0.34367959021E-01  0.00000000000E+00 0.  1.
</event>
<event>
 5   0  0.4143600E+04  0.9118800E+02  0.7546771E-02  0.1180000E+00
      -11   -1    0    0    0    0  0.00000000000E+00  0.00000000000E+00  0.34996269501E-01  0.35000000000E-01  0.51099999109E-03 0. -1.
       11   -1    0    0    0    0 -0.00000000000E+00 -0.00000000000E+00 -0.34996269501E-01  0.35000000000E-01  0.51099999109E-03 0.  1.
       22    1    1    2    0    0 -0.85252626791E-03  0.36902837540E-02 -0.15992031631E-02  0.41112584423E-02  0.00000000000E+00 0.  1.
       22    1    1    2    0    0  0.10808923628E-01  0.23884998148E-02  0.31715648747E-01  0.33591965361E-01  0.00000000000E+00 0. -1.
       22    1    1    2    0    0 -0.99563973601E-02 -0.60787835687E-02 -0.30116445584E-01  0.32296776197E-01  0.00000000000E+00 0.  1.
</event>
<event>
 5   0  0.4143600E+04  0.9118800E+02  0.7546771E-02  0.1180000E+00
      -11   -1    0    0    0    0  0.00000000000E+00  0.00000000000E+00  0.34996269501E-01  0.35000000000E-01  0.51099999109E-03 0. -1.
       11   -1    0    0    0    0 -0.00000000000E+00 -0.00000000000E+00 -0.34996269501E-01  0.35000000000E-01  0.51099999109E-03 0.  1.
       22    1    1    2    0    0 -0.88808923444E-04 -0.46061100885E-04  0.14644513883E-02  0.14678646118E-02  0.00000000000E+00 0. -1.
       22    1    1    2    0    0 -0.17707383801E-01  0.76994524278E-03  0.28565581442E-01  0.33617505854E-01  0.00000000000E+00 0. -1.
       22    1    1    2    0    0  0.17796192724E-01 -0.72388414189E-03 -0.30030032830E-01  0.34914629534E-01  0.00000000000E+00 0.  1.
</event>
<event>
 5   0  0.4143600E+04  0.9118800E+02  0.7546771E-02  0.1180000E+00
      -11   -1    0    0    0    0  0.00000000000E+00  0.00000000000E+00  0.34996269501E-01  0.35000000000E-01  0.51099999109E-03 0. -1.
       11   -1    0    0    0    0 -0.00000000000E+00 -0.00000000000E+00 -0.34996269501E-01  0.35000000000E-01  0.51099999109E-03 0.  1.
       22    1    1    2    0    0  0.34175905935E-02  0.55174109934E-02 -0.33917982843E-01  0.34533336208E-01  0.00000000000E+00 0.  1.
       22    1    1    2    0    0 -0.38294163513E-04 -0.17223309781E-03 -0.47001430618E-03  0.50203996948E-03  0.00000000000E+00 0. -1.
       22    1    1    2    0    0 -0.33792964300E-02 -0.53451778955E-02  0.34387997149E-01  0.34964623822E-01  0.00000000000E+00 0. -1.
</event>
<event>
 5   0  0.4143600E+04  0.9118800E+02  0.7546771E-02  0.1180000E+00
      -11   -1    0    0    0    0  0.00000000000E+00  0.00000000000E+00  0.34996269501E-01  0.35000000000E-01  0.51099999109E-03 0.  1.
       11   -1    0    0    0    0 -0.00000000000E+00 -0.00000000000E+00 -0.34996269501E-01  0.35000000000E-01  0.51099999109E-03 0. -1.
       22    1    1    2    0    0 -0.31821226208E-04 -0.18305394162E-05  0.30899410549E-03  0.31063370477E-03  0.00000000000E+00 0. -1.
       22    1    1    2    0    0 -0.55531924695E-02  0.15162467980E-01  0.30720404773E-01  0.34705642932E-01  0.00000000000E+00 0.  1.
       22    1    1    2    0    0  0.55850136957E-02 -0.15160637441E-01 -0.31029398879E-01  0.34983723364E-01  0.00000000000E+00 0. -1.
</event>
<event>
 5   0  0.4143600E+04  0.9118800E+02  0.7546771E-02  0.1180000E+00
      -11   -1    0    0    0    0  0.00000000000E+00  0.00000000000E+00  0.34996269501E-01  0.35000000000E-01  0.51099999109E-03 0. -1.
       11   -1    0    0    0    0 -0.00000000000E+00 -0.00000000000E+00 -0.34996269501E-01  0.35000000000E-01  0.51099999109E-03 0.  1.
       22    1    1    2    0    0 -0.71047459524E-02 -0.13169929620E-01 -0.26839075996E-01  0.30728821350E-01  0.00000000000E+00 0.  1.
       22    1    1    2    0    0  0.87587925227E-02  0.16695367172E-01  0.29170210930E-01  0.34732591858E-01  0.00000000000E+00 0. -1.
       22    1    1    2    0    0 -0.16540465703E-02 -0.35254375522E-02 -0.23311349343E-02  0.45385867924E-02  0.00000000000E+00 0.  1.
</event>
<event>
 5   0  0.4143600E+04  0.9118800E+02  0.7546771E-02  0.1180000E+00
      -11   -1    0    0    0    0  0.00000000000E+00  0.00000000000E+00  0.34996269501E-01  0.35000000000E-01  0.51099999109E-03 0. -1.
       11   -1    0    0    0    0 -0.00000000000E+00 -0.00000000000E+00 -0.34996269501E-01  0.35000000000E-01  0.51099999109E-03 0.  1.
       22    1    1    2    0    0  0.99304209566E-02  0.10101688696E-01 -0.31751582735E-01  0.34768094297E-01  0.00000000000E+00 0.  1.
       22    1    1    2    0    0 -0.20351275606E-03 -0.56029843197E-03  0.65992983029E-02  0.66261670568E-02  0.00000000000E+00 0. -1.
       22    1    1    2    0    0 -0.97269082005E-02 -0.95413902637E-02  0.25152284432E-01  0.28605738646E-01  0.00000000000E+00 0. -1.
</event>
<event>
 5   0  0.4143600E+04  0.9118800E+02  0.7546771E-02  0.1180000E+00
      -11   -1    0    0    0    0  0.00000000000E+00  0.00000000000E+00  0.34996269501E-01  0.35000000000E-01  0.51099999109E-03 0.  1.
       11   -1    0    0    0    0 -0.00000000000E+00 -0.00000000000E+00 -0.34996269501E-01  0.35000000000E-01  0.51099999109E-03 0. -1.
       22    1    1    2    0    0 -0.15801707532E-01 -0.11098940692E-01  0.10523355074E-01  0.21991394849E-01  0.00000000000E+00 0.  1.
       22    1    1    2    0    0  0.15984650639E-01  0.10066209433E-01 -0.26198400587E-01  0.32298511138E-01  0.00000000000E+00 0. -1.
       22    1    1    2    0    0 -0.18294310758E-03  0.10327312591E-02  0.15675045513E-01  0.15710094013E-01  0.00000000000E+00 0.  1.
</event>
<event>
 5   0  0.4143600E+04  0.9118800E+02  0.7546771E-02  0.1180000E+00
      -11   -1    0    0    0    0  0.00000000000E+00  0.00000000000E+00  0.34996269501E-01  0.35000000000E-01  0.51099999109E-03 0. -1.
       11   -1    0    0    0    0 -0.00000000000E+00 -0.00000000000E+00 -0.34996269501E-01  0.35000000000E-01  0.51099999109E-03 0.  1.
       22    1    1    2    0    0 -0.60377132485E-05  0.33879503451E-03  0.18516460122E-02  0.18823951455E-02  0.00000000000E+00 0. -1.
       22    1    1    2    0    0 -0.11831410978E-01 -0.14450772304E-01 -0.29488406381E-01  0.34905203291E-01  0.00000000000E+00 0.  1.
       22    1    1    2    0    0  0.11837448691E-01  0.14111977269E-01  0.27636760368E-01  0.33212401564E-01  0.00000000000E+00 0. -1.
</event>
<event>
 5   0  0.4143600E+04  0.9118800E+02  0.7546771E-02  0.1180000E+00
      -11   -1    0    0    0    0  0.00000000000E+00  0.00000000000E+00  0.34996269501E-01  0.35000000000E-01  0.51099999109E-03 0. -1.
       11   -1    0    0    0    0 -0.00000000000E+00 -0.00000000000E+00 -0.34996269501E-01  0.35000000000E-01  0.51099999109E-03 0.  1.
       22    1    1    2    0    0  0.00000000000E+00 -0.00000000000E+00  0.34895428713E-01  0.34892738381E-01  0.00000000000E+00 0. -1.
       22    1    1    2    0    0 -0.50299786551E-03  0.59685215182E-04 -0.51239930917E-03  0.72050137380E-03  0.00000000000E+00 0. -1.
       22    1    1    2    0    0  0.50299786551E-03 -0.59685215182E-04 -0.34383029404E-01  0.34386760246E-01  0.00000000000E+00 0.  1.
</event>
<event>
 5   0  0.4143600E+04  0.9118800E+02  0.7546771E-02  0.1180000E+00
      -11   -1    0    0    0    0  0.00000000000E+00  0.00000000000E+00  0.34996269501E-01  0.35000000000E-01  0.51099999109E-03 0.  1.
       11   -1    0    0    0    0 -0.00000000000E+00 -0.00000000000E+00 -0.34996269501E-01  0.35000000000E-01  0.51099999109E-03 0. -1.
       22    1    1    2    0    0  0.16333984111E-01  0.48580107069E-02 -0.30503631362E-01  0.34940962083E-01  0.00000000000E+00 0. -1.
       22    1    1    2    0    0 -0.16164173683E-01 -0.43668486058E-02  0.29834495011E-01  0.34211795775E-01  0.00000000000E+00 0.  1.
       22    1    1    2    0    0 -0.16981042835E-03 -0.49116210106E-03  0.66913635117E-03  0.84724214222E-03  0.00000000000E+00 0. -1.
</event>
<event>
 5   0  0.4143600E+04  0.9118800E+02  0.7546771E-02  0.1180000E+00
      -11   -1    0    0    0    0  0.00000000000E+00  0.00000000000E+00  0.34996269501E-01  0.35000000000E-01  0.51099999109E-03 0.  1.
       11   -1    0    0    0    0 -0.00000000000E+00 -0.00000000000E+00 -0.34996269501E-01  0.35000000000E-01  0.51099999109E-03 0. -1.
       22    1    1    2    0    0  0.10401863554E-01 -0.16888651603E-01 -0.28423830236E-01  0.34660343963E-01  0.00000000000E+00 0. -1.
       22    1    1    2    0    0 -0.10493117653E-01  0.16987632607E-01  0.25380103094E-01  0.32292952989E-01  0.00000000000E+00 0.  1.
       22    1    1    2    0    0  0.91254098779E-04 -0.98981004657E-04  0.30437271422E-02  0.30467030485E-02  0.00000000000E+00 0.  1.
</event>
<event>
 5   0  0.4143600E+04  0.9118800E+02  0.7546771E-02  0.1180000E+00
      -11   -1    0    0    0    0  0.00000000000E+00  0.00000000000E+00  0.34996269501E-01  0.35000000000E-01  0.51099999109E-03 0.  1.
       11   -1    0    0    0    0 -0.00000000000E+00 -0.00000000000E+00 -0.34996269501E-01  0.35000000000E-01  0.51099999109E-03 0. -1.
       22    1    1    2    0    0 -0.61844994838E-02 -0.24109933884E-02 -0.30135953379E-01  0.30858331275E-01  0.00000000000E+00 0. -1.
       22    1    1    2    0    0  0.72422578837E-02  0.43380051943E-02  0.33816667716E-01  0.34854491873E-01  0.00000000000E+00 0.  1.
       22    1    1    2    0    0 -0.10577583999E-02 -0.19270118059E-02 -0.36807143369E-02  0.42871768523E-02  0.00000000000E+00 0.  1.
</event>
<event>
 5   0  0.4143600E+04  0.9118800E+02  0.7546771E-02  0.1180000E+00
      -11   -1    0    0    0    0  0.00000000000E+00  0.00000000000E+00  0.34996269501E-01  0.35000000000E-01  0.51099999109E-03 0. -1.
       11   -1    0    0    0    0 -0.00000000000E+00 -0.00000000000E+00 -0.34996269501E-01  0.35000000000E-01  0.51099999109E-03 0.  1.
       22    1    1    2    0    0 -0.10876741047E-01 -0.12932401563E-01  0.29305316626E-01  0.33828273508E-01  0.00000000000E+00 0. -1.
       22    1    1    2    0    0 -0.21018851139E-02  0.71610560530E-03 -0.46569880232E-03  0.22688331020E-02  0.00000000000E+00 0.  1.
       22    1    1    2    0    0  0.12978626161E-01  0.12216295958E-01 -0.28839617824E-01  0.33902893390E-01  0.00000000000E+00 0.  1.
</event>
<event>
 5   0  0.4143600E+04  0.9118800E+02  0.7546771E-02  0.1180000E+00
      -11   -1    0    0    0    0  0.00000000000E+00  0.00000000000E+00  0.34996269501E-01  0.35000000000E-01  0.51099999109E-03 0.  1.
       11   -1    0    0    0    0 -0.00000000000E+00 -0.00000000000E+00 -0.34996269501E-01  0.35000000000E-01  0.51099999109E-03 0. -1.
       22    1    1    2    0    0  0.45870080887E-02 -0.59667480715E-03  0.34438823175E-01  0.34748082043E-01  0.00000000000E+00 0.  1.
       22    1    1    2    0    0 -0.32384741228E-02  0.26221815446E-02 -0.28943838041E-01  0.29242252157E-01  0.00000000000E+00 0. -1.
       22    1    1    2    0    0 -0.13485339659E-02 -0.20255067375E-02 -0.54949851336E-02  0.60096657993E-02  0.00000000000E+00 0.  1.
</event>
<event>
 5   0  0.4143600E+04  0.9118800E+02  0.7546771E-02  0.1180000E+00
      -11   -1    0    0    0    0  0.00000000000E+00  0.00000000000E+00  0.34996269501E-01  0.35000000000E-01  0.51099999109E-03 0.  1.
       11   -1    0    0    0    0 -0.00000000000E+00 -0.00000000000E+00 -0.34996269501E-01  0.35000000000E-01  0.51099999109E-03 0. -1.
       22    1    1    2    0    0 -0.18296209735E-04  0.92942176540E-05  0.50247332934E-03  0.50289221556E-03  0.00000000000E+00 0. -1.
       22    1    1    2    0    0  0.16001784730E-01  0.16114087938E-01  0.26051921246E-01  0.34560433233E-01  0.00000000000E+00 0.  1.
       22    1    1    2    0    0 -0.15983488520E-01 -0.16123382156E-01 -0.26554394576E-01  0.34936674551E-01  0.00000000000E+00 0. -1.
</event>
<event>
 5   0  0.4143600E+04  0.9118800E+02  0.7546771E-02  0.1180000E+00
      -11   -1    0    0    0    0  0.00000000000E+00  0.00000000000E+00  0.34996269501E-01  0.35000000000E-01  0.51099999109E-03 0.  1.
       11   -1    0    0    0    0 -0.00000000000E+00 -0.00000000000E+00 -0.34996269501E-01  0.35000000000E-01  0.51099999109E-03 0. -1.
       22    1    1    2    0    0 -0.37052060789E-02  0.24730416659E-02  0.34345445955E-01  0.34633136517E-01  0.00000000000E+00 0.  1.
       22    1    1    2    0    0 -0.98743548602E-03 -0.22628280382E-02 -0.43160279563E-02  0.49722748203E-02  0.00000000000E+00 0.  1.
       22    1    1    2    0    0  0.46926415649E-02 -0.21021362771E-03 -0.30029417999E-01  0.30394588663E-01  0.00000000000E+00 0. -1.
</event>
<event>
 5   0  0.4143600E+04  0.9118800E+02  0.7546771E-02  0.1180000E+00
      -11   -1    0    0    0    0  0.00000000000E+00  0.00000000000E+00  0.34996269501E-01  0.35000000000E-01  0.51099999109E-03 0.  1.
       11   -1    0    0    0    0 -0.00000000000E+00 -0.00000000000E+00 -0.34996269501E-01  0.35000000000E-01  0.51099999109E-03 0. -1.
       22    1    1    2    0    0  0.18354544018E-01 -0.88894807203E-02 -0.26742484246E-01  0.33631423062E-01  0.00000000000E+00 0. -1.
       22    1    1    2    0    0  0.33647157883E-03  0.29454770447E-03 -0.14220346271E-02  0.14906890870E-02  0.00000000000E+00 0. -1.
       22    1    1    2    0    0 -0.18691015596E-01  0.85949330159E-02  0.28164518873E-01  0.34877887851E-01  0.00000000000E+00 0.  1.
</event>
<event>
 5   0  0.4143600E+04  0.9118800E+02  0.7546771E-02  0.1180000E+00
      -11   -1    0    0    0    0  0.00000000000E+00  0.00000000000E+00  0.34996269501E-01  0.35000000000E-01  0.51099999109E-03 0.  1.
       11   -1    0    0    0    0 -0.00000000000E+00 -0.00000000000E+00 -0.34996269501E-01  0.35000000000E-01  0.51099999109E-03 0. -1.
       22    1    1    2    0    0 -0.10662560731E-03 -0.53475345387E-03  0.36250713278E-02  0.36658522076E-02  0.00000000000E+00 0. -1.
       22    1    1    2    0    0  0.13693213135E-01  0.18892279893E-01 -0.25601785565E-01  0.34639193836E-01  0.00000000000E+00 0. -1.
       22    1    1    2    0    0 -0.13586587528E-01 -0.18357526439E-01  0.21976714237E-01  0.31694953956E-01  0.00000000000E+00 0.  1.
</event>
<event>
 5   0  0.4143600E+04  0.9118800E+02  0.7546771E-02  0.1180000E+00
      -11   -1    0    0    0    0  0.00000000000E+00  0.00000000000E+00  0.34996269501E-01  0.35000000000E-01  0.51099999109E-03 0.  1.
       11   -1    0    0    0    0 -0.00000000000E+00 -0.00000000000E+00 -0.34996269501E-01  0.35000000000E-01  0.51099999109E-03 0. -1.
       22    1    1    2    0    0 -0.78785496870E-03 -0.99082927012E-03  0.30458706851E-01  0.30485000921E-01  0.00000000000E+00 0.  1.
       22    1    1    2    0    0 -0.11815449303E-01 -0.21482100662E-02 -0.16971319992E-01  0.20790511081E-01  0.00000000000E+00 0. -1.
       22    1    1    2    0    0  0.12603304272E-01  0.31390393363E-02 -0.13487386859E-01  0.18724487999E-01  0.00000000000E+00 0.  1.
</event>
<event>
 5   0  0.4143600E+04  0.9118800E+02  0.7546771E-02  0.1180000E+00
      -11   -1    0    0    0    0  0.00000000000E+00  0.00000000000E+00  0.34996269501E-01  0.35000000000E-01  0.51099999109E-03 0.  1.
       11   -1    0    0    0    0 -0.00000000000E+00 -0.00000000000E+00 -0.34996269501E-01  0.35000000000E-01  0.51099999109E-03 0. -1.
       22    1    1    2    0    0 -0.20180188828E-04 -0.35652138302E-03  0.77659497939E-03  0.85475990698E-03  0.00000000000E+00 0. -1.
       22    1    1    2    0    0 -0.14462462206E-01 -0.20629970688E-02 -0.31704719004E-01  0.34908565956E-01  0.00000000000E+00 0. -1.
       22    1    1    2    0    0  0.14482642395E-01  0.24195184518E-02  0.30928124025E-01  0.34236674137E-01  0.00000000000E+00 0.  1.
</event>
<event>
 5   0  0.4143600E+04  0.9118800E+02  0.7546771E-02  0.1180000E+00
      -11   -1    0    0    0    0  0.00000000000E+00  0.00000000000E+00  0.34996269501E-01  0.35000000000E-01  0.51099999109E-03 0.  1.
       11   -1    0    0    0    0 -0.00000000000E+00 -0.00000000000E+00 -0.34996269501E-01  0.35000000000E-01  0.51099999109E-03 0. -1.
       22    1    1    2    0    0 -0.76482588117E-04 -0.18780084432E-03 -0.23744390768E-03  0.31224726213E-03  0.00000000000E+00 0.  1.
       22    1    1    2    0    0 -0.37130480992E-02  0.97561354458E-02  0.33385201866E-01  0.34979145339E-01  0.00000000000E+00 0.  1.
       22    1    1    2    0    0  0.37895306873E-02 -0.95683346014E-02 -0.33147757958E-01  0.34708607399E-01  0.00000000000E+00 0. -1.
</event>
<event>
 5   0  0.4143600E+04  0.9118800E+02  0.7546771E-02  0.1180000E+00
      -11   -1    0    0    0    0  0.00000000000E+00  0.00000000000E+00  0.34996269501E-01  0.35000000000E-01  0.51099999109E-03 0.  1.
       11   -1    0    0    0    0 -0.00000000000E+00 -0.00000000000E+00 -0.34996269501E-01  0.35000000000E-01  0.51099999109E-03 0.  1.
       22    1    1    2    0    0 -0.00000000000E+00  0.00000000000E+00  0.34427295324E-01  0.34425305759E-01  0.00000000000E+00 0.  1.
       22    1    1    2    0    0 -0.29911845674E-02  0.17940084831E-02 -0.60466154200E-02  0.69804877760E-02  0.00000000000E+00 0.  1.
       22    1    1    2    0    0  0.29911845674E-02 -0.17940084831E-02 -0.28380679904E-01  0.28594206465E-01  0.00000000000E+00 0. -1.
</event>
<event>
 5   0  0.4143600E+04  0.9118800E+02  0.7546771E-02  0.1180000E+00
      -11   -1    0    0    0    0  0.00000000000E+00  0.00000000000E+00  0.34996269501E-01  0.35000000000E-01  0.51099999109E-03 0. -1.
       11   -1    0    0    0    0 -0.00000000000E+00 -0.00000000000E+00 -0.34996269501E-01  0.35000000000E-01  0.51099999109E-03 0.  1.
       22    1    1    2    0    0 -0.35539710605E-02 -0.24874435488E-03  0.34504416140E-01  0.34687855472E-01  0.00000000000E+00 0. -1.
       22    1    1    2    0    0  0.31332364737E-02  0.19197765208E-02 -0.86214296403E-02  0.93718600999E-02  0.00000000000E+00 0.  1.
       22    1    1    2    0    0  0.42073458681E-03 -0.16710321659E-02 -0.25882986500E-01  0.25940284429E-01  0.00000000000E+00 0.  1.
</event>
<event>
 5   0  0.4143600E+04  0.9118800E+02  0.7546771E-02  0.1180000E+00
      -11   -1    0    0    0    0  0.00000000000E+00  0.00000000000E+00  0.34996269501E-01  0.35000000000E-01  0.51099999109E-03 0. -1.
       11   -1    0    0    0    0 -0.00000000000E+00 -0.00000000000E+00 -0.34996269501E-01  0.35000000000E-01  0.51099999109E-03 0.  1.
       22    1    1    2    0    0  0.13164488465E-01  0.56042857766E-02  0.31581397965E-01  0.34671262928E-01  0.00000000000E+00 0. -1.
       22    1    1    2    0    0  0.28553555146E-04 -0.34867830287E-04  0.33964870653E-03  0.34262561923E-03  0.00000000000E+00 0. -1.
       22    1    1    2    0    0 -0.13193042020E-01 -0.55694179463E-02 -0.31921046671E-01  0.34986111453E-01  0.00000000000E+00 0.  1.
</event>
<event>
 5   0  0.4143600E+04  0.9118800E+02  0.7546771E-02  0.1180000E+00
      -11   -1    0    0    0    0  0.00000000000E+00  0.00000000000E+00  0.34996269501E-01  0.35000000000E-01  0.51099999109E-03 0.  1.
       11   -1    0    0    0    0 -0.00000000000E+00 -0.00000000000E+00 -0.34996269501E-01  0.35000000000E-01  0.51099999109E-03 0. -1.
       22    1    1    2    0    0  0.10409381593E-01 -0.59581177981E-02 -0.20372603887E-01  0.23641010596E-01  0.00000000000E+00 0. -1.
       22    1    1    2    0    0  0.76187002561E-02 -0.11241633337E-01  0.16126997887E-01  0.21083144323E-01  0.00000000000E+00 0.  1.
       22    1    1    2    0    0 -0.18028081850E-01  0.17199751135E-01  0.42456059999E-02  0.25275845081E-01  0.00000000000E+00 0.  1.
</event>
<event>
 5   0  0.4143600E+04  0.9118800E+02  0.7546771E-02  0.1180000E+00
      -11   -1    0    0    0    0  0.00000000000E+00  0.00000000000E+00  0.34996269501E-01  0.35000000000E-01  0.51099999109E-03 0. -1.
       11   -1    0    0    0    0 -0.00000000000E+00 -0.00000000000E+00 -0.34996269501E-01  0.35000000000E-01  0.51099999109E-03 0. -1.
       22    1    1    2    0    0 -0.24716307277E-03  0.82193544785E-04  0.22812479925E-01  0.22813966900E-01  0.00000000000E+00 0. -1.
       22    1    1    2    0    0 -0.11405986344E-01  0.58677889680E-02 -0.29734816973E-01  0.32383434226E-01  0.00000000000E+00 0. -1.
       22    1    1    2    0    0  0.11653149417E-01 -0.59499825128E-02  0.69223370475E-02  0.14802598874E-01  0.00000000000E+00 0.  1.
</event>
<event>
 5   0  0.4143600E+04  0.9118800E+02  0.7546771E-02  0.1180000E+00
      -11   -1    0    0    0    0  0.00000000000E+00  0.00000000000E+00  0.34996269501E-01  0.35000000000E-01  0.51099999109E-03 0.  1.
       11   -1    0    0    0    0 -0.00000000000E+00 -0.00000000000E+00 -0.34996269501E-01  0.35000000000E-01  0.51099999109E-03 0. -1.
       22    1    1    2    0    0 -0.74782298588E-03 -0.14062747948E-02 -0.17438578556E-02  0.23617553297E-02  0.00000000000E+00 0. -1.
       22    1    1    2    0    0  0.77626146247E-03  0.58911522609E-02  0.34281646759E-01  0.34792809046E-01  0.00000000000E+00 0.  1.
       22    1    1    2    0    0 -0.28438476585E-04 -0.44848774662E-02 -0.32537788903E-01  0.32845435624E-01  0.00000000000E+00 0. -1.
</event>
<event>
 5   0  0.4143600E+04  0.9118800E+02  0.7546771E-02  0.1180000E+00
      -11   -1    0    0    0    0  0.00000000000E+00  0.00000000000E+00  0.34996269501E-01  0.35000000000E-01  0.51099999109E-03 0. -1.
       11   -1    0    0    0    0 -0.00000000000E+00 -0.00000000000E+00 -0.34996269501E-01  0.35000000000E-01  0.51099999109E-03 0.  1.
       22    1    1    2    0    0  0.13322303677E-03  0.42396164924E-04  0.79958624900E-03  0.81171668821E-03  0.00000000000E+00 0. -1.
       22    1    1    2    0    0  0.21912988168E-01 -0.28058096310E-02 -0.26966765597E-01  0.34860551701E-01  0.00000000000E+00 0.  1.
       22    1    1    2    0    0 -0.22046211205E-01  0.27634134661E-02  0.26167179348E-01  0.34327731610E-01  0.00000000000E+00 0. -1.
</event>
<event>
 5   0  0.4143600E+04  0.9118800E+02  0.7546771E-02  0.1180000E+00
      -11   -1    0    0    0    0  0.00000000000E+00  0.00000000000E+00  0.34996269501E-01  0.35000000000E-01  0.51099999109E-03 0.  1.
       11   -1    0    0    0    0 -0.00000000000E+00 -0.00000000000E+00 -0.34996269501E-01  0.35000000000E-01  0.51099999109E-03 0. -1.
       22    1    1    2    0    0 -0.46650716252E-03  0.21123525521E-03 -0.90397280054E-03  0.10389495127E-02  0.00000000000E+00 0.  1.
       22    1    1    2    0    0 -0.54166074851E-02 -0.88382830674E-03 -0.33553044902E-01  0.33998935444E-01  0.00000000000E+00 0. -1.
       22    1    1    2    0    0  0.58831146476E-02  0.67259305153E-03  0.34457017702E-01  0.34962115044E-01  0.00000000000E+00 0.  1.
</event>
<event>
 5   0  0.4143600E+04  0.9118800E+02  0.7546771E-02  0.1180000E+00
      -11   -1    0    0    0    0  0.00000000000E+00  0.00000000000E+00  0.34996269501E-01  0.35000000000E-01  0.51099999109E-03 0.  1.
       11   -1    0    0    0    0 -0.00000000000E+00 -0.00000000000E+00 -0.34996269501E-01  0.35000000000E-01  0.51099999109E-03 0. -1.
       22    1    1    2    0    0  0.25870952012E-03  0.41745473114E-04  0.15938687105E-03  0.30672051609E-03  0.00000000000E+00 0.  1.
       22    1    1    2    0    0 -0.83776033105E-02 -0.11215622954E-01  0.31871989201E-01  0.34810890984E-01  0.00000000000E+00 0.  1.
       22    1    1    2    0    0  0.81188937904E-02  0.11173877481E-01 -0.32031376072E-01  0.34882388500E-01  0.00000000000E+00 0. -1.
</event>
<event>
 5   0  0.4143600E+04  0.9118800E+02  0.7546771E-02  0.1180000E+00
      -11   -1    0    0    0    0  0.00000000000E+00  0.00000000000E+00  0.34996269501E-01  0.35000000000E-01  0.51099999109E-03 0. -1.
       11   -1    0    0    0    0 -0.00000000000E+00 -0.00000000000E+00 -0.34996269501E-01  0.35000000000E-01  0.51099999109E-03 0.  1.
       22    1    1    2    0    0 -0.74653770554E-03 -0.19242610390E-01  0.28630890864E-01  0.34504540061E-01  0.00000000000E+00 0. -1.
       22    1    1    2    0    0  0.78225345047E-03  0.19246362178E-01 -0.29169528892E-01  0.34955626061E-01  0.00000000000E+00 0.  1.
       22    1    1    2    0    0 -0.35715744931E-04 -0.37517882587E-05  0.53863802805E-03  0.53983387779E-03  0.00000000000E+00 0.  1.
</event>
<event>
 5   0  0.4143600E+04  0.9118800E+02  0.7546771E-02  0.1180000E+00
      -11   -1    0    0    0    0  0.00000000000E+00  0.00000000000E+00  0.34996269501E-01  0.35000000000E-01  0.51099999109E-03 0. -1.
       11   -1    0    0    0    0 -0.00000000000E+00 -0.00000000000E+00 -0.34996269501E-01  0.35000000000E-01  0.51099999109E-03 0.  1.
       22    1    1    2    0    0 -0.21563230510E-01 -0.11636683914E-02 -0.27166419630E-01  0.34703622140E-01  0.00000000000E+00 0.  1.
       22    1    1    2    0    0  0.21432851207E-01  0.12555155620E-02  0.27522603858E-01  0.34906119138E-01  0.00000000000E+00 0. -1.
       22    1    1    2    0    0  0.13037930294E-03 -0.91847170560E-04 -0.35618422776E-03  0.39025872121E-03  0.00000000000E+00 0.  1.
</event>
<event>
 5   0  0.4143600E+04  0.9118800E+02  0.7546771E-02  0.1180000E+00
      -11   -1    0    0    0    0  0.00000000000E+00  0.00000000000E+00  0.34996269501E-01  0.35000000000E-01  0.51099999109E-03 0.  1.
       11   -1    0    0    0    0 -0.00000000000E+00 -0.00000000000E+00 -0.34996269501E-01  0.35000000000E-01  0.51099999109E-03 0. -1.
       22    1    1    2    0    0  0.13562072241E-03  0.35288916585E-04 -0.36565697047E-03  0.39159074049E-03  0.00000000000E+00 0. -1.
       22    1    1    2    0    0  0.96912664054E-03 -0.18868669713E-02  0.34921251055E-01  0.34985614882E-01  0.00000000000E+00 0.  1.
       22    1    1    2    0    0 -0.11047473630E-02  0.18515780547E-02 -0.34555594084E-01  0.34622794378E-01  0.00000000000E+00 0. -1.
</event>
<event>
 5   0  0.4143600E+04  0.9118800E+02  0.7546771E-02  0.1180000E+00
      -11   -1    0    0    0    0  0.00000000000E+00  0.00000000000E+00  0.34996269501E-01  0.35000000000E-01  0.51099999109E-03 0.  1.
       11   -1    0    0    0    0 -0.00000000000E+00 -0.00000000000E+00 -0.34996269501E-01  0.35000000000E-01  0.51099999109E-03 0. -1.
       22    1    1    2    0    0  0.11264744001E-01  0.58201839702E-02 -0.25070790718E-01  0.28094724524E-01  0.00000000000E+00 0. -1.
       22    1    1    2    0    0 -0.18320986496E-01 -0.34811085088E-02  0.28225461929E-01  0.33829770377E-01  0.00000000000E+00 0.  1.
       22    1    1    2    0    0  0.70562424946E-02 -0.23390754614E-02 -0.31546712106E-02  0.80755050990E-02  0.00000000000E+00 0. -1.
</event>
<event>
 5   0  0.4143600E+04  0.9118800E+02  0.7546771E-02  0.1180000E+00
      -11   -1    0    0    0    0  0.00000000000E+00  0.00000000000E+00  0.34996269501E-01  0.35000000000E-01  0.51099999109E-03 0. -1.
       11   -1    0    0    0    0 -0.00000000000E+00 -0.00000000000E+00 -0.34996269501E-01  0.35000000000E-01  0.51099999109E-03 0.  1.
       22    1    1    2    0    0 -0.15746993018E-01 -0.14120776706E-01 -0.27835785273E-01  0.34959906545E-01  0.00000000000E+00 0.  1.
       22    1    1    2    0    0  0.15735146825E-01  0.14124416841E-01  0.27428379179E-01  0.34632498915E-01  0.00000000000E+00 0. -1.
       22    1    1    2    0    0  0.11846192227E-04 -0.36401351306E-05  0.40740609421E-03  0.40759453929E-03  0.00000000000E+00 0. -1.
</event>
<event>
 5   0  0.4143600E+04  0.9118800E+02  0.7546771E-02  0.1180000E+00
      -11   -1    0    0    0    0  0.00000000000E+00  0.00000000000E+00  0.34996269501E-01  0.35000000000E-01  0.51099999109E-03 0. -1.
       11   -1    0    0    0    0 -0.00000000000E+00 -0.00000000000E+00 -0.34996269501E-01  0.35000000000E-01  0.51099999109E-03 0.  1.
       22    1    1    2    0    0  0.20488265925E-01  0.11783228214E-01 -0.25271639165E-01  0.34601578777E-01  0.00000000000E+00 0.  1.
       22    1    1    2    0    0  0.70799004560E-04 -0.50803023765E-05 -0.43340003023E-03  0.43917410525E-03  0.00000000000E+00 0. -1.
       22    1    1    2    0    0 -0.20559064930E-01 -0.11778147912E-01  0.25705039195E-01  0.34959247118E-01  0.00000000000E+00 0. -1.
</event>
<event>
 5   0  0.4143600E+04  0.9118800E+02  0.7546771E-02  0.1180000E+00
      -11   -1    0    0    0    0  0.00000000000E+00  0.00000000000E+00  0.34996269501E-01  0.35000000000E-01  0.51099999109E-03 0.  1.
       11   -1    0    0    0    0 -0.00000000000E+00 -0.00000000000E+00 -0.34996269501E-01  0.35000000000E-01  0.51099999109E-03 0. -1.
       22    1    1    2    0    0  0.20659396739E-03  0.25482448803E-03 -0.81750405819E-03  0.88086858964E-03  0.00000000000E+00 0.  1.
       22    1    1    2    0    0  0.51024193619E-02 -0.48614278791E-02 -0.33426404955E-01  0.34161275043E-01  0.00000000000E+00 0. -1.
       22    1    1    2    0    0 -0.53090133293E-02  0.46066033910E-02  0.34243909013E-01  0.34957856367E-01  0.00000000000E+00 0.  1.
</event>
<event>
 5   0  0.4143600E+04  0.9118800E+02  0.7546771E-02  0.1180000E+00
      -11   -1    0    0    0    0  0.00000000000E+00  0.00000000000E+00  0.34996269501E-01  0.35000000000E-01  0.51099999109E-03 0.  1.
       11   -1    0    0    0    0 -0.00000000000E+00 -0.00000000000E+00 -0.34996269501E-01  0.35000000000E-01  0.51099999109E-03 0. -1.
       22    1    1    2    0    0  0.10566904234E-01 -0.70352834517E-02  0.31334034549E-01  0.33807933972E-01  0.00000000000E+00 0.  1.
       22    1    1    2    0    0  0.77741777013E-04 -0.15232594944E-02 -0.14192771476E-01  0.14274492125E-01  0.00000000000E+00 0.  1.
       22    1    1    2    0    0 -0.10644646011E-01  0.85585429460E-02 -0.17141263073E-01  0.21917573903E-01  0.00000000000E+00 0. -1.
</event>
<event>
 5   0  0.4143600E+04  0.9118800E+02  0.7546771E-02  0.1180000E+00
      -11   -1    0    0    0    0  0.00000000000E+00  0.00000000000E+00  0.34996269501E-01  0.35000000000E-01  0.51099999109E-03 0.  1.
       11   -1    0    0    0    0 -0.00000000000E+00 -0.00000000000E+00 -0.34996269501E-01  0.35000000000E-01  0.51099999109E-03 0. -1.
       22    1    1    2    0    0 -0.20343503275E-01  0.10814944449E-01 -0.25877430439E-01  0.34647691916E-01  0.00000000000E+00 0. -1.
       22    1    1    2    0    0 -0.41962207963E-03 -0.73821919967E-03  0.29757388752E-03  0.89977802541E-03  0.00000000000E+00 0.  1.
       22    1    1    2    0    0  0.20763125355E-01 -0.10076725249E-01  0.25579856552E-01  0.34452530059E-01  0.00000000000E+00 0.  1.
</event>
<event>
 5   0  0.4143600E+04  0.9118800E+02  0.7546771E-02  0.1180000E+00
      -11   -1    0    0    0    0  0.00000000000E+00  0.00000000000E+00  0.34996269501E-01  0.35000000000E-01  0.51099999109E-03 0.  1.
       11   -1    0    0    0    0 -0.00000000000E+00 -0.00000000000E+00 -0.34996269501E-01  0.35000000000E-01  0.51099999109E-03 0. -1.
       22    1    1    2    0    0  0.20678039127E-02 -0.16774647114E-01  0.30035901238E-01  0.34464764065E-01  0.00000000000E+00 0.  1.
       22    1    1    2    0    0  0.91133799628E-03  0.67490716296E-02 -0.51420100284E-02  0.85335087706E-02  0.00000000000E+00 0. -1.
       22    1    1    2    0    0 -0.29791419090E-02  0.10025575485E-01 -0.24893891210E-01  0.27001727165E-01  0.00000000000E+00 0. -1.
</event>
<event>
 5   0  0.4143600E+04  0.9118800E+02  0.7546771E-02  0.1180000E+00
      -11   -1    0    0    0    0  0.00000000000E+00  0.00000000000E+00  0.34996269501E-01  0.35000000000E-01  0.51099999109E-03 0. -1.
       11   -1    0    0    0    0 -0.00000000000E+00 -0.00000000000E+00 -0.34996269501E-01  0.35000000000E-01  0.51099999109E-03 0.  1.
       22    1    1    2    0    0 -0.11536386360E-01 -0.17223057351E-01 -0.28122944794E-01  0.34937400285E-01  0.00000000000E+00 0.  1.
       22    1    1    2    0    0  0.11548092853E-01  0.17237472205E-01  0.27548255549E-01  0.34487610534E-01  0.00000000000E+00 0. -1.
       22    1    1    2    0    0 -0.11706493192E-04 -0.14414854297E-04  0.57468924558E-03  0.57498918163E-03  0.00000000000E+00 0. -1.
</event>
<event>
 5   0  0.4143600E+04  0.9118800E+02  0.7546771E-02  0.1180000E+00
      -11   -1    0    0    0    0  0.00000000000E+00  0.00000000000E+00  0.34996269501E-01  0.35000000000E-01  0.51099999109E-03 0.  1.
       11   -1    0    0    0    0 -0.00000000000E+00 -0.00000000000E+00 -0.34996269501E-01  0.35000000000E-01  0.51099999109E-03 0. -1.
       22    1    1    2    0    0 -0.22505673477E-01 -0.38977119958E-02  0.26154959073E-01  0.34724334141E-01  0.00000000000E+00 0.  1.
       22    1    1    2    0    0  0.22798279570E-01  0.36421314104E-02 -0.24875101112E-01  0.33938139723E-01  0.00000000000E+00 0. -1.
       22    1    1    2    0    0 -0.29260609334E-03  0.25558058536E-03 -0.12798579613E-02  0.13375261353E-02  0.00000000000E+00 0.  1.
</event>
<event>
 5   0  0.4143600E+04  0.9118800E+02  0.7546771E-02  0.1180000E+00
      -11   -1    0    0    0    0  0.00000000000E+00  0.00000000000E+00  0.34996269501E-01  0.35000000000E-01  0.51099999109E-03 0. -1.
       11   -1    0    0    0    0 -0.00000000000E+00 -0.00000000000E+00 -0.34996269501E-01  0.35000000000E-01  0.51099999109E-03 0.  1.
       22    1    1    2    0    0  0.25126313062E-03 -0.43713008346E-03  0.12047156074E-02  0.13059692053E-02  0.00000000000E+00 0.  1.
       22    1    1    2    0    0 -0.12629888417E-01 -0.11175181509E-01 -0.30491563173E-01  0.34844428362E-01  0.00000000000E+00 0.  1.
       22    1    1    2    0    0  0.12378625286E-01  0.11612311593E-01  0.29286847565E-01  0.33849602432E-01  0.00000000000E+00 0. -1.
</event>
<event>
 5   0  0.4143600E+04  0.9118800E+02  0.7546771E-02  0.1180000E+00
      -11   -1    0    0    0    0  0.00000000000E+00  0.00000000000E+00  0.34996269501E-01  0.35000000000E-01  0.51099999109E-03 0. -1.
       11   -1    0    0    0    0 -0.00000000000E+00 -0.00000000000E+00 -0.34996269501E-01  0.35000000000E-01  0.51099999109E-03 0.  1.
       22    1    1    2    0    0  0.37555154823E-04  0.13603953139E-01 -0.30997217874E-01  0.33851092558E-01  0.00000000000E+00 0.  1.
       22    1    1    2    0    0  0.93866096086E-04  0.21188990454E-04 -0.11913044872E-02  0.11951845877E-02  0.00000000000E+00 0. -1.
       22    1    1    2    0    0 -0.13142125091E-03 -0.13625142130E-01  0.32188522361E-01  0.34953722855E-01  0.00000000000E+00 0. -1.
</event>
<event>
 5   0  0.4143600E+04  0.9118800E+02  0.7546771E-02  0.1180000E+00
      -11   -1    0    0    0    0  0.00000000000E+00  0.00000000000E+00  0.34996269501E-01  0.35000000000E-01  0.51099999109E-03 0.  1.
       11   -1    0    0    0    0 -0.00000000000E+00 -0.00000000000E+00 -0.34996269501E-01  0.35000000000E-01  0.51099999109E-03 0. -1.
       22    1    1    2    0    0  0.47155530757E-02  0.22088116982E-01 -0.23778098643E-01  0.32795111338E-01  0.00000000000E+00 0. -1.
       22    1    1    2    0    0 -0.57552437600E-02 -0.22641493858E-01  0.25837190347E-01  0.34832750105E-01  0.00000000000E+00 0.  1.
       22    1    1    2    0    0  0.10396906843E-02  0.55337687685E-03 -0.20590917038E-02  0.23721385566E-02  0.00000000000E+00 0.  1.
</event>
<event>
 5   0  0.4143600E+04  0.9118800E+02  0.7546771E-02  0.1180000E+00
      -11   -1    0    0    0    0  0.00000000000E+00  0.00000000000E+00  0.34996269501E-01  0.35000000000E-01  0.51099999109E-03 0. -1.
       11   -1    0    0    0    0 -0.00000000000E+00 -0.00000000000E+00 -0.34996269501E-01  0.35000000000E-01  0.51099999109E-03 0.  1.
       22    1    1    2    0    0  0.16459495408E-02 -0.30315766044E-03  0.34314252005E-01  0.34355042499E-01  0.00000000000E+00 0. -1.
       22    1    1    2    0    0 -0.40234496509E-02  0.24571632438E-02 -0.93087122898E-02  0.10434458433E-01  0.00000000000E+00 0.  1.
       22    1    1    2    0    0  0.23775001101E-02 -0.21540055833E-02 -0.25005539715E-01  0.25210499068E-01  0.00000000000E+00 0. -1.
</event>
<event>
 5   0  0.4143600E+04  0.9118800E+02  0.7546771E-02  0.1180000E+00
      -11   -1    0    0    0    0  0.00000000000E+00  0.00000000000E+00  0.34996269501E-01  0.35000000000E-01  0.51099999109E-03 0.  1.
       11   -1    0    0    0    0 -0.00000000000E+00 -0.00000000000E+00 -0.34996269501E-01  0.35000000000E-01  0.51099999109E-03 0. -1.
       22    1    1    2    0    0  0.27342398177E-01 -0.87047235467E-02  0.18599247167E-01  0.34195188920E-01  0.00000000000E+00 0.  1.
       22    1    1    2    0    0 -0.26764928153E-01  0.10246024312E-01 -0.16278193181E-01  0.32959398758E-01  0.00000000000E+00 0. -1.
       22    1    1    2    0    0 -0.57747002379E-03 -0.15413007652E-02 -0.23210539865E-02  0.28454123226E-02  0.00000000000E+00 0. -1.
</event>
<event>
 5   0  0.4143600E+04  0.9118800E+02  0.7546771E-02  0.1180000E+00
      -11   -1    0    0    0    0  0.00000000000E+00  0.00000000000E+00  0.34996269501E-01  0.35000000000E-01  0.51099999109E-03 0. -1.
       11   -1    0    0    0    0 -0.00000000000E+00 -0.00000000000E+00 -0.34996269501E-01  0.35000000000E-01  0.51099999109E-03 0.  1.
       22    1    1    2    0    0  0.12474715911E-01  0.15609780605E-01 -0.25668025099E-01  0.32528930202E-01  0.00000000000E+00 0.  1.
       22    1    1    2    0    0 -0.11950309155E-01 -0.16019683115E-01  0.28361801364E-01  0.34696280963E-01  0.00000000000E+00 0. -1.
       22    1    1    2    0    0 -0.52440675640E-03  0.40990251048E-03 -0.26937762655E-02  0.27747888357E-02  0.00000000000E+00 0.  1.
</event>
<event>
 5   0  0.4143600E+04  0.9118800E+02  0.7546771E-02  0.1180000E+00
      -11   -1    0    0    0    0  0.00000000000E+00  0.00000000000E+00  0.34996269501E-01  0.35000000000E-01  0.51099999109E-03 0. -1.
       11   -1    0    0    0    0 -0.00000000000E+00 -0.00000000000E+00 -0.34996269501E-01  0.35000000000E-01  0.51099999109E-03 0.  1.
       22    1    1    2    0    0 -0.77262687218E-02 -0.11908080893E-01 -0.27649874548E-01  0.31080752588E-01  0.00000000000E+00 0.  1.
       22    1    1    2    0    0  0.51895548408E-02  0.12328770915E-01  0.31538157679E-01  0.34257633624E-01  0.00000000000E+00 0. -1.
       22    1    1    2    0    0  0.25367138810E-02 -0.42069002160E-03 -0.38882831313E-02  0.46616137889E-02  0.00000000000E+00 0.  1.
</event>
<event>
 5   0  0.4143600E+04  0.9118800E+02  0.7546771E-02  0.1180000E+00
      -11   -1    0    0    0    0  0.00000000000E+00  0.00000000000E+00  0.34996269501E-01  0.35000000000E-01  0.51099999109E-03 0. -1.
       11   -1    0    0    0    0 -0.00000000000E+00 -0.00000000000E+00 -0.34996269501E-01  0.35000000000E-01  0.51099999109E-03 0.  1.
       22    1    1    2    0    0  0.17724069635E-01 -0.10797939978E-01  0.27808244046E-01  0.34699230382E-01  0.00000000000E+00 0. -1.
       22    1    1    2    0    0 -0.17683089118E-01  0.10840846602E-01 -0.28143105691E-01  0.34960692123E-01  0.00000000000E+00 0.  1.
       22    1    1    2    0    0 -0.40980517213E-04 -0.42906624600E-04  0.33486164487E-03  0.34007749474E-03  0.00000000000E+00 0. -1.
</event>
<event>
 5   0  0.4143600E+04  0.9118800E+02  0.7546771E-02  0.1180000E+00
      -11   -1    0    0    0    0  0.00000000000E+00  0.00000000000E+00  0.34996269501E-01  0.35000000000E-01  0.51099999109E-03 0.  1.
       11   -1    0    0    0    0 -0.00000000000E+00 -0.00000000000E+00 -0.34996269501E-01  0.35000000000E-01  0.51099999109E-03 0. -1.
       22    1    1    2    0    0  0.20435954461E-01  0.66964116453E-02  0.27280505776E-01  0.34737532426E-01  0.00000000000E+00 0.  1.
       22    1    1    2    0    0 -0.37473763262E-04  0.47230492169E-03 -0.27860281727E-04  0.47460764563E-03  0.00000000000E+00 0. -1.
       22    1    1    2    0    0 -0.20398480697E-01 -0.71687165670E-02 -0.27252645494E-01  0.34787859929E-01  0.00000000000E+00 0. -1.
</event>
<event>
 5   0  0.4143600E+04  0.9118800E+02  0.7546771E-02  0.1180000E+00
      -11   -1    0    0    0    0  0.00000000000E+00  0.00000000000E+00  0.34996269501E-01  0.35000000000E-01  0.51099999109E-03 0.  1.
       11   -1    0    0    0    0 -0.00000000000E+00 -0.00000000000E+00 -0.34996269501E-01  0.35000000000E-01  0.51099999109E-03 0. -1.
       22    1    1    2    0    0  0.70856974826E-02  0.14327641337E-01  0.29484671049E-01  0.33538548597E-01  0.00000000000E+00 0.  1.
       22    1    1    2    0    0 -0.71097741219E-02 -0.14342472632E-01 -0.31030009339E-01  0.34915854405E-01  0.00000000000E+00 0. -1.
       22    1    1    2    0    0  0.24076639347E-04  0.14831294998E-04  0.15453382898E-02  0.15455969985E-02  0.00000000000E+00 0. -1.
</event>
<event>
 5   0  0.4143600E+04  0.9118800E+02  0.7546771E-02  0.1180000E+00
      -11   -1    0    0    0    0  0.00000000000E+00  0.00000000000E+00  0.34996269501E-01  0.35000000000E-01  0.51099999109E-03 0. -1.
       11   -1    0    0    0    0 -0.00000000000E+00 -0.00000000000E+00 -0.34996269501E-01  0.35000000000E-01  0.51099999109E-03 0.  1.
       22    1    1    2    0    0 -0.33232398350E-04 -0.74846329034E-04 -0.80676545405E-03  0.81091113145E-03  0.00000000000E+00 0.  1.
       22    1    1    2    0    0 -0.18241391233E-01  0.81682540472E-02  0.28639198264E-01  0.34923808577E-01  0.00000000000E+00 0. -1.
       22    1    1    2    0    0  0.18274623631E-01 -0.80934077181E-02 -0.27832432810E-01  0.34265280292E-01  0.00000000000E+00 0.  1.
</event>
<event>
 5   0  0.4143600E+04  0.9118800E+02  0.7546771E-02  0.1180000E+00
      -11   -1    0    0    0    0  0.00000000000E+00  0.00000000000E+00  0.34996269501E-01  0.35000000000E-01  0.51099999109E-03 0. -1.
       11   -1    0    0    0    0 -0.00000000000E+00 -0.00000000000E+00 -0.34996269501E-01  0.35000000000E-01  0.51099999109E-03 0. -1.
       22    1    1    2    0    0  0.24244754456E-04 -0.14627741232E-02 -0.26360995961E-02  0.30148494198E-02  0.00000000000E+00 0.  1.
       22    1    1    2    0    0 -0.10830467110E-03  0.13203458810E-02 -0.32160691998E-01  0.32187965965E-01  0.00000000000E+00 0. -1.
       22    1    1    2    0    0  0.84059916640E-04  0.14242824218E-03  0.34796791594E-01  0.34797184615E-01  0.00000000000E+00 0. -1.
</event>
<event>
 5   0  0.4143600E+04  0.9118800E+02  0.7546771E-02  0.1180000E+00
      -11   -1    0    0    0    0  0.00000000000E+00  0.00000000000E+00  0.34996269501E-01  0.35000000000E-01  0.51099999109E-03 0.  1.
       11   -1    0    0    0    0 -0.00000000000E+00 -0.00000000000E+00 -0.34996269501E-01  0.35000000000E-01  0.51099999109E-03 0. -1.
       22    1    1    2    0    0  0.63958779157E-03  0.29532400718E-02 -0.28439277669E-01  0.28599356877E-01  0.00000000000E+00 0. -1.
       22    1    1    2    0    0 -0.18122568325E-02 -0.86601345261E-03  0.34668791346E-01  0.34726925397E-01  0.00000000000E+00 0.  1.
       22    1    1    2    0    0  0.11726690409E-02 -0.20872266192E-02 -0.62295136768E-02  0.66737177262E-02  0.00000000000E+00 0. -1.
</event>
<event>
 5   0  0.4143600E+04  0.9118800E+02  0.7546771E-02  0.1180000E+00
      -11   -1    0    0    0    0  0.00000000000E+00  0.00000000000E+00  0.34996269501E-01  0.35000000000E-01  0.51099999109E-03 0.  1.
       11   -1    0    0    0    0 -0.00000000000E+00 -0.00000000000E+00 -0.34996269501E-01  0.35000000000E-01  0.51099999109E-03 0. -1.
       22    1    1    2    0    0 -0.60800326528E-02  0.82254511150E-02  0.33267176157E-01  0.34804164299E-01  0.00000000000E+00 0.  1.
       22    1    1    2    0    0  0.18663314279E-02 -0.16140617276E-02 -0.27816195446E-02  0.37183054675E-02  0.00000000000E+00 0.  1.
       22    1    1    2    0    0  0.42137012249E-02 -0.66113893873E-02 -0.30485556612E-01  0.31477530234E-01  0.00000000000E+00 0. -1.
</event>
<event>
 5   0  0.4143600E+04  0.9118800E+02  0.7546771E-02  0.1180000E+00
      -11   -1    0    0    0    0  0.00000000000E+00  0.00000000000E+00  0.34996269501E-01  0.35000000000E-01  0.51099999109E-03 0.  1.
       11   -1    0    0    0    0 -0.00000000000E+00 -0.00000000000E+00 -0.34996269501E-01  0.35000000000E-01  0.51099999109E-03 0. -1.
       22    1    1    2    0    0 -0.86706658834E-02  0.21561336379E-01 -0.25818613230E-01  0.34737191343E-01  0.00000000000E+00 0. -1.
       22    1    1    2    0    0  0.79126726703E-03  0.13928839461E-03  0.16736383407E-02  0.18564941261E-02  0.00000000000E+00 0. -1.
       22    1    1    2    0    0  0.78793986164E-02 -0.21700624773E-01  0.24144974890E-01  0.33406314531E-01  0.00000000000E+00 0.  1.
</event>
<event>
 5   0  0.4143600E+04  0.9118800E+02  0.7546771E-02  0.1180000E+00
      -11   -1    0    0    0    0  0.00000000000E+00  0.00000000000E+00  0.34996269501E-01  0.35000000000E-01  0.51099999109E-03 0.  1.
       11   -1    0    0    0    0 -0.00000000000E+00 -0.00000000000E+00 -0.34996269501E-01  0.35000000000E-01  0.51099999109E-03 0. -1.
       22    1    1    2    0    0 -0.14615424013E-01 -0.14567300210E-01 -0.28159903447E-01  0.34911273489E-01  0.00000000000E+00 0. -1.
       22    1    1    2    0    0  0.14280092585E-01  0.12960977366E-01  0.26207846549E-01  0.32538580166E-01  0.00000000000E+00 0.  1.
       22    1    1    2    0    0  0.33533142833E-03  0.16063228449E-02  0.19520568976E-02  0.25501463449E-02  0.00000000000E+00 0. -1.
</event>
<event>
 5   0  0.4143600E+04  0.9118800E+02  0.7546771E-02  0.1180000E+00
      -11   -1    0    0    0    0  0.00000000000E+00  0.00000000000E+00  0.34996269501E-01  0.35000000000E-01  0.51099999109E-03 0. -1.
       11   -1    0    0    0    0 -0.00000000000E+00 -0.00000000000E+00 -0.34996269501E-01  0.35000000000E-01  0.51099999109E-03 0. -1.
       22    1    1    2    0    0  0.44297134158E-03  0.33614593159E-03  0.34950067157E-01  0.34954490584E-01  0.00000000000E+00 0. -1.
       22    1    1    2    0    0 -0.86604961252E-03 -0.28945014730E-03 -0.33902150102E-01  0.33914445372E-01  0.00000000000E+00 0. -1.
       22    1    1    2    0    0  0.42307827094E-03 -0.46695784297E-04 -0.10479170546E-02  0.11310640446E-02  0.00000000000E+00 0.  1.
</event>
<event>
 5   0  0.4143600E+04  0.9118800E+02  0.7546771E-02  0.1180000E+00
      -11   -1    0    0    0    0  0.00000000000E+00  0.00000000000E+00  0.34996269501E-01  0.35000000000E-01  0.51099999109E-03 0. -1.
       11   -1    0    0    0    0 -0.00000000000E+00 -0.00000000000E+00 -0.34996269501E-01  0.35000000000E-01  0.51099999109E-03 0.  1.
       22    1    1    2    0    0 -0.20128481776E-03 -0.29602826101E-03  0.34064891531E-02  0.34252469487E-02  0.00000000000E+00 0. -1.
       22    1    1    2    0    0 -0.12908134023E-01 -0.10912817401E-01  0.26861575668E-01  0.31737261302E-01  0.00000000000E+00 0. -1.
       22    1    1    2    0    0  0.13109418840E-01  0.11208845662E-01 -0.30268064821E-01  0.34837491750E-01  0.00000000000E+00 0.  1.
</event>
<event>
 5   0  0.4143600E+04  0.9118800E+02  0.7546771E-02  0.1180000E+00
      -11   -1    0    0    0    0  0.00000000000E+00  0.00000000000E+00  0.34996269501E-01  0.35000000000E-01  0.51099999109E-03 0. -1.
       11   -1    0    0    0    0 -0.00000000000E+00 -0.00000000000E+00 -0.34996269501E-01  0.35000000000E-01  0.51099999109E-03 0.  1.
       22    1    1    2    0    0  0.43009321230E-02  0.14728266258E-01 -0.31129112943E-01  0.34705064713E-01  0.00000000000E+00 0.  1.
       22    1    1    2    0    0 -0.42928461881E-02 -0.14679981763E-01  0.31449177850E-01  0.34971147828E-01  0.00000000000E+00 0. -1.
       22    1    1    2    0    0 -0.80859349268E-05 -0.48284494246E-04 -0.32006490649E-03  0.32378745975E-03  0.00000000000E+00 0.  1.
</event>
<event>
 5   0  0.4143600E+04  0.9118800E+02  0.7546771E-02  0.1180000E+00
      -11   -1    0    0    0    0  0.00000000000E+00  0.00000000000E+00  0.34996269501E-01  0.35000000000E-01  0.51099999109E-03 0.  1.
       11   -1    0    0    0    0 -0.00000000000E+00 -0.00000000000E+00 -0.34996269501E-01  0.35000000000E-01  0.51099999109E-03 0. -1.
       22    1    1    2    0    0 -0.16165268336E-01 -0.11458805848E-01 -0.24361157379E-01  0.31402008227E-01  0.00000000000E+00 0. -1.
       22    1    1    2    0    0  0.15858153377E-01  0.10682300436E-01  0.28530946118E-01  0.34345413923E-01  0.00000000000E+00 0.  1.
       22    1    1    2    0    0  0.30711495822E-03  0.77650541213E-03 -0.41697887386E-02  0.42525778508E-02  0.00000000000E+00 0. -1.
</event>
<event>
 5   0  0.4143600E+04  0.9118800E+02  0.7546771E-02  0.1180000E+00
      -11   -1    0    0    0    0  0.00000000000E+00  0.00000000000E+00  0.34996269501E-01  0.35000000000E-01  0.51099999109E-03 0. -1.
       11   -1    0    0    0    0 -0.00000000000E+00 -0.00000000000E+00 -0.34996269501E-01  0.35000000000E-01  0.51099999109E-03 0.  1.
       22    1    1    2    0    0  0.64596281165E-02  0.93229635871E-02 -0.32542747693E-01  0.34462659109E-01  0.00000000000E+00 0.  1.
       22    1    1    2    0    0  0.98142550464E-03 -0.56196862834E-02  0.10023835488E-01  0.11533488104E-01  0.00000000000E+00 0. -1.
       22    1    1    2    0    0 -0.74410536212E-02 -0.37032773037E-02  0.22518912204E-01  0.24003852788E-01  0.00000000000E+00 0. -1.
</event>
<event>
 5   0  0.4143600E+04  0.9118800E+02  0.7546771E-02  0.1180000E+00
      -11   -1    0    0    0    0  0.00000000000E+00  0.00000000000E+00  0.34996269501E-01  0.35000000000E-01  0.51099999109E-03 0.  1.
       11   -1    0    0    0    0 -0.00000000000E+00 -0.00000000000E+00 -0.34996269501E-01  0.35000000000E-01  0.51099999109E-03 0. -1.
       22    1    1    2    0    0 -0.53517105949E-02 -0.56284252694E-02 -0.16998012662E-01  0.18688296117E-01  0.00000000000E+00 0. -1.
       22    1    1    2    0    0  0.54878156222E-02 -0.23553911415E-02  0.32942551266E-01  0.33479481353E-01  0.00000000000E+00 0.  1.
       22    1    1    2    0    0 -0.13610502734E-03  0.79838164109E-02 -0.15944538604E-01  0.17832222530E-01  0.00000000000E+00 0.  1.
</event>
<event>
 5   0  0.4143600E+04  0.9118800E+02  0.7546771E-02  0.1180000E+00
      -11   -1    0    0    0    0  0.00000000000E+00  0.00000000000E+00  0.34996269501E-01  0.35000000000E-01  0.51099999109E-03 0.  1.
       11   -1    0    0    0    0 -0.00000000000E+00 -0.00000000000E+00 -0.34996269501E-01  0.35000000000E-01  0.51099999109E-03 0. -1.
       22    1    1    2    0    0  0.60976099046E-02  0.54471026012E-02  0.33942955812E-01  0.34913837122E-01  0.00000000000E+00 0.  1.
       22    1    1    2    0    0  0.36973847761E-03 -0.42569374102E-04 -0.71635642310E-03  0.80727022635E-03  0.00000000000E+00 0.  1.
       22    1    1    2    0    0 -0.64673483822E-02 -0.54045332271E-02 -0.33226599389E-01  0.34278892652E-01  0.00000000000E+00 0. -1.
</event>
<event>
 5   0  0.4143600E+04  0.9118800E+02  0.7546771E-02  0.1180000E+00
      -11   -1    0    0    0    0  0.00000000000E+00  0.00000000000E+00  0.34996269501E-01  0.35000000000E-01  0.51099999109E-03 0.  1.
       11   -1    0    0    0    0 -0.00000000000E+00 -0.00000000000E+00 -0.34996269501E-01  0.35000000000E-01  0.51099999109E-03 0. -1.
       22    1    1    2    0    0  0.31252077815E-03 -0.21124066476E-04 -0.27002099330E-04  0.31439557301E-03  0.00000000000E+00 0. -1.
       22    1    1    2    0    0 -0.29657971859E-04 -0.13382395552E-01 -0.32151839086E-01  0.34825711003E-01  0.00000000000E+00 0. -1.
       22    1    1    2    0    0 -0.28286280629E-03  0.13403519618E-01  0.32178841185E-01  0.34859893424E-01  0.00000000000E+00 0.  1.
</event>
<event>
 5   0  0.4143600E+04  0.9118800E+02  0.7546771E-02  0.1180000E+00
      -11   -1    0    0    0    0  0.00000000000E+00  0.00000000000E+00  0.34996269501E-01  0.35000000000E-01  0.51099999109E-03 0.  1.
       11   -1    0    0    0    0 -0.00000000000E+00 -0.00000000000E+00 -0.34996269501E-01  0.35000000000E-01  0.51099999109E-03 0. -1.
       22    1    1    2    0    0 -0.10808788289E-01 -0.14770848996E-01  0.28799928037E-01  0.34123946713E-01  0.00000000000E+00 0.  1.
       22    1    1    2    0    0 -0.21396353164E-03 -0.23979153990E-03  0.82411748069E-03  0.88456203709E-03  0.00000000000E+00 0.  1.
       22    1    1    2    0    0  0.11022751821E-01  0.15010640536E-01 -0.29624045518E-01  0.34991491249E-01  0.00000000000E+00 0. -1.
</event>
<event>
 5   0  0.4143600E+04  0.9118800E+02  0.7546771E-02  0.1180000E+00
      -11   -1    0    0    0    0  0.00000000000E+00  0.00000000000E+00  0.34996269501E-01  0.35000000000E-01  0.51099999109E-03 0. -1.
       11   -1    0    0    0    0 -0.00000000000E+00 -0.00000000000E+00 -0.34996269501E-01  0.35000000000E-01  0.51099999109E-03 0.  1.
       22    1    1    2    0    0 -0.99282470446E-03 -0.42361510099E-03 -0.34227907748E-01  0.34244923995E-01  0.00000000000E+00 0.  1.
       22    1    1    2    0    0 -0.11454402339E-03 -0.51682389012E-03 -0.65486282492E-03  0.84206447862E-03  0.00000000000E+00 0. -1.
       22    1    1    2    0    0  0.11073687279E-02  0.94043899111E-03  0.34882770573E-01  0.34913011526E-01  0.00000000000E+00 0. -1.
</event>
<event>
 5   0  0.4143600E+04  0.9118800E+02  0.7546771E-02  0.1180000E+00
      -11   -1    0    0    0    0  0.00000000000E+00  0.00000000000E+00  0.34996269501E-01  0.35000000000E-01  0.51099999109E-03 0. -1.
       11   -1    0    0    0    0 -0.00000000000E+00 -0.00000000000E+00 -0.34996269501E-01  0.35000000000E-01  0.51099999109E-03 0.  1.
       22    1    1    2    0    0 -0.99438464894E-02 -0.19168810532E-01  0.25495833206E-01  0.33411987237E-01  0.00000000000E+00 0. -1.
       22    1    1    2    0    0 -0.89334697692E-04 -0.14930701193E-04  0.17702130691E-02  0.17725286807E-02  0.00000000000E+00 0.  1.
       22    1    1    2    0    0  0.10033181187E-01  0.19183741233E-01 -0.27266046275E-01  0.34815484083E-01  0.00000000000E+00 0.  1.
</event>
<event>
 5   0  0.4143600E+04  0.9118800E+02  0.7546771E-02  0.1180000E+00
      -11   -1    0    0    0    0  0.00000000000E+00  0.00000000000E+00  0.34996269501E-01  0.35000000000E-01  0.51099999109E-03 0. -1.
       11   -1    0    0    0    0 -0.00000000000E+00 -0.00000000000E+00 -0.34996269501E-01  0.35000000000E-01  0.51099999109E-03 0.  1.
       22    1    1    2    0    0 -0.18186306053E-03 -0.56252740434E-03 -0.67011645246E-03  0.89362593588E-03  0.00000000000E+00 0. -1.
       22    1    1    2    0    0 -0.71889027021E-03  0.13375553350E-01 -0.31628187612E-01  0.34347699810E-01  0.00000000000E+00 0.  1.
       22    1    1    2    0    0  0.90075333074E-03 -0.12813025945E-01  0.32298304065E-01  0.34758674254E-01  0.00000000000E+00 0. -1.
</event>
<event>
 5   0  0.4143600E+04  0.9118800E+02  0.7546771E-02  0.1180000E+00
      -11   -1    0    0    0    0  0.00000000000E+00  0.00000000000E+00  0.34996269501E-01  0.35000000000E-01  0.51099999109E-03 0.  1.
       11   -1    0    0    0    0 -0.00000000000E+00 -0.00000000000E+00 -0.34996269501E-01  0.35000000000E-01  0.51099999109E-03 0. -1.
       22    1    1    2    0    0  0.14746227518E-02 -0.33577323890E-02 -0.11460848729E-01  0.12033284367E-01  0.00000000000E+00 0. -1.
       22    1    1    2    0    0 -0.10958629597E-01  0.82520333851E-03  0.32738545724E-01  0.34533822542E-01  0.00000000000E+00 0.  1.
       22    1    1    2    0    0  0.94840068453E-02  0.25325290505E-02 -0.21277696995E-01  0.23432893092E-01  0.00000000000E+00 0. -1.
</event>
<event>
 5   0  0.4143600E+04  0.9118800E+02  0.7546771E-02  0.1180000E+00
      -11   -1    0    0    0    0  0.00000000000E+00  0.00000000000E+00  0.34996269501E-01  0.35000000000E-01  0.51099999109E-03 0. -1.
       11   -1    0    0    0    0 -0.00000000000E+00 -0.00000000000E+00 -0.34996269501E-01  0.35000000000E-01  0.51099999109E-03 0.  1.
       22    1    1    2    0    0 -0.62408540318E-04 -0.50571024456E-03  0.12139436124E-02  0.13165472917E-02  0.00000000000E+00 0. -1.
       22    1    1    2    0    0  0.25039564417E-03  0.12935537225E-01 -0.32520211255E-01  0.34999356585E-01  0.00000000000E+00 0.  1.
       22    1    1    2    0    0 -0.18798710385E-03 -0.12429826980E-01  0.31306267643E-01  0.33684096123E-01  0.00000000000E+00 0. -1.
</event>
<event>
 5   0  0.4143600E+04  0.9118800E+02  0.7546771E-02  0.1180000E+00
      -11   -1    0    0    0    0  0.00000000000E+00  0.00000000000E+00  0.34996269501E-01  0.35000000000E-01  0.51099999109E-03 0.  1.
       11   -1    0    0    0    0 -0.00000000000E+00 -0.00000000000E+00 -0.34996269501E-01  0.35000000000E-01  0.51099999109E-03 0. -1.
       22    1    1    2    0    0  0.14503290552E-02  0.13720993047E-02 -0.46283137681E-02  0.50405752853E-02  0.00000000000E+00 0. -1.
       22    1    1    2    0    0  0.14064348239E-02 -0.83819003629E-02 -0.29139464046E-01  0.30353627090E-01  0.00000000000E+00 0. -1.
       22    1    1    2    0    0 -0.28567638791E-02  0.70098010583E-02  0.33767777814E-01  0.34605797625E-01  0.00000000000E+00 0.  1.
</event>
<event>
 5   0  0.4143600E+04  0.9118800E+02  0.7546771E-02  0.1180000E+00
      -11   -1    0    0    0    0  0.00000000000E+00  0.00000000000E+00  0.34996269501E-01  0.35000000000E-01  0.51099999109E-03 0. -1.
       11   -1    0    0    0    0 -0.00000000000E+00 -0.00000000000E+00 -0.34996269501E-01  0.35000000000E-01  0.51099999109E-03 0.  1.
       22    1    1    2    0    0  0.18036681247E-02 -0.21151167138E-01 -0.25910690647E-01  0.33496103949E-01  0.00000000000E+00 0.  1.
       22    1    1    2    0    0 -0.97549106510E-03 -0.38348729212E-04  0.98611670516E-02  0.99093727886E-02  0.00000000000E+00 0.  1.
       22    1    1    2    0    0 -0.82817705965E-03  0.21189515867E-01  0.16049523595E-01  0.26594523262E-01  0.00000000000E+00 0. -1.
</event>
<event>
 5   0  0.4143600E+04  0.9118800E+02  0.7546771E-02  0.1180000E+00
      -11   -1    0    0    0    0  0.00000000000E+00  0.00000000000E+00  0.34996269501E-01  0.35000000000E-01  0.51099999109E-03 0.  1.
       11   -1    0    0    0    0 -0.00000000000E+00 -0.00000000000E+00 -0.34996269501E-01  0.35000000000E-01  0.51099999109E-03 0. -1.
       22    1    1    2    0    0 -0.21476931699E-03  0.18454786483E-03  0.27371179135E-01  0.27372643844E-01  0.00000000000E+00 0. -1.
       22    1    1    2    0    0 -0.13435284007E-01 -0.26783521108E-02 -0.25060040338E-01  0.28560217929E-01  0.00000000000E+00 0.  1.
       22    1    1    2    0    0  0.13650053324E-01  0.24938042460E-02 -0.23111387966E-02  0.14067138227E-01  0.00000000000E+00 0. -1.
</event>
<event>
 5   0  0.4143600E+04  0.9118800E+02  0.7546771E-02  0.1180000E+00
      -11   -1    0    0    0    0  0.00000000000E+00  0.00000000000E+00  0.34996269501E-01  0.35000000000E-01  0.51099999109E-03 0.  1.
       11   -1    0    0    0    0 -0.00000000000E+00 -0.00000000000E+00 -0.34996269501E-01  0.35000000000E-01  0.51099999109E-03 0. -1.
       22    1    1    2    0    0  0.15210697595E-02  0.39260615658E-02 -0.22139773164E-01  0.22536574016E-01  0.00000000000E+00 0. -1.
       22    1    1    2    0    0 -0.12533370908E-02  0.64924263449E-03  0.34371906802E-01  0.34400877127E-01  0.00000000000E+00 0.  1.
       22    1    1    2    0    0 -0.26773266866E-03 -0.45753042003E-02 -0.12232133638E-01  0.13062548857E-01  0.00000000000E+00 0.  1.
</event>
<event>
 5   0  0.4143600E+04  0.9118800E+02  0.7546771E-02  0.1180000E+00
      -11   -1    0    0    0    0  0.00000000000E+00  0.00000000000E+00  0.34996269501E-01  0.35000000000E-01  0.51099999109E-03 0.  1.
       11   -1    0    0    0    0 -0.00000000000E+00 -0.00000000000E+00 -0.34996269501E-01  0.35000000000E-01  0.51099999109E-03 0. -1.
       22    1    1    2    0    0 -0.71414998119E-02  0.11519981090E-01 -0.31965584703E-01  0.34720449151E-01  0.00000000000E+00 0. -1.
       22    1    1    2    0    0 -0.15582551925E-03  0.30022878368E-03 -0.84393256869E-04  0.34862750437E-03  0.00000000000E+00 0. -1.
       22    1    1    2    0    0  0.72973253312E-02 -0.11820209874E-01  0.32049977960E-01  0.34930923344E-01  0.00000000000E+00 0.  1.
</event>
<event>
 5   0  0.4143600E+04  0.9118800E+02  0.7546771E-02  0.1180000E+00
      -11   -1    0    0    0    0  0.00000000000E+00  0.00000000000E+00  0.34996269501E-01  0.35000000000E-01  0.51099999109E-03 0.  1.
       11   -1    0    0    0    0 -0.00000000000E+00 -0.00000000000E+00 -0.34996269501E-01  0.35000000000E-01  0.51099999109E-03 0. -1.
       22    1    1    2    0    0  0.17663665049E-03 -0.53174633298E-02 -0.21993904524E-03  0.53249403709E-02  0.00000000000E+00 0. -1.
       22    1    1    2    0    0 -0.14980329965E-01  0.10371157615E-01 -0.27416587010E-01  0.32918694376E-01  0.00000000000E+00 0. -1.
       22    1    1    2    0    0  0.14803693314E-01 -0.50536942856E-02  0.27636526055E-01  0.31756365253E-01  0.00000000000E+00 0.  1.
</event>
<event>
 5   0  0.4143600E+04  0.9118800E+02  0.7546771E-02  0.1180000E+00
      -11   -1    0    0    0    0  0.00000000000E+00  0.00000000000E+00  0.34996269501E-01  0.35000000000E-01  0.51099999109E-03 0.  1.
       11   -1    0    0    0    0 -0.00000000000E+00 -0.00000000000E+00 -0.34996269501E-01  0.35000000000E-01  0.51099999109E-03 0. -1.
       22    1    1    2    0    0  0.83907615441E-02  0.19239242232E-01 -0.26123764425E-01  0.33511257641E-01  0.00000000000E+00 0. -1.
       22    1    1    2    0    0 -0.30718314045E-04 -0.16295580799E-03  0.10376917224E-01  0.10378242109E-01  0.00000000000E+00 0.  1.
       22    1    1    2    0    0 -0.83600432301E-02 -0.19076286424E-01  0.15746847201E-01  0.26110500250E-01  0.00000000000E+00 0.  1.
</event>
<event>
 5   0  0.4143600E+04  0.9118800E+02  0.7546771E-02  0.1180000E+00
      -11   -1    0    0    0    0  0.00000000000E+00  0.00000000000E+00  0.34996269501E-01  0.35000000000E-01  0.51099999109E-03 0. -1.
       11   -1    0    0    0    0 -0.00000000000E+00 -0.00000000000E+00 -0.34996269501E-01  0.35000000000E-01  0.51099999109E-03 0.  1.
       22    1    1    2    0    0  0.12176417791E-03  0.21355201178E-03  0.65272596430E-02  0.65318871258E-02  0.00000000000E+00 0. -1.
       22    1    1    2    0    0 -0.11495631623E-01  0.12701050771E-01 -0.29890180629E-01  0.34451257381E-01  0.00000000000E+00 0.  1.
       22    1    1    2    0    0  0.11373867445E-01 -0.12914602783E-01  0.23362920986E-01  0.29016855493E-01  0.00000000000E+00 0. -1.
</event>
<event>
 5   0  0.4143600E+04  0.9118800E+02  0.7546771E-02  0.1180000E+00
      -11   -1    0    0    0    0  0.00000000000E+00  0.00000000000E+00  0.34996269501E-01  0.35000000000E-01  0.51099999109E-03 0.  1.
       11   -1    0    0    0    0 -0.00000000000E+00 -0.00000000000E+00 -0.34996269501E-01  0.35000000000E-01  0.51099999109E-03 0. -1.
       22    1    1    2    0    0  0.47033897608E-02  0.28113649569E-02 -0.23291569927E-01  0.23927450299E-01  0.00000000000E+00 0.  1.
       22    1    1    2    0    0 -0.28153509633E-02  0.56626975185E-03  0.34291669401E-01  0.34411705171E-01  0.00000000000E+00 0.  1.
       22    1    1    2    0    0 -0.18880387975E-02 -0.33776347087E-02 -0.11000099473E-01  0.11660844530E-01  0.00000000000E+00 0. -1.
</event>
<event>
 5   0  0.4143600E+04  0.9118800E+02  0.7546771E-02  0.1180000E+00
      -11   -1    0    0    0    0  0.00000000000E+00  0.00000000000E+00  0.34996269501E-01  0.35000000000E-01  0.51099999109E-03 0. -1.
       11   -1    0    0    0    0 -0.00000000000E+00 -0.00000000000E+00 -0.34996269501E-01  0.35000000000E-01  0.51099999109E-03 0.  1.
       22    1    1    2    0    0 -0.13354664967E-01 -0.51683072471E-02  0.31339968383E-01  0.34456524700E-01  0.00000000000E+00 0. -1.
       22    1    1    2    0    0 -0.16432328970E-03 -0.84600479611E-04  0.51227534088E-03  0.54459655669E-03  0.00000000000E+00 0. -1.
       22    1    1    2    0    0  0.13518988257E-01  0.52529077267E-02 -0.31852243723E-01  0.34998878743E-01  0.00000000000E+00 0.  1.
</event>
<event>
 5   0  0.4143600E+04  0.9118800E+02  0.7546771E-02  0.1180000E+00
      -11   -1    0    0    0    0  0.00000000000E+00  0.00000000000E+00  0.34996269501E-01  0.35000000000E-01  0.51099999109E-03 0.  1.
       11   -1    0    0    0    0 -0.00000000000E+00 -0.00000000000E+00 -0.34996269501E-01  0.35000000000E-01  0.51099999109E-03 0. -1.
       22    1    1    2    0    0  0.11412822182E-01 -0.53716973260E-02  0.32443491458E-01  0.34809305944E-01  0.00000000000E+00 0.  1.
       22    1    1    2    0    0 -0.11620703201E-01  0.48956230452E-02 -0.32264731510E-01  0.34641315900E-01  0.00000000000E+00 0. -1.
       22    1    1    2    0    0  0.20788101920E-03  0.47607428076E-03 -0.17875994821E-03  0.54937815576E-03  0.00000000000E+00 0.  1.
</event>
<event>
 5   0  0.4143600E+04  0.9118800E+02  0.7546771E-02  0.1180000E+00
      -11   -1    0    0    0    0  0.00000000000E+00  0.00000000000E+00  0.34996269501E-01  0.35000000000E-01  0.51099999109E-03 0.  1.
       11   -1    0    0    0    0 -0.00000000000E+00 -0.00000000000E+00 -0.34996269501E-01  0.35000000000E-01  0.51099999109E-03 0. -1.
       22    1    1    2    0    0 -0.10556557514E-01 -0.11485659304E-01  0.30876545853E-01  0.34593675144E-01  0.00000000000E+00 0.  1.
       22    1    1    2    0    0  0.11153007406E-02  0.34052091725E-03  0.88143383817E-04  0.11694526469E-02  0.00000000000E+00 0.  1.
       22    1    1    2    0    0  0.94412567733E-02  0.11145138387E-01 -0.30964689237E-01  0.34236872209E-01  0.00000000000E+00 0. -1.
</event>
<event>
 5   0  0.4143600E+04  0.9118800E+02  0.7546771E-02  0.1180000E+00
      -11   -1    0    0    0    0  0.00000000000E+00  0.00000000000E+00  0.34996269501E-01  0.35000000000E-01  0.51099999109E-03 0.  1.
       11   -1    0    0    0    0 -0.00000000000E+00 -0.00000000000E+00 -0.34996269501E-01  0.35000000000E-01  0.51099999109E-03 0. -1.
       22    1    1    2    0    0  0.74047319183E-03  0.13709021498E-02  0.34955164653E-01  0.34989872952E-01  0.00000000000E+00 0.  1.
       22    1    1    2    0    0 -0.11687917364E-03 -0.83324924391E-04 -0.39345763041E-03  0.41882298311E-03  0.00000000000E+00 0.  1.
       22    1    1    2    0    0 -0.62359401819E-03 -0.12875772254E-02 -0.34561707023E-01  0.34591304065E-01  0.00000000000E+00 0. -1.
</event>
<event>
 5   0  0.4143600E+04  0.9118800E+02  0.7546771E-02  0.1180000E+00
      -11   -1    0    0    0    0  0.00000000000E+00  0.00000000000E+00  0.34996269501E-01  0.35000000000E-01  0.51099999109E-03 0.  1.
       11   -1    0    0    0    0 -0.00000000000E+00 -0.00000000000E+00 -0.34996269501E-01  0.35000000000E-01  0.51099999109E-03 0. -1.
       22    1    1    2    0    0  0.17177460700E-01 -0.11409382720E-01  0.26019990615E-01  0.33200588575E-01  0.00000000000E+00 0.  1.
       22    1    1    2    0    0  0.20158050293E-02 -0.11365789540E-02 -0.57363505221E-02  0.61855475867E-02  0.00000000000E+00 0. -1.
       22    1    1    2    0    0 -0.19193265729E-01  0.12545961674E-01 -0.20283640093E-01  0.30613863838E-01  0.00000000000E+00 0. -1.
</event>
<event>
 5   0  0.4143600E+04  0.9118800E+02  0.7546771E-02  0.1180000E+00
      -11   -1    0    0    0    0  0.00000000000E+00  0.00000000000E+00  0.34996269501E-01  0.35000000000E-01  0.51099999109E-03 0.  1.
       11   -1    0    0    0    0 -0.00000000000E+00 -0.00000000000E+00 -0.34996269501E-01  0.35000000000E-01  0.51099999109E-03 0. -1.
       22    1    1    2    0    0  0.26239599500E-02 -0.19134600690E-02  0.24221870866E-01  0.24438607233E-01  0.00000000000E+00 0.  1.
       22    1    1    2    0    0 -0.13458498118E-01  0.65758727418E-02 -0.29153710482E-01  0.32776700700E-01  0.00000000000E+00 0. -1.
       22    1    1    2    0    0  0.10834538168E-01 -0.46624126728E-02  0.49318396161E-02  0.12784692067E-01  0.00000000000E+00 0.  1.
</event>
<event>
 5   0  0.4143600E+04  0.9118800E+02  0.7546771E-02  0.1180000E+00
      -11   -1    0    0    0    0  0.00000000000E+00  0.00000000000E+00  0.34996269501E-01  0.35000000000E-01  0.51099999109E-03 0. -1.
       11   -1    0    0    0    0 -0.00000000000E+00 -0.00000000000E+00 -0.34996269501E-01  0.35000000000E-01  0.51099999109E-03 0.  1.
       22    1    1    2    0    0  0.10233719579E-01 -0.13430815035E-01 -0.30547542114E-01  0.34903698058E-01  0.00000000000E+00 0.  1.
       22    1    1    2    0    0 -0.11840152594E-02  0.28512174925E-03  0.13247514130E-02  0.17994868304E-02  0.00000000000E+00 0.  1.
       22    1    1    2    0    0 -0.90497043195E-02  0.13145693286E-01  0.29222790701E-01  0.33296815112E-01  0.00000000000E+00 0. -1.
</event>
<event>
 5   0  0.4143600E+04  0.9118800E+02  0.7546771E-02  0.1180000E+00
      -11   -1    0    0    0    0  0.00000000000E+00  0.00000000000E+00  0.34996269501E-01  0.35000000000E-01  0.51099999109E-03 0. -1.
       11   -1    0    0    0    0 -0.00000000000E+00 -0.00000000000E+00 -0.34996269501E-01  0.35000000000E-01  0.51099999109E-03 0.  1.
       22    1    1    2    0    0 -0.10830852307E-01  0.41057191181E-02 -0.32992676710E-01  0.34966855845E-01  0.00000000000E+00 0.  1.
       22    1    1    2    0    0 -0.18784865008E-04  0.99744155766E-04  0.71326105986E-03  0.72044646385E-03  0.00000000000E+00 0.  1.
       22    1    1    2    0    0  0.10849637172E-01 -0.42054632739E-02  0.32279415651E-01  0.34312697691E-01  0.00000000000E+00 0. -1.
</event>
<event>
 5   0  0.4143600E+04  0.9118800E+02  0.7546771E-02  0.1180000E+00
      -11   -1    0    0    0    0  0.00000000000E+00  0.00000000000E+00  0.34996269501E-01  0.35000000000E-01  0.51099999109E-03 0.  1.
       11   -1    0    0    0    0 -0.00000000000E+00 -0.00000000000E+00 -0.34996269501E-01  0.35000000000E-01  0.51099999109E-03 0. -1.
       22    1    1    2    0    0  0.44121353386E-02  0.17083531002E-01  0.29291989501E-01  0.34195535069E-01  0.00000000000E+00 0.  1.
       22    1    1    2    0    0 -0.64598994316E-02 -0.17314467151E-01 -0.25555108112E-01  0.31537035752E-01  0.00000000000E+00 0. -1.
       22    1    1    2    0    0  0.20477640930E-02  0.23093614935E-03 -0.37368813890E-02  0.42674291794E-02  0.00000000000E+00 0.  1.
</event>
<event>
 5   0  0.4143600E+04  0.9118800E+02  0.7546771E-02  0.1180000E+00
      -11   -1    0    0    0    0  0.00000000000E+00  0.00000000000E+00  0.34996269501E-01  0.35000000000E-01  0.51099999109E-03 0.  1.
       11   -1    0    0    0    0 -0.00000000000E+00 -0.00000000000E+00 -0.34996269501E-01  0.35000000000E-01  0.51099999109E-03 0. -1.
       22    1    1    2    0    0 -0.31324288133E-03  0.15340195031E-02 -0.34528287338E-01  0.34563766627E-01  0.00000000000E+00 0. -1.
       22    1    1    2    0    0  0.65802712380E-03 -0.14354180506E-02  0.34890685535E-01  0.34926399210E-01  0.00000000000E+00 0.  1.
       22    1    1    2    0    0 -0.34478424247E-03 -0.98601452566E-04 -0.36239819697E-03  0.50983416271E-03  0.00000000000E+00 0. -1.
</event>
<event>
 5   0  0.4143600E+04  0.9118800E+02  0.7546771E-02  0.1180000E+00
      -11   -1    0    0    0    0  0.00000000000E+00  0.00000000000E+00  0.34996269501E-01  0.35000000000E-01  0.51099999109E-03 0.  1.
       11   -1    0    0    0    0 -0.00000000000E+00 -0.00000000000E+00 -0.34996269501E-01  0.35000000000E-01  0.51099999109E-03 0. -1.
       22    1    1    2    0    0  0.16167029600E-01 -0.20205113421E-01  0.18331894584E-01  0.31712423646E-01  0.00000000000E+00 0.  1.
       22    1    1    2    0    0  0.21064994416E-02 -0.15959231983E-02 -0.73226336924E-02  0.77849389815E-02  0.00000000000E+00 0. -1.
       22    1    1    2    0    0 -0.18273529041E-01  0.21801036619E-01 -0.11009260892E-01  0.30502637373E-01  0.00000000000E+00 0. -1.
</event>
<event>
 5   0  0.4143600E+04  0.9118800E+02  0.7546771E-02  0.1180000E+00
      -11   -1    0    0    0    0  0.00000000000E+00  0.00000000000E+00  0.34996269501E-01  0.35000000000E-01  0.51099999109E-03 0.  1.
       11   -1    0    0    0    0 -0.00000000000E+00 -0.00000000000E+00 -0.34996269501E-01  0.35000000000E-01  0.51099999109E-03 0. -1.
       22    1    1    2    0    0  0.17220071061E-02 -0.15092007364E-03  0.34826079390E-01  0.34868953110E-01  0.00000000000E+00 0.  1.
       22    1    1    2    0    0 -0.70446880396E-03  0.27211576122E-03 -0.84017705288E-03  0.11296994129E-02  0.00000000000E+00 0.  1.
       22    1    1    2    0    0 -0.10175383022E-02 -0.12119568758E-03 -0.33985902337E-01  0.34001347477E-01  0.00000000000E+00 0. -1.
</event>
<event>
 5   0  0.4143600E+04  0.9118800E+02  0.7546771E-02  0.1180000E+00
      -11   -1    0    0    0    0  0.00000000000E+00  0.00000000000E+00  0.34996269501E-01  0.35000000000E-01  0.51099999109E-03 0. -1.
       11   -1    0    0    0    0 -0.00000000000E+00 -0.00000000000E+00 -0.34996269501E-01  0.35000000000E-01  0.51099999109E-03 0.  1.
       22    1    1    2    0    0 -0.28610941426E-03 -0.85821600443E-05 -0.33044576058E-03  0.43718034160E-03  0.00000000000E+00 0. -1.
       22    1    1    2    0    0  0.23612294100E-01 -0.21630269830E-01  0.13980602012E-01  0.34940896356E-01  0.00000000000E+00 0. -1.
       22    1    1    2    0    0 -0.23326184685E-01  0.21638851990E-01 -0.13650156252E-01  0.34621923302E-01  0.00000000000E+00 0.  1.
</event>
<event>
 5   0  0.4143600E+04  0.9118800E+02  0.7546771E-02  0.1180000E+00
      -11   -1    0    0    0    0  0.00000000000E+00  0.00000000000E+00  0.34996269501E-01  0.35000000000E-01  0.51099999109E-03 0.  1.
       11   -1    0    0    0    0 -0.00000000000E+00 -0.00000000000E+00 -0.34996269501E-01  0.35000000000E-01  0.51099999109E-03 0. -1.
       22    1    1    2    0    0  0.24851544116E-03 -0.11760190527E-02 -0.18377682067E-02  0.21959446073E-02  0.00000000000E+00 0. -1.
       22    1    1    2    0    0 -0.19428691069E-01 -0.10919070286E-01 -0.24453041279E-01  0.33085515869E-01  0.00000000000E+00 0. -1.
       22    1    1    2    0    0  0.19180175628E-01  0.12095089339E-01  0.26290809485E-01  0.34718539523E-01  0.00000000000E+00 0.  1.
</event>
<event>
 5   0  0.4143600E+04  0.9118800E+02  0.7546771E-02  0.1180000E+00
      -11   -1    0    0    0    0  0.00000000000E+00  0.00000000000E+00  0.34996269501E-01  0.35000000000E-01  0.51099999109E-03 0.  1.
       11   -1    0    0    0    0 -0.00000000000E+00 -0.00000000000E+00 -0.34996269501E-01  0.35000000000E-01  0.51099999109E-03 0. -1.
       22    1    1    2    0    0  0.95201104082E-03  0.13900435375E-02 -0.96030510144E-02  0.97497248599E-02  0.00000000000E+00 0. -1.
       22    1    1    2    0    0  0.64562709558E-02  0.15194225388E-01  0.29191523398E-01  0.33536442239E-01  0.00000000000E+00 0.  1.
       22    1    1    2    0    0 -0.74082819966E-02 -0.16584268925E-01 -0.19588472383E-01  0.26713832901E-01  0.00000000000E+00 0. -1.
</event>
<event>
 5   0  0.4143600E+04  0.9118800E+02  0.7546771E-02  0.1180000E+00
      -11   -1    0    0    0    0  0.00000000000E+00  0.00000000000E+00  0.34996269501E-01  0.35000000000E-01  0.51099999109E-03 0.  1.
       11   -1    0    0    0    0 -0.00000000000E+00 -0.00000000000E+00 -0.34996269501E-01  0.35000000000E-01  0.51099999109E-03 0. -1.
       22    1    1    2    0    0 -0.35716042947E-02 -0.85796830832E-02 -0.24490124697E-01  0.26194150620E-01  0.00000000000E+00 0. -1.
       22    1    1    2    0    0 -0.32139571518E-03  0.10738439033E-02 -0.90995392646E-02  0.91683177717E-02  0.00000000000E+00 0. -1.
       22    1    1    2    0    0  0.38930000099E-02  0.75058391799E-02  0.33589663961E-01  0.34637531608E-01  0.00000000000E+00 0.  1.
</event>
<event>
 5   0  0.4143600E+04  0.9118800E+02  0.7546771E-02  0.1180000E+00
      -11   -1    0    0    0    0  0.00000000000E+00  0.00000000000E+00  0.34996269501E-01  0.35000000000E-01  0.51099999109E-03 0.  1.
       11   -1    0    0    0    0 -0.00000000000E+00 -0.00000000000E+00 -0.34996269501E-01  0.35000000000E-01  0.51099999109E-03 0. -1.
       22    1    1    2    0    0  0.12261533400E-01 -0.10788943634E-01  0.30919470195E-01  0.34967987405E-01  0.00000000000E+00 0.  1.
       22    1    1    2    0    0 -0.12191178760E-01  0.10797788074E-01 -0.30218493764E-01  0.34327458866E-01  0.00000000000E+00 0. -1.
       22    1    1    2    0    0 -0.70354640300E-04 -0.88444402509E-05 -0.70097643109E-03  0.70455372859E-03  0.00000000000E+00 0.  1.
</event>
<event>
 5   0  0.4143600E+04  0.9118800E+02  0.7546771E-02  0.1180000E+00
      -11   -1    0    0    0    0  0.00000000000E+00  0.00000000000E+00  0.34996269501E-01  0.35000000000E-01  0.51099999109E-03 0.  1.
       11   -1    0    0    0    0 -0.00000000000E+00 -0.00000000000E+00 -0.34996269501E-01  0.35000000000E-01  0.51099999109E-03 0. -1.
       22    1    1    2    0    0  0.11997544894E-03  0.14248410430E-04 -0.33861275355E-03  0.35952151870E-03  0.00000000000E+00 0. -1.
       22    1    1    2    0    0  0.14881939445E-02  0.15661448850E-02 -0.34580863021E-01  0.34648284493E-01  0.00000000000E+00 0. -1.
       22    1    1    2    0    0 -0.16081693935E-02 -0.15803932954E-02  0.34919475774E-01  0.34992193989E-01  0.00000000000E+00 0.  1.
</event>
<event>
 5   0  0.4143600E+04  0.9118800E+02  0.7546771E-02  0.1180000E+00
      -11   -1    0    0    0    0  0.00000000000E+00  0.00000000000E+00  0.34996269501E-01  0.35000000000E-01  0.51099999109E-03 0.  1.
       11   -1    0    0    0    0 -0.00000000000E+00 -0.00000000000E+00 -0.34996269501E-01  0.35000000000E-01  0.51099999109E-03 0. -1.
       22    1    1    2    0    0 -0.86047819672E-03 -0.15914663388E-02 -0.19614019241E-02  0.26683862806E-02  0.00000000000E+00 0.  1.
       22    1    1    2    0    0 -0.10743654570E-02  0.10269489731E-02  0.34599468115E-01  0.34631374202E-01  0.00000000000E+00 0.  1.
       22    1    1    2    0    0  0.19348436537E-02  0.56451736576E-03 -0.32638066190E-01  0.32700239517E-01  0.00000000000E+00 0. -1.
</event>
<event>
 5   0  0.4143600E+04  0.9118800E+02  0.7546771E-02  0.1180000E+00
      -11   -1    0    0    0    0  0.00000000000E+00  0.00000000000E+00  0.34996269501E-01  0.35000000000E-01  0.51099999109E-03 0. -1.
       11   -1    0    0    0    0 -0.00000000000E+00 -0.00000000000E+00 -0.34996269501E-01  0.35000000000E-01  0.51099999109E-03 0.  1.
       22    1    1    2    0    0  0.12035544925E-01 -0.26152171642E-02 -0.32453876058E-01  0.34712357651E-01  0.00000000000E+00 0.  1.
       22    1    1    2    0    0 -0.74485856496E-04  0.68372198554E-04 -0.30459237564E-03  0.32093522033E-03  0.00000000000E+00 0.  1.
       22    1    1    2    0    0 -0.11961059069E-01  0.25468449657E-02  0.32758468434E-01  0.34966707129E-01  0.00000000000E+00 0. -1.
</event>
<event>
 5   0  0.4143600E+04  0.9118800E+02  0.7546771E-02  0.1180000E+00
      -11   -1    0    0    0    0  0.00000000000E+00  0.00000000000E+00  0.34996269501E-01  0.35000000000E-01  0.51099999109E-03 0. -1.
       11   -1    0    0    0    0 -0.00000000000E+00 -0.00000000000E+00 -0.34996269501E-01  0.35000000000E-01  0.51099999109E-03 0.  1.
       22    1    1    2    0    0  0.43966645464E-03 -0.27384006483E-04 -0.33250652076E-02  0.33541191257E-02  0.00000000000E+00 0.  1.
       22    1    1    2    0    0 -0.99616775493E-02  0.14401683358E-01  0.30086166714E-01  0.34811218461E-01  0.00000000000E+00 0. -1.
       22    1    1    2    0    0  0.95220110946E-02 -0.14374299351E-01 -0.26761101507E-01  0.31834662414E-01  0.00000000000E+00 0.  1.
</event>
<event>
 5   0  0.4143600E+04  0.9118800E+02  0.7546771E-02  0.1180000E+00
      -11   -1    0    0    0    0  0.00000000000E+00  0.00000000000E+00  0.34996269501E-01  0.35000000000E-01  0.51099999109E-03 0. -1.
       11   -1    0    0    0    0 -0.00000000000E+00 -0.00000000000E+00 -0.34996269501E-01  0.35000000000E-01  0.51099999109E-03 0.  1.
       22    1    1    2    0    0  0.23896348747E-02  0.11151479659E-01 -0.30324335582E-01  0.32398012005E-01  0.00000000000E+00 0.  1.
       22    1    1    2    0    0 -0.47292252984E-02 -0.47341534277E-02  0.18060589872E-03  0.66940569979E-02  0.00000000000E+00 0. -1.
       22    1    1    2    0    0  0.23395904237E-02 -0.64173262308E-02  0.30143729683E-01  0.30907930997E-01  0.00000000000E+00 0. -1.
</event>
<event>
 5   0  0.4143600E+04  0.9118800E+02  0.7546771E-02  0.1180000E+00
      -11   -1    0    0    0    0  0.00000000000E+00  0.00000000000E+00  0.34996269501E-01  0.35000000000E-01  0.51099999109E-03 0. -1.
       11   -1    0    0    0    0 -0.00000000000E+00 -0.00000000000E+00 -0.34996269501E-01  0.35000000000E-01  0.51099999109E-03 0.  1.
       22    1    1    2    0    0 -0.55474152629E-02 -0.99555511429E-02 -0.31769595123E-01  0.33751947928E-01  0.00000000000E+00 0.  1.
       22    1    1    2    0    0  0.14863188578E-03  0.13427329784E-02 -0.11628685339E-02  0.17824944645E-02  0.00000000000E+00 0. -1.
       22    1    1    2    0    0  0.53987833772E-02  0.86128181645E-02  0.32932463657E-01  0.34465557608E-01  0.00000000000E+00 0. -1.
</event>
<event>
 5   0  0.4143600E+04  0.9118800E+02  0.7546771E-02  0.1180000E+00
      -11   -1    0    0    0    0  0.00000000000E+00  0.00000000000E+00  0.34996269501E-01  0.35000000000E-01  0.51099999109E-03 0.  1.
       11   -1    0    0    0    0 -0.00000000000E+00 -0.00000000000E+00 -0.34996269501E-01  0.35000000000E-01  0.51099999109E-03 0. -1.
       22    1    1    2    0    0  0.19564837276E-01 -0.10820984123E-01 -0.26787469083E-01  0.34891905291E-01  0.00000000000E+00 0. -1.
       22    1    1    2    0    0 -0.19659129550E-01  0.10922078955E-01  0.26314832403E-01  0.34615655241E-01  0.00000000000E+00 0.  1.
       22    1    1    2    0    0  0.94292274216E-04 -0.10109483270E-03  0.47263667945E-03  0.49243946728E-03  0.00000000000E+00 0. -1.
</event>
<event>
 5   0  0.4143600E+04  0.9118800E+02  0.7546771E-02  0.1180000E+00
      -11   -1    0    0    0    0  0.00000000000E+00  0.00000000000E+00  0.34996269501E-01  0.35000000000E-01  0.51099999109E-03 0.  1.
       11   -1    0    0    0    0 -0.00000000000E+00 -0.00000000000E+00 -0.34996269501E-01  0.35000000000E-01  0.51099999109E-03 0. -1.
       22    1    1    2    0    0 -0.13406381470E-01  0.12847919701E-01 -0.28370204373E-01  0.33906763351E-01  0.00000000000E+00 0. -1.
       22    1    1    2    0    0  0.28150510008E-03  0.25645228298E-03 -0.11604746683E-02  0.12213575850E-02  0.00000000000E+00 0.  1.
       22    1    1    2    0    0  0.13124876369E-01 -0.13104371984E-01  0.29530679041E-01  0.34871879064E-01  0.00000000000E+00 0.  1.
</event>
<event>
 5   0  0.4143600E+04  0.9118800E+02  0.7546771E-02  0.1180000E+00
      -11   -1    0    0    0    0  0.00000000000E+00  0.00000000000E+00  0.34996269501E-01  0.35000000000E-01  0.51099999109E-03 0. -1.
       11   -1    0    0    0    0 -0.00000000000E+00 -0.00000000000E+00 -0.34996269501E-01  0.35000000000E-01  0.51099999109E-03 0.  1.
       22    1    1    2    0    0  0.74178002439E-02  0.16097573869E-01  0.13481436302E-01  0.22268919365E-01  0.00000000000E+00 0. -1.
       22    1    1    2    0    0 -0.64748638886E-02 -0.15556102307E-01 -0.28265676332E-01  0.32906908695E-01  0.00000000000E+00 0.  1.
       22    1    1    2    0    0 -0.94293635523E-03 -0.54147156217E-03  0.14784240030E-01  0.14824171939E-01  0.00000000000E+00 0. -1.
</event>
<event>
 5   0  0.4143600E+04  0.9118800E+02  0.7546771E-02  0.1180000E+00
      -11   -1    0    0    0    0  0.00000000000E+00  0.00000000000E+00  0.34996269501E-01  0.35000000000E-01  0.51099999109E-03 0.  1.
       11   -1    0    0    0    0 -0.00000000000E+00 -0.00000000000E+00 -0.34996269501E-01  0.35000000000E-01  0.51099999109E-03 0. -1.
       22    1    1    2    0    0 -0.49677234978E-02 -0.16800427545E-02 -0.21882246294E-01  0.22501855996E-01  0.00000000000E+00 0. -1.
       22    1    1    2    0    0  0.46608348805E-02 -0.31326588547E-03 -0.12351344609E-01  0.13205197119E-01  0.00000000000E+00 0.  1.
       22    1    1    2    0    0  0.30688861729E-03  0.19933086400E-02  0.34233590903E-01  0.34292946885E-01  0.00000000000E+00 0.  1.
</event>
<event>
 5   0  0.4143600E+04  0.9118800E+02  0.7546771E-02  0.1180000E+00
      -11   -1    0    0    0    0  0.00000000000E+00  0.00000000000E+00  0.34996269501E-01  0.35000000000E-01  0.51099999109E-03 0. -1.
       11   -1    0    0    0    0 -0.00000000000E+00 -0.00000000000E+00 -0.34996269501E-01  0.35000000000E-01  0.51099999109E-03 0.  1.
       22    1    1    2    0    0  0.98675515834E-02  0.61115950469E-02  0.32963967276E-01  0.34947722484E-01  0.00000000000E+00 0. -1.
       22    1    1    2    0    0 -0.65775487599E-03 -0.32830510987E-03 -0.74158780937E-03  0.10442117606E-02  0.00000000000E+00 0. -1.
       22    1    1    2    0    0 -0.92097967074E-02 -0.57832899370E-02 -0.32222379467E-01  0.34008065755E-01  0.00000000000E+00 0.  1.
</event>
<event>
 5   0  0.4143600E+04  0.9118800E+02  0.7546771E-02  0.1180000E+00
      -11   -1    0    0    0    0  0.00000000000E+00  0.00000000000E+00  0.34996269501E-01  0.35000000000E-01  0.51099999109E-03 0.  1.
       11   -1    0    0    0    0 -0.00000000000E+00 -0.00000000000E+00 -0.34996269501E-01  0.35000000000E-01  0.51099999109E-03 0.  1.
       22    1    1    2    0    0  0.11421249494E-02 -0.13792299720E-02 -0.47022778418E-02  0.50317135866E-02  0.00000000000E+00 0. -1.
       22    1    1    2    0    0 -0.16665990853E-03  0.32692048430E-03  0.34817233091E-01  0.34819166742E-01  0.00000000000E+00 0.  1.
       22    1    1    2    0    0 -0.97546504082E-03  0.10523094877E-02 -0.30114955249E-01  0.30149119671E-01  0.00000000000E+00 0.  1.
</event>
<event>
 5   0  0.4143600E+04  0.9118800E+02  0.7546771E-02  0.1180000E+00
      -11   -1    0    0    0    0  0.00000000000E+00  0.00000000000E+00  0.34996269501E-01  0.35000000000E-01  0.51099999109E-03 0. -1.
       11   -1    0    0    0    0 -0.00000000000E+00 -0.00000000000E+00 -0.34996269501E-01  0.35000000000E-01  0.51099999109E-03 0.  1.
       22    1    1    2    0    0 -0.13159775378E-03 -0.53775886682E-04  0.74982743527E-02  0.74996218626E-02  0.00000000000E+00 0. -1.
       22    1    1    2    0    0 -0.91502528395E-02  0.87761684570E-02 -0.32256033783E-01  0.34658331974E-01  0.00000000000E+00 0.  1.
       22    1    1    2    0    0  0.92818505932E-02 -0.87223925703E-02  0.24757759430E-01  0.27842046164E-01  0.00000000000E+00 0. -1.
</event>
<event>
 5   0  0.4143600E+04  0.9118800E+02  0.7546771E-02  0.1180000E+00
      -11   -1    0    0    0    0  0.00000000000E+00  0.00000000000E+00  0.34996269501E-01  0.35000000000E-01  0.51099999109E-03 0.  1.
       11   -1    0    0    0    0 -0.00000000000E+00 -0.00000000000E+00 -0.34996269501E-01  0.35000000000E-01  0.51099999109E-03 0. -1.
       22    1    1    2    0    0 -0.16882792186E-01  0.10009985002E-01  0.26670016711E-01  0.33113717144E-01  0.00000000000E+00 0. -1.
       22    1    1    2    0    0  0.15763089536E-01 -0.34418219490E-02 -0.10120579773E-01  0.19045925155E-01  0.00000000000E+00 0.  1.
       22    1    1    2    0    0  0.11197026495E-02 -0.65681630534E-02 -0.16549436938E-01  0.17840357701E-01  0.00000000000E+00 0.  1.
</event>
<event>
 5   0  0.4143600E+04  0.9118800E+02  0.7546771E-02  0.1180000E+00
      -11   -1    0    0    0    0  0.00000000000E+00  0.00000000000E+00  0.34996269501E-01  0.35000000000E-01  0.51099999109E-03 0. -1.
       11   -1    0    0    0    0 -0.00000000000E+00 -0.00000000000E+00 -0.34996269501E-01  0.35000000000E-01  0.51099999109E-03 0.  1.
       22    1    1    2    0    0 -0.46960207210E-03  0.89015773317E-03 -0.17389371532E-01  0.17418471493E-01  0.00000000000E+00 0.  1.
       22    1    1    2    0    0 -0.37033196290E-02 -0.66729910529E-02  0.33819837402E-01  0.34670229128E-01  0.00000000000E+00 0. -1.
       22    1    1    2    0    0  0.41729217011E-02  0.57828333197E-02 -0.16430465870E-01  0.17911299379E-01  0.00000000000E+00 0.  1.
</event>
<event>
 5   0  0.4143600E+04  0.9118800E+02  0.7546771E-02  0.1180000E+00
      -11   -1    0    0    0    0  0.00000000000E+00  0.00000000000E+00  0.34996269501E-01  0.35000000000E-01  0.51099999109E-03 0.  1.
       11   -1    0    0    0    0 -0.00000000000E+00 -0.00000000000E+00 -0.34996269501E-01  0.35000000000E-01  0.51099999109E-03 0. -1.
       22    1    1    2    0    0  0.19988347422E-03  0.31843632546E-03 -0.53906100187E-03  0.65722283921E-03  0.00000000000E+00 0.  1.
       22    1    1    2    0    0 -0.18067893278E-02 -0.13571846738E-01  0.32195762741E-01  0.34986092237E-01  0.00000000000E+00 0.  1.
       22    1    1    2    0    0  0.16069058536E-02  0.13253410412E-01 -0.31656701739E-01  0.34356684924E-01  0.00000000000E+00 0. -1.
</event>
<event>
 5   0  0.4143600E+04  0.9118800E+02  0.7546771E-02  0.1180000E+00
      -11   -1    0    0    0    0  0.00000000000E+00  0.00000000000E+00  0.34996269501E-01  0.35000000000E-01  0.51099999109E-03 0. -1.
       11   -1    0    0    0    0 -0.00000000000E+00 -0.00000000000E+00 -0.34996269501E-01  0.35000000000E-01  0.51099999109E-03 0.  1.
       22    1    1    2    0    0  0.18550108491E-01 -0.10667519001E-01  0.25809300911E-01  0.33526444789E-01  0.00000000000E+00 0. -1.
       22    1    1    2    0    0 -0.18502714098E-01  0.10787221623E-01 -0.27456107762E-01  0.34821723576E-01  0.00000000000E+00 0.  1.
       22    1    1    2    0    0 -0.47394392947E-04 -0.11970262200E-03  0.16468068516E-02  0.16518316356E-02  0.00000000000E+00 0.  1.
</event>
<event>
 5   0  0.4143600E+04  0.9118800E+02  0.7546771E-02  0.1180000E+00
      -11   -1    0    0    0    0  0.00000000000E+00  0.00000000000E+00  0.34996269501E-01  0.35000000000E-01  0.51099999109E-03 0. -1.
       11   -1    0    0    0    0 -0.00000000000E+00 -0.00000000000E+00 -0.34996269501E-01  0.35000000000E-01  0.51099999109E-03 0.  1.
       22    1    1    2    0    0  0.35242091616E-02  0.60233009276E-03 -0.50741650253E-02  0.62072540193E-02  0.00000000000E+00 0. -1.
       22    1    1    2    0    0 -0.19478404847E-02  0.39662362780E-03 -0.29300303027E-01  0.29367654832E-01  0.00000000000E+00 0.  1.
       22    1    1    2    0    0 -0.15763686769E-02 -0.99895372055E-03  0.34374468052E-01  0.34425091149E-01  0.00000000000E+00 0. -1.
</event>
<event>
 5   0  0.4143600E+04  0.9118800E+02  0.7546771E-02  0.1180000E+00
      -11   -1    0    0    0    0  0.00000000000E+00  0.00000000000E+00  0.34996269501E-01  0.35000000000E-01  0.51099999109E-03 0.  1.
       11   -1    0    0    0    0 -0.00000000000E+00 -0.00000000000E+00 -0.34996269501E-01  0.35000000000E-01  0.51099999109E-03 0. -1.
       22    1    1    2    0    0  0.46974923352E-02 -0.64010304997E-02  0.32330385329E-01  0.33291041456E-01  0.00000000000E+00 0.  1.
       22    1    1    2    0    0 -0.88050426097E-02  0.78921574090E-02 -0.28655726383E-01  0.30999444809E-01  0.00000000000E+00 0. -1.
       22    1    1    2    0    0  0.41075502745E-02 -0.14911269093E-02 -0.36746589463E-02  0.57095137349E-02  0.00000000000E+00 0.  1.
</event>
<event>
 5   0  0.4143600E+04  0.9118800E+02  0.7546771E-02  0.1180000E+00
      -11   -1    0    0    0    0  0.00000000000E+00  0.00000000000E+00  0.34996269501E-01  0.35000000000E-01  0.51099999109E-03 0. -1.
       11   -1    0    0    0    0 -0.00000000000E+00 -0.00000000000E+00 -0.34996269501E-01  0.35000000000E-01  0.51099999109E-03 0.  1.
       22    1    1    2    0    0  0.20908608354E-01  0.59942926848E-02  0.25880642127E-01  0.33806938415E-01  0.00000000000E+00 0. -1.
       22    1    1    2    0    0  0.11716148228E-04 -0.62862489999E-05  0.13420278712E-02  0.13420937345E-02  0.00000000000E+00 0.  1.
       22    1    1    2    0    0 -0.20920324502E-01 -0.59880064358E-02 -0.27222669998E-01  0.34850967851E-01  0.00000000000E+00 0.  1.
</event>
<event>
 5   0  0.4143600E+04  0.9118800E+02  0.7546771E-02  0.1180000E+00
      -11   -1    0    0    0    0  0.00000000000E+00  0.00000000000E+00  0.34996269501E-01  0.35000000000E-01  0.51099999109E-03 0. -1.
       11   -1    0    0    0    0 -0.00000000000E+00 -0.00000000000E+00 -0.34996269501E-01  0.35000000000E-01  0.51099999109E-03 0.  1.
       22    1    1    2    0    0  0.10228390558E-01 -0.36570430997E-02 -0.18066266628E-01  0.21080415734E-01  0.00000000000E+00 0.  1.
       22    1    1    2    0    0  0.83132834814E-03 -0.50366501041E-02  0.30025000405E-01  0.30455863153E-01  0.00000000000E+00 0. -1.
       22    1    1    2    0    0 -0.11059718906E-01  0.86936932038E-02 -0.11958733776E-01  0.18463721113E-01  0.00000000000E+00 0.  1.
</event>
<event>
 5   0  0.4143600E+04  0.9118800E+02  0.7546771E-02  0.1180000E+00
      -11   -1    0    0    0    0  0.00000000000E+00  0.00000000000E+00  0.34996269501E-01  0.35000000000E-01  0.51099999109E-03 0. -1.
       11   -1    0    0    0    0 -0.00000000000E+00 -0.00000000000E+00 -0.34996269501E-01  0.35000000000E-01  0.51099999109E-03 0.  1.
       22    1    1    2    0    0 -0.63994274243E-02 -0.12307488106E-01  0.42310531534E-02  0.14502715112E-01  0.00000000000E+00 0. -1.
       22    1    1    2    0    0 -0.34979565844E-03 -0.18492052875E-03  0.23943645030E-01  0.23946913996E-01  0.00000000000E+00 0. -1.
       22    1    1    2    0    0  0.67492230827E-02  0.12492408635E-01 -0.28174698183E-01  0.31550370892E-01  0.00000000000E+00 0.  1.
</event>
<event>
 5   0  0.4143600E+04  0.9118800E+02  0.7546771E-02  0.1180000E+00
      -11   -1    0    0    0    0  0.00000000000E+00  0.00000000000E+00  0.34996269501E-01  0.35000000000E-01  0.51099999109E-03 0. -1.
       11   -1    0    0    0    0 -0.00000000000E+00 -0.00000000000E+00 -0.34996269501E-01  0.35000000000E-01  0.51099999109E-03 0.  1.
       22    1    1    2    0    0  0.92572593270E-04 -0.35188533493E-04 -0.50854526801E-03  0.51809864652E-03  0.00000000000E+00 0. -1.
       22    1    1    2    0    0 -0.57380405329E-02  0.14613179817E-01  0.31262302106E-01  0.34982876762E-01  0.00000000000E+00 0. -1.
       22    1    1    2    0    0  0.56454679396E-02 -0.14577991283E-01 -0.30753756838E-01  0.34499024592E-01  0.00000000000E+00 0.  1.
</event>
<event>
 5   0  0.4143600E+04  0.9118800E+02  0.7546771E-02  0.1180000E+00
      -11   -1    0    0    0    0  0.00000000000E+00  0.00000000000E+00  0.34996269501E-01  0.35000000000E-01  0.51099999109E-03 0.  1.
       11   -1    0    0    0    0 -0.00000000000E+00 -0.00000000000E+00 -0.34996269501E-01  0.35000000000E-01  0.51099999109E-03 0. -1.
       22    1    1    2    0    0  0.18605797581E-02  0.84299037359E-03 -0.20573463662E-01  0.20674617212E-01  0.00000000000E+00 0. -1.
       22    1    1    2    0    0 -0.28649308090E-02 -0.84055545676E-02  0.33312955037E-01  0.34476283869E-01  0.00000000000E+00 0.  1.
       22    1    1    2    0    0  0.10043510509E-02  0.75625641940E-02 -0.12739491375E-01  0.14849098919E-01  0.00000000000E+00 0. -1.
</event>
<event>
 5   0  0.4143600E+04  0.9118800E+02  0.7546771E-02  0.1180000E+00
      -11   -1    0    0    0    0  0.00000000000E+00  0.00000000000E+00  0.34996269501E-01  0.35000000000E-01  0.51099999109E-03 0.  1.
       11   -1    0    0    0    0 -0.00000000000E+00 -0.00000000000E+00 -0.34996269501E-01  0.35000000000E-01  0.51099999109E-03 0. -1.
       22    1    1    2    0    0 -0.17057572810E-01  0.17417762855E-01 -0.24756147462E-01  0.34744871423E-01  0.00000000000E+00 0. -1.
       22    1    1    2    0    0  0.58141667695E-04 -0.41804526544E-04  0.18602111050E-02  0.18615889523E-02  0.00000000000E+00 0. -1.
       22    1    1    2    0    0  0.16999431142E-01 -0.17375958329E-01  0.22895936357E-01  0.33393539625E-01  0.00000000000E+00 0.  1.
</event>
<event>
 5   0  0.4143600E+04  0.9118800E+02  0.7546771E-02  0.1180000E+00
      -11   -1    0    0    0    0  0.00000000000E+00  0.00000000000E+00  0.34996269501E-01  0.35000000000E-01  0.51099999109E-03 0.  1.
       11   -1    0    0    0    0 -0.00000000000E+00 -0.00000000000E+00 -0.34996269501E-01  0.35000000000E-01  0.51099999109E-03 0. -1.
       22    1    1    2    0    0 -0.15786611255E-02  0.11495833837E-01 -0.31134230883E-01  0.33226295298E-01  0.00000000000E+00 0. -1.
       22    1    1    2    0    0  0.34797450804E-02  0.11345015917E-02  0.64395642203E-03  0.37162345943E-02  0.00000000000E+00 0.  1.
       22    1    1    2    0    0 -0.19010839549E-02 -0.12630335429E-01  0.30490274461E-01  0.33057470108E-01  0.00000000000E+00 0.  1.
</event>
<event>
 5   0  0.4143600E+04  0.9118800E+02  0.7546771E-02  0.1180000E+00
      -11   -1    0    0    0    0  0.00000000000E+00  0.00000000000E+00  0.34996269501E-01  0.35000000000E-01  0.51099999109E-03 0.  1.
       11   -1    0    0    0    0 -0.00000000000E+00 -0.00000000000E+00 -0.34996269501E-01  0.35000000000E-01  0.51099999109E-03 0. -1.
       22    1    1    2    0    0 -0.76627577675E-02 -0.89541839404E-02 -0.28519170764E-01  0.30858359770E-01  0.00000000000E+00 0. -1.
       22    1    1    2    0    0  0.77217142203E-02  0.90606030563E-02  0.32782232536E-01  0.34876842865E-01  0.00000000000E+00 0.  1.
       22    1    1    2    0    0 -0.58956452865E-04 -0.10641911592E-03 -0.42630617714E-02  0.42647973643E-02  0.00000000000E+00 0. -1.
</event>
<event>
 5   0  0.4143600E+04  0.9118800E+02  0.7546771E-02  0.1180000E+00
      -11   -1    0    0    0    0  0.00000000000E+00  0.00000000000E+00  0.34996269501E-01  0.35000000000E-01  0.51099999109E-03 0.  1.
       11   -1    0    0    0    0 -0.00000000000E+00 -0.00000000000E+00 -0.34996269501E-01  0.35000000000E-01  0.51099999109E-03 0. -1.
       22    1    1    2    0    0  0.37578009040E-03 -0.63991429530E-03  0.14112856972E-02  0.15944993888E-02  0.00000000000E+00 0. -1.
       22    1    1    2    0    0  0.16116291052E-01  0.93874331716E-02  0.27956219930E-01  0.33606680461E-01  0.00000000000E+00 0.  1.
       22    1    1    2    0    0 -0.16492071142E-01 -0.87475188763E-02 -0.29367505628E-01  0.34798820150E-01  0.00000000000E+00 0. -1.
</event>
<event>
 5   0  0.4143600E+04  0.9118800E+02  0.7546771E-02  0.1180000E+00
      -11   -1    0    0    0    0  0.00000000000E+00  0.00000000000E+00  0.34996269501E-01  0.35000000000E-01  0.51099999109E-03 0.  1.
       11   -1    0    0    0    0 -0.00000000000E+00 -0.00000000000E+00 -0.34996269501E-01  0.35000000000E-01  0.51099999109E-03 0. -1.
       22    1    1    2    0    0  0.31744374086E-02 -0.12545329703E-02 -0.57911013335E-02  0.67221842053E-02  0.00000000000E+00 0. -1.
       22    1    1    2    0    0  0.56137717527E-02 -0.17036517807E-02  0.33525202926E-01  0.34034630803E-01  0.00000000000E+00 0.  1.
       22    1    1    2    0    0 -0.87882091612E-02  0.29581847510E-02 -0.27734101593E-01  0.29243184991E-01  0.00000000000E+00 0. -1.
</event>
<event>
 5   0  0.4143600E+04  0.9118800E+02  0.7546771E-02  0.1180000E+00
      -11   -1    0    0    0    0  0.00000000000E+00  0.00000000000E+00  0.34996269501E-01  0.35000000000E-01  0.51099999109E-03 0.  1.
       11   -1    0    0    0    0 -0.00000000000E+00 -0.00000000000E+00 -0.34996269501E-01  0.35000000000E-01  0.51099999109E-03 0. -1.
       22    1    1    2    0    0 -0.43256847186E-04 -0.31292296981E-02  0.10790102994E-02  0.33103191514E-02  0.00000000000E+00 0. -1.
       22    1    1    2    0    0  0.22815240753E-01  0.28627318337E-04 -0.24774663868E-01  0.33679667456E-01  0.00000000000E+00 0. -1.
       22    1    1    2    0    0 -0.22771983906E-01  0.31006023797E-02  0.23695653569E-01  0.33010013393E-01  0.00000000000E+00 0.  1.
</event>
<event>
 5   0  0.4143600E+04  0.9118800E+02  0.7546771E-02  0.1180000E+00
      -11   -1    0    0    0    0  0.00000000000E+00  0.00000000000E+00  0.34996269501E-01  0.35000000000E-01  0.51099999109E-03 0. -1.
       11   -1    0    0    0    0 -0.00000000000E+00 -0.00000000000E+00 -0.34996269501E-01  0.35000000000E-01  0.51099999109E-03 0.  1.
       22    1    1    2    0    0 -0.16979154716E-02 -0.57695219000E-03 -0.67087868113E-02  0.69443222317E-02  0.00000000000E+00 0. -1.
       22    1    1    2    0    0  0.94038994953E-02  0.71003654841E-02 -0.26149190727E-01  0.28681504343E-01  0.00000000000E+00 0.  1.
       22    1    1    2    0    0 -0.77059840237E-02 -0.65234132941E-02  0.32857977538E-01  0.34374173425E-01  0.00000000000E+00 0. -1.
</event>
<event>
 5   0  0.4143600E+04  0.9118800E+02  0.7546771E-02  0.1180000E+00
      -11   -1    0    0    0    0  0.00000000000E+00  0.00000000000E+00  0.34996269501E-01  0.35000000000E-01  0.51099999109E-03 0.  1.
       11   -1    0    0    0    0 -0.00000000000E+00 -0.00000000000E+00 -0.34996269501E-01  0.35000000000E-01  0.51099999109E-03 0. -1.
       22    1    1    2    0    0 -0.15203617856E-01  0.96020482424E-02 -0.23024184439E-01  0.29214078720E-01  0.00000000000E+00 0. -1.
       22    1    1    2    0    0 -0.10047183003E-03 -0.16679802305E-03 -0.63464359650E-02  0.63494224640E-02  0.00000000000E+00 0. -1.
       22    1    1    2    0    0  0.15304089686E-01 -0.94352502193E-02  0.29370620404E-01  0.34436498816E-01  0.00000000000E+00 0.  1.
</event>
<event>
 5   0  0.4143600E+04  0.9118800E+02  0.7546771E-02  0.1180000E+00
      -11   -1    0    0    0    0  0.00000000000E+00  0.00000000000E+00  0.34996269501E-01  0.35000000000E-01  0.51099999109E-03 0.  1.
       11   -1    0    0    0    0 -0.00000000000E+00 -0.00000000000E+00 -0.34996269501E-01  0.35000000000E-01  0.51099999109E-03 0. -1.
       22    1    1    2    0    0  0.11567772923E-01 -0.19135125231E-01  0.25200367727E-01  0.33690130922E-01  0.00000000000E+00 0.  1.
       22    1    1    2    0    0  0.19898148646E-04  0.34699966059E-04  0.14973971066E-02  0.14979312797E-02  0.00000000000E+00 0. -1.
       22    1    1    2    0    0 -0.11587671071E-01  0.19100425265E-01 -0.26697764833E-01  0.34811937798E-01  0.00000000000E+00 0. -1.
</event>
<event>
 5   0  0.4143600E+04  0.9118800E+02  0.7546771E-02  0.1180000E+00
      -11   -1    0    0    0    0  0.00000000000E+00  0.00000000000E+00  0.34996269501E-01  0.35000000000E-01  0.51099999109E-03 0.  1.
       11   -1    0    0    0    0 -0.00000000000E+00 -0.00000000000E+00 -0.34996269501E-01  0.35000000000E-01  0.51099999109E-03 0. -1.
       22    1    1    2    0    0 -0.95153435611E-02  0.17571519300E-01  0.21688842553E-01  0.29490777286E-01  0.00000000000E+00 0.  1.
       22    1    1    2    0    0  0.92795881772E-02 -0.17648108673E-01 -0.27900334877E-01  0.34292786161E-01  0.00000000000E+00 0. -1.
       22    1    1    2    0    0  0.23575538381E-03  0.76589372548E-04  0.62114923236E-02  0.62164365531E-02  0.00000000000E+00 0. -1.
</event>
<event>
 5   0  0.4143600E+04  0.9118800E+02  0.7546771E-02  0.1180000E+00
      -11   -1    0    0    0    0  0.00000000000E+00  0.00000000000E+00  0.34996269501E-01  0.35000000000E-01  0.51099999109E-03 0.  1.
       11   -1    0    0    0    0 -0.00000000000E+00 -0.00000000000E+00 -0.34996269501E-01  0.35000000000E-01  0.51099999109E-03 0. -1.
       22    1    1    2    0    0 -0.11564084704E-01  0.17826324364E-01 -0.27508482787E-01  0.34759495403E-01  0.00000000000E+00 0. -1.
       22    1    1    2    0    0 -0.75128862426E-05  0.10095636977E-04  0.21426700757E-02  0.21427070305E-02  0.00000000000E+00 0.  1.
       22    1    1    2    0    0  0.11571597590E-01 -0.17836420001E-01  0.25365812712E-01  0.33097797567E-01  0.00000000000E+00 0.  1.
</event>
<event>
 5   0  0.4143600E+04  0.9118800E+02  0.7546771E-02  0.1180000E+00
      -11   -1    0    0    0    0  0.00000000000E+00  0.00000000000E+00  0.34996269501E-01  0.35000000000E-01  0.51099999109E-03 0. -1.
       11   -1    0    0    0    0 -0.00000000000E+00 -0.00000000000E+00 -0.34996269501E-01  0.35000000000E-01  0.51099999109E-03 0.  1.
       22    1    1    2    0    0  0.77196541341E-02 -0.16080548495E-01  0.29606372801E-01  0.34564641041E-01  0.00000000000E+00 0. -1.
       22    1    1    2    0    0 -0.11493082040E-02 -0.37404865885E-03 -0.39666514073E-03  0.12720711383E-02  0.00000000000E+00 0. -1.
       22    1    1    2    0    0 -0.65703459301E-02  0.16454597153E-01 -0.29209707660E-01  0.34163287821E-01  0.00000000000E+00 0.  1.
</event>
<event>
 5   0  0.4143600E+04  0.9118800E+02  0.7546771E-02  0.1180000E+00
      -11   -1    0    0    0    0  0.00000000000E+00  0.00000000000E+00  0.34996269501E-01  0.35000000000E-01  0.51099999109E-03 0. -1.
       11   -1    0    0    0    0 -0.00000000000E+00 -0.00000000000E+00 -0.34996269501E-01  0.35000000000E-01  0.51099999109E-03 0.  1.
       22    1    1    2    0    0  0.29638722421E-01  0.17901868631E-02 -0.17130748211E-01  0.34280040403E-01  0.00000000000E+00 0.  1.
       22    1    1    2    0    0 -0.29644995578E-01 -0.13930532394E-02  0.18038076462E-01  0.34729505649E-01  0.00000000000E+00 0. -1.
       22    1    1    2    0    0  0.62731570543E-05 -0.39713362368E-03 -0.90732825155E-03  0.99045394826E-03  0.00000000000E+00 0.  1.
</event>
<event>
 5   0  0.4143600E+04  0.9118800E+02  0.7546771E-02  0.1180000E+00
      -11   -1    0    0    0    0  0.00000000000E+00  0.00000000000E+00  0.34996269501E-01  0.35000000000E-01  0.51099999109E-03 0. -1.
       11   -1    0    0    0    0 -0.00000000000E+00 -0.00000000000E+00 -0.34996269501E-01  0.35000000000E-01  0.51099999109E-03 0.  1.
       22    1    1    2    0    0  0.43623907031E-05  0.10639772470E-04  0.43322991002E-03  0.43338249866E-03  0.00000000000E+00 0. -1.
       22    1    1    2    0    0 -0.54865315780E-02 -0.10125674415E-01 -0.33039998355E-01  0.34989609921E-01  0.00000000000E+00 0.  1.
       22    1    1    2    0    0  0.54821691873E-02  0.10115034643E-01  0.32606768445E-01  0.34577007581E-01  0.00000000000E+00 0. -1.
</event>
<event>
 5   0  0.4143600E+04  0.9118800E+02  0.7546771E-02  0.1180000E+00
      -11   -1    0    0    0    0  0.00000000000E+00  0.00000000000E+00  0.34996269501E-01  0.35000000000E-01  0.51099999109E-03 0. -1.
       11   -1    0    0    0    0 -0.00000000000E+00 -0.00000000000E+00 -0.34996269501E-01  0.35000000000E-01  0.51099999109E-03 0.  1.
       22    1    1    2    0    0  0.34083676006E-02  0.15686493481E-01  0.17310723897E-01  0.23608138624E-01  0.00000000000E+00 0. -1.
       22    1    1    2    0    0 -0.47540356087E-02 -0.16398879794E-01 -0.29512406483E-01  0.34095545889E-01  0.00000000000E+00 0.  1.
       22    1    1    2    0    0  0.13456680082E-02  0.71238631309E-03  0.12201682585E-01  0.12296315487E-01  0.00000000000E+00 0. -1.
</event>
<event>
 5   0  0.4143600E+04  0.9118800E+02  0.7546771E-02  0.1180000E+00
      -11   -1    0    0    0    0  0.00000000000E+00  0.00000000000E+00  0.34996269501E-01  0.35000000000E-01  0.51099999109E-03 0.  1.
       11   -1    0    0    0    0 -0.00000000000E+00 -0.00000000000E+00 -0.34996269501E-01  0.35000000000E-01  0.51099999109E-03 0. -1.
       22    1    1    2    0    0 -0.10121259129E-01 -0.17773444412E-01 -0.27752791818E-01  0.34475392185E-01  0.00000000000E+00 0. -1.
       22    1    1    2    0    0 -0.10745941076E-04  0.71332032790E-04 -0.59621818091E-03  0.60056627727E-03  0.00000000000E+00 0.  1.
       22    1    1    2    0    0  0.10132005070E-01  0.17702112379E-01  0.28349009999E-01  0.34924041538E-01  0.00000000000E+00 0.  1.
</event>
<event>
 5   0  0.4143600E+04  0.9118800E+02  0.7546771E-02  0.1180000E+00
      -11   -1    0    0    0    0  0.00000000000E+00  0.00000000000E+00  0.34996269501E-01  0.35000000000E-01  0.51099999109E-03 0.  1.
       11   -1    0    0    0    0 -0.00000000000E+00 -0.00000000000E+00 -0.34996269501E-01  0.35000000000E-01  0.51099999109E-03 0. -1.
       22    1    1    2    0    0  0.97151758274E-02  0.15176601344E-01 -0.28643907107E-01  0.33840615893E-01  0.00000000000E+00 0. -1.
       22    1    1    2    0    0  0.27326645737E-03 -0.10467171079E-03 -0.12165416934E-02  0.12512411500E-02  0.00000000000E+00 0.  1.
       22    1    1    2    0    0 -0.99884422848E-02 -0.15071929633E-01  0.29860448800E-01  0.34908142957E-01  0.00000000000E+00 0.  1.
</event>
<event>
 5   0  0.4143600E+04  0.9118800E+02  0.7546771E-02  0.1180000E+00
      -11   -1    0    0    0    0  0.00000000000E+00  0.00000000000E+00  0.34996269501E-01  0.35000000000E-01  0.51099999109E-03 0. -1.
       11   -1    0    0    0    0 -0.00000000000E+00 -0.00000000000E+00 -0.34996269501E-01  0.35000000000E-01  0.51099999109E-03 0.  1.
       22    1    1    2    0    0 -0.48845845914E-02 -0.83753773006E-02 -0.17349901883E-01  0.19875241052E-01  0.00000000000E+00 0.  1.
       22    1    1    2    0    0  0.14641411943E-01  0.18076682093E-01 -0.50804360066E-02  0.23810674269E-01  0.00000000000E+00 0. -1.
       22    1    1    2    0    0 -0.97568273512E-02 -0.97013047919E-02  0.22430337889E-01  0.26314084678E-01  0.00000000000E+00 0. -1.
</event>
<event>
 5   0  0.4143600E+04  0.9118800E+02  0.7546771E-02  0.1180000E+00
      -11   -1    0    0    0    0  0.00000000000E+00  0.00000000000E+00  0.34996269501E-01  0.35000000000E-01  0.51099999109E-03 0.  1.
       11   -1    0    0    0    0 -0.00000000000E+00 -0.00000000000E+00 -0.34996269501E-01  0.35000000000E-01  0.51099999109E-03 0. -1.
       22    1    1    2    0    0  0.74931618536E-03 -0.35371464489E-02 -0.19248195562E-01  0.19584838834E-01  0.00000000000E+00 0. -1.
       22    1    1    2    0    0  0.60880581331E-02  0.17826598587E-02  0.33721090385E-01  0.34312596299E-01  0.00000000000E+00 0.  1.
       22    1    1    2    0    0 -0.68373743184E-02  0.17544865902E-02 -0.14472894823E-01  0.16102564868E-01  0.00000000000E+00 0. -1.
</event>
<event>
 5   0  0.4143600E+04  0.9118800E+02  0.7546771E-02  0.1180000E+00
      -11   -1    0    0    0    0  0.00000000000E+00  0.00000000000E+00  0.34996269501E-01  0.35000000000E-01  0.51099999109E-03 0. -1.
       11   -1    0    0    0    0 -0.00000000000E+00 -0.00000000000E+00 -0.34996269501E-01  0.35000000000E-01  0.51099999109E-03 0.  1.
       22    1    1    2    0    0 -0.18696412748E-01 -0.59862547976E-02 -0.28941819508E-01  0.34971703027E-01  0.00000000000E+00 0.  1.
       22    1    1    2    0    0  0.18724807206E-04 -0.21562647150E-04  0.35515472169E-03  0.35630105599E-03  0.00000000000E+00 0. -1.
       22    1    1    2    0    0  0.18677687941E-01  0.60078174448E-02  0.28586664786E-01  0.34671995917E-01  0.00000000000E+00 0. -1.
</event>
<event>
 5   0  0.4143600E+04  0.9118800E+02  0.7546771E-02  0.1180000E+00
      -11   -1    0    0    0    0  0.00000000000E+00  0.00000000000E+00  0.34996269501E-01  0.35000000000E-01  0.51099999109E-03 0. -1.
       11   -1    0    0    0    0 -0.00000000000E+00 -0.00000000000E+00 -0.34996269501E-01  0.35000000000E-01  0.51099999109E-03 0.  1.
       22    1    1    2    0    0 -0.10313256614E-01 -0.29314344709E-02 -0.20463759628E-01  0.23102424725E-01  0.00000000000E+00 0. -1.
       22    1    1    2    0    0  0.55054542188E-02 -0.43380779300E-02  0.31819738063E-01  0.32582582413E-01  0.00000000000E+00 0. -1.
       22    1    1    2    0    0  0.48078023954E-02  0.72695124010E-02 -0.11355978435E-01  0.14314992862E-01  0.00000000000E+00 0.  1.
</event>
<event>
 5   0  0.4143600E+04  0.9118800E+02  0.7546771E-02  0.1180000E+00
      -11   -1    0    0    0    0  0.00000000000E+00  0.00000000000E+00  0.34996269501E-01  0.35000000000E-01  0.51099999109E-03 0.  1.
       11   -1    0    0    0    0 -0.00000000000E+00 -0.00000000000E+00 -0.34996269501E-01  0.35000000000E-01  0.51099999109E-03 0.  1.
       22    1    1    2    0    0  0.17744145456E-01  0.76318952625E-02 -0.24944545888E-01  0.31548865159E-01  0.00000000000E+00 0.  1.
       22    1    1    2    0    0 -0.00000000000E+00 -0.00000000000E+00  0.17887590024E-01  0.17886574323E-01  0.00000000000E+00 0.  1.
       22    1    1    2    0    0 -0.17744145456E-01 -0.76318952625E-02  0.70569558638E-02  0.20564560518E-01  0.00000000000E+00 0. -1.
</event>
<event>
 5   0  0.4143600E+04  0.9118800E+02  0.7546771E-02  0.1180000E+00
      -11   -1    0    0    0    0  0.00000000000E+00  0.00000000000E+00  0.34996269501E-01  0.35000000000E-01  0.51099999109E-03 0. -1.
       11   -1    0    0    0    0 -0.00000000000E+00 -0.00000000000E+00 -0.34996269501E-01  0.35000000000E-01  0.51099999109E-03 0.  1.
       22    1    1    2    0    0  0.11209454130E-01 -0.10382760630E-01 -0.29989620072E-01  0.33657553272E-01  0.00000000000E+00 0.  1.
       22    1    1    2    0    0 -0.11944273211E-01  0.10002547573E-01  0.31201673076E-01  0.34874934025E-01  0.00000000000E+00 0. -1.
       22    1    1    2    0    0  0.73481908131E-03  0.38021305673E-03 -0.12120530035E-02  0.14675127032E-02  0.00000000000E+00 0. -1.
</event>
<event>
 5   0  0.4143600E+04  0.9118800E+02  0.7546771E-02  0.1180000E+00
      -11   -1    0    0    0    0  0.00000000000E+00  0.00000000000E+00  0.34996269501E-01  0.35000000000E-01  0.51099999109E-03 0.  1.
       11   -1    0    0    0    0 -0.00000000000E+00 -0.00000000000E+00 -0.34996269501E-01  0.35000000000E-01  0.51099999109E-03 0. -1.
       22    1    1    2    0    0  0.38371861183E-04  0.15016661958E-03  0.14660826847E-02  0.14742526418E-02  0.00000000000E+00 0. -1.
       22    1    1    2    0    0  0.55090653930E-02 -0.14867767596E-01 -0.31138275343E-01  0.34942703188E-01  0.00000000000E+00 0. -1.
       22    1    1    2    0    0 -0.55474372542E-02  0.14717600976E-01  0.29672192658E-01  0.33583044170E-01  0.00000000000E+00 0.  1.
</event>
<event>
 5   0  0.4143600E+04  0.9118800E+02  0.7546771E-02  0.1180000E+00
      -11   -1    0    0    0    0  0.00000000000E+00  0.00000000000E+00  0.34996269501E-01  0.35000000000E-01  0.51099999109E-03 0.  1.
       11   -1    0    0    0    0 -0.00000000000E+00 -0.00000000000E+00 -0.34996269501E-01  0.35000000000E-01  0.51099999109E-03 0. -1.
       22    1    1    2    0    0  0.91069087846E-02  0.18547086630E-01 -0.27928950128E-01  0.34741278982E-01  0.00000000000E+00 0. -1.
       22    1    1    2    0    0 -0.91256082170E-02 -0.18532289861E-01  0.25444482361E-01  0.32774138821E-01  0.00000000000E+00 0.  1.
       22    1    1    2    0    0  0.18699432385E-04 -0.14796768786E-04  0.24844677662E-02  0.24845821972E-02  0.00000000000E+00 0. -1.
</event>
<event>
 5   0  0.4143600E+04  0.9118800E+02  0.7546771E-02  0.1180000E+00
      -11   -1    0    0    0    0  0.00000000000E+00  0.00000000000E+00  0.34996269501E-01  0.35000000000E-01  0.51099999109E-03 0. -1.
       11   -1    0    0    0    0 -0.00000000000E+00 -0.00000000000E+00 -0.34996269501E-01  0.35000000000E-01  0.51099999109E-03 0.  1.
       22    1    1    2    0    0  0.15632303502E-01 -0.13541353264E-01 -0.27626571342E-01  0.34510355041E-01  0.00000000000E+00 0.  1.
       22    1    1    2    0    0 -0.15647504375E-01  0.13763391250E-01  0.28089709515E-01  0.34975807532E-01  0.00000000000E+00 0. -1.
       22    1    1    2    0    0  0.15200873792E-04 -0.22203798562E-03 -0.46313817327E-03  0.51383742678E-03  0.00000000000E+00 0.  1.
</event>
<event>
 5   0  0.4143600E+04  0.9118800E+02  0.7546771E-02  0.1180000E+00
      -11   -1    0    0    0    0  0.00000000000E+00  0.00000000000E+00  0.34996269501E-01  0.35000000000E-01  0.51099999109E-03 0.  1.
       11   -1    0    0    0    0 -0.00000000000E+00 -0.00000000000E+00 -0.34996269501E-01  0.35000000000E-01  0.51099999109E-03 0. -1.
       22    1    1    2    0    0  0.61516950874E-02  0.10241368169E-01 -0.31324622137E-01  0.33525526490E-01  0.00000000000E+00 0. -1.
       22    1    1    2    0    0 -0.58575586727E-02 -0.10398093642E-01  0.32830368222E-01  0.34932283386E-01  0.00000000000E+00 0.  1.
       22    1    1    2    0    0 -0.29413641467E-03  0.15672547287E-03 -0.15057460853E-02  0.15421901237E-02  0.00000000000E+00 0. -1.
</event>
<event>
 5   0  0.4143600E+04  0.9118800E+02  0.7546771E-02  0.1180000E+00
      -11   -1    0    0    0    0  0.00000000000E+00  0.00000000000E+00  0.34996269501E-01  0.35000000000E-01  0.51099999109E-03 0. -1.
       11   -1    0    0    0    0 -0.00000000000E+00 -0.00000000000E+00 -0.34996269501E-01  0.35000000000E-01  0.51099999109E-03 0.  1.
       22    1    1    2    0    0 -0.12107703745E-01 -0.70826249040E-02 -0.51197822026E-02  0.14932254863E-01  0.00000000000E+00 0. -1.
       22    1    1    2    0    0  0.36539320396E-02 -0.81969232581E-03  0.28624707262E-01  0.28868615844E-01  0.00000000000E+00 0. -1.
       22    1    1    2    0    0  0.84537717053E-02  0.79023172298E-02 -0.23504925060E-01  0.26199129293E-01  0.00000000000E+00 0.  1.
</event>
<event>
 5   0  0.4143600E+04  0.9118800E+02  0.7546771E-02  0.1180000E+00
      -11   -1    0    0    0    0  0.00000000000E+00  0.00000000000E+00  0.34996269501E-01  0.35000000000E-01  0.51099999109E-03 0.  1.
       11   -1    0    0    0    0 -0.00000000000E+00 -0.00000000000E+00 -0.34996269501E-01  0.35000000000E-01  0.51099999109E-03 0. -1.
       22    1    1    2    0    0  0.10354869947E-02 -0.19812492938E-01 -0.28751348220E-01  0.34932035930E-01  0.00000000000E+00 0. -1.
       22    1    1    2    0    0  0.13990387656E-03 -0.68053395065E-04  0.31526951386E-03  0.35156681531E-03  0.00000000000E+00 0.  1.
       22    1    1    2    0    0 -0.11753908713E-02  0.19880546333E-01  0.28436078706E-01  0.34716397255E-01  0.00000000000E+00 0.  1.
</event>
<event>
 5   0  0.4143600E+04  0.9118800E+02  0.7546771E-02  0.1180000E+00
      -11   -1    0    0    0    0  0.00000000000E+00  0.00000000000E+00  0.34996269501E-01  0.35000000000E-01  0.51099999109E-03 0.  1.
       11   -1    0    0    0    0 -0.00000000000E+00 -0.00000000000E+00 -0.34996269501E-01  0.35000000000E-01  0.51099999109E-03 0. -1.
       22    1    1    2    0    0  0.16444377118E-02  0.97999632168E-02  0.33489886873E-01  0.34933021301E-01  0.00000000000E+00 0.  1.
       22    1    1    2    0    0 -0.22172338079E-02 -0.94400160825E-02 -0.31837422892E-01  0.33281399097E-01  0.00000000000E+00 0. -1.
       22    1    1    2    0    0  0.57279609614E-03 -0.35994713435E-03 -0.16524639810E-02  0.17855796022E-02  0.00000000000E+00 0. -1.
</event>
<event>
 5   0  0.4143600E+04  0.9118800E+02  0.7546771E-02  0.1180000E+00
      -11   -1    0    0    0    0  0.00000000000E+00  0.00000000000E+00  0.34996269501E-01  0.35000000000E-01  0.51099999109E-03 0. -1.
       11   -1    0    0    0    0 -0.00000000000E+00 -0.00000000000E+00 -0.34996269501E-01  0.35000000000E-01  0.51099999109E-03 0.  1.
       22    1    1    2    0    0  0.88578577832E-04  0.97860944452E-05  0.41739242391E-03  0.42680014952E-03  0.00000000000E+00 0. -1.
       22    1    1    2    0    0  0.56966195785E-02 -0.11627824962E-01 -0.32489445174E-01  0.34974588427E-01  0.00000000000E+00 0.  1.
       22    1    1    2    0    0 -0.57851981563E-02  0.11618038868E-01  0.32072052750E-01  0.34598611423E-01  0.00000000000E+00 0. -1.
</event>
<event>
 5   0  0.4143600E+04  0.9118800E+02  0.7546771E-02  0.1180000E+00
      -11   -1    0    0    0    0  0.00000000000E+00  0.00000000000E+00  0.34996269501E-01  0.35000000000E-01  0.51099999109E-03 0.  1.
       11   -1    0    0    0    0 -0.00000000000E+00 -0.00000000000E+00 -0.34996269501E-01  0.35000000000E-01  0.51099999109E-03 0. -1.
       22    1    1    2    0    0  0.85513041683E-02 -0.10510342856E-01 -0.32117869648E-01  0.34858996839E-01  0.00000000000E+00 0. -1.
       22    1    1    2    0    0 -0.78022733742E-02  0.10341039233E-01  0.26785041472E-01  0.29753168048E-01  0.00000000000E+00 0.  1.
       22    1    1    2    0    0 -0.74903079406E-03  0.16930362251E-03  0.53328281761E-02  0.53878351128E-02  0.00000000000E+00 0. -1.
</event>
<event>
 5   0  0.4143600E+04  0.9118800E+02  0.7546771E-02  0.1180000E+00
      -11   -1    0    0    0    0  0.00000000000E+00  0.00000000000E+00  0.34996269501E-01  0.35000000000E-01  0.51099999109E-03 0.  1.
       11   -1    0    0    0    0 -0.00000000000E+00 -0.00000000000E+00 -0.34996269501E-01  0.35000000000E-01  0.51099999109E-03 0. -1.
       22    1    1    2    0    0  0.71489965575E-02  0.11450212971E-01 -0.32274184769E-01  0.34983403656E-01  0.00000000000E+00 0. -1.
       22    1    1    2    0    0 -0.71419016290E-02 -0.11456448491E-01  0.31859476257E-01  0.34601780276E-01  0.00000000000E+00 0.  1.
       22    1    1    2    0    0 -0.70949284779E-05  0.62355193406E-05  0.41470851212E-03  0.41481606736E-03  0.00000000000E+00 0.  1.
</event>
<event>
 5   0  0.4143600E+04  0.9118800E+02  0.7546771E-02  0.1180000E+00
      -11   -1    0    0    0    0  0.00000000000E+00  0.00000000000E+00  0.34996269501E-01  0.35000000000E-01  0.51099999109E-03 0.  1.
       11   -1    0    0    0    0 -0.00000000000E+00 -0.00000000000E+00 -0.34996269501E-01  0.35000000000E-01  0.51099999109E-03 0. -1.
       22    1    1    2    0    0  0.20628074275E-01  0.27713154272E-03  0.28129766380E-01  0.34883778562E-01  0.00000000000E+00 0.  1.
       22    1    1    2    0    0 -0.20680292528E-01 -0.22244262601E-03 -0.27131684388E-01  0.34115279238E-01  0.00000000000E+00 0. -1.
       22    1    1    2    0    0  0.52218253424E-04 -0.54688916712E-04 -0.99808199225E-03  0.10009421996E-02  0.00000000000E+00 0. -1.
</event>
<event>
 5   0  0.4143600E+04  0.9118800E+02  0.7546771E-02  0.1180000E+00
      -11   -1    0    0    0    0  0.00000000000E+00  0.00000000000E+00  0.34996269501E-01  0.35000000000E-01  0.51099999109E-03 0.  1.
       11   -1    0    0    0    0 -0.00000000000E+00 -0.00000000000E+00 -0.34996269501E-01  0.35000000000E-01  0.51099999109E-03 0.  1.
       22    1    1    2    0    0  0.72884832192E-03 -0.38402102962E-03 -0.26621815417E-01  0.26634559282E-01  0.00000000000E+00 0.  1.
       22    1    1    2    0    0  0.93294833348E-03 -0.63199562640E-02 -0.67456436461E-02  0.92906376515E-02  0.00000000000E+00 0.  1.
       22    1    1    2    0    0 -0.16617966554E-02  0.67039772937E-02  0.33367459063E-01  0.34074803067E-01  0.00000000000E+00 0.  1.
</event>
<event>
 5   0  0.4143600E+04  0.9118800E+02  0.7546771E-02  0.1180000E+00
      -11   -1    0    0    0    0  0.00000000000E+00  0.00000000000E+00  0.34996269501E-01  0.35000000000E-01  0.51099999109E-03 0.  1.
       11   -1    0    0    0    0 -0.00000000000E+00 -0.00000000000E+00 -0.34996269501E-01  0.35000000000E-01  0.51099999109E-03 0. -1.
       22    1    1    2    0    0  0.57770721097E-04  0.12838788603E-04  0.44375369599E-03  0.44768251408E-03  0.00000000000E+00 0. -1.
       22    1    1    2    0    0  0.11959210551E-01  0.70552346163E-02  0.31649674209E-01  0.34561552772E-01  0.00000000000E+00 0.  1.
       22    1    1    2    0    0 -0.12016981272E-01 -0.70680734049E-02 -0.32093427905E-01  0.34990764714E-01  0.00000000000E+00 0. -1.
</event>
<event>
 5   0  0.4143600E+04  0.9118800E+02  0.7546771E-02  0.1180000E+00
      -11   -1    0    0    0    0  0.00000000000E+00  0.00000000000E+00  0.34996269501E-01  0.35000000000E-01  0.51099999109E-03 0.  1.
       11   -1    0    0    0    0 -0.00000000000E+00 -0.00000000000E+00 -0.34996269501E-01  0.35000000000E-01  0.51099999109E-03 0. -1.
       22    1    1    2    0    0 -0.20292163815E-02  0.10413230395E-02  0.34815458251E-01  0.34890087503E-01  0.00000000000E+00 0.  1.
       22    1    1    2    0    0  0.10511777336E-02 -0.15722008052E-03 -0.31812912364E-01  0.31830662667E-01  0.00000000000E+00 0. -1.
       22    1    1    2    0    0  0.97803864789E-03 -0.88410295900E-03 -0.30025458872E-02  0.32792498294E-02  0.00000000000E+00 0.  1.
</event>
<event>
 5   0  0.4143600E+04  0.9118800E+02  0.7546771E-02  0.1180000E+00
      -11   -1    0    0    0    0  0.00000000000E+00  0.00000000000E+00  0.34996269501E-01  0.35000000000E-01  0.51099999109E-03 0.  1.
       11   -1    0    0    0    0 -0.00000000000E+00 -0.00000000000E+00 -0.34996269501E-01  0.35000000000E-01  0.51099999109E-03 0. -1.
       22    1    1    2    0    0  0.12610113529E-01  0.86166309009E-02 -0.31032085754E-01  0.34586870884E-01  0.00000000000E+00 0. -1.
       22    1    1    2    0    0 -0.23200477039E-03  0.52537195684E-03  0.60142817427E-02  0.60416410674E-02  0.00000000000E+00 0.  1.
       22    1    1    2    0    0 -0.12378108758E-01 -0.91420028577E-02  0.25017804011E-01  0.29371488049E-01  0.00000000000E+00 0.  1.
</event>
<event>
 5   0  0.4143600E+04  0.9118800E+02  0.7546771E-02  0.1180000E+00
      -11   -1    0    0    0    0  0.00000000000E+00  0.00000000000E+00  0.34996269501E-01  0.35000000000E-01  0.51099999109E-03 0.  1.
       11   -1    0    0    0    0 -0.00000000000E+00 -0.00000000000E+00 -0.34996269501E-01  0.35000000000E-01  0.51099999109E-03 0. -1.
       22    1    1    2    0    0 -0.71939791958E-02  0.10706242634E-01  0.21201399284E-01  0.24816855151E-01  0.00000000000E+00 0.  1.
       22    1    1    2    0    0  0.33958598209E-03  0.18918461989E-02  0.10348977198E-01  0.10525955051E-01  0.00000000000E+00 0.  1.
       22    1    1    2    0    0  0.68543932137E-02 -0.12598088832E-01 -0.31550376482E-01  0.34657189798E-01  0.00000000000E+00 0. -1.
</event>
<event>
 5   0  0.4143600E+04  0.9118800E+02  0.7546771E-02  0.1180000E+00
      -11   -1    0    0    0    0  0.00000000000E+00  0.00000000000E+00  0.34996269501E-01  0.35000000000E-01  0.51099999109E-03 0. -1.
       11   -1    0    0    0    0 -0.00000000000E+00 -0.00000000000E+00 -0.34996269501E-01  0.35000000000E-01  0.51099999109E-03 0.  1.
       22    1    1    2    0    0  0.21048682837E-01 -0.38388394852E-02  0.27101005109E-01  0.34528947503E-01  0.00000000000E+00 0. -1.
       22    1    1    2    0    0 -0.33243844912E-03  0.41207916762E-03 -0.48421797099E-02  0.48710398177E-02  0.00000000000E+00 0. -1.
       22    1    1    2    0    0 -0.20716244388E-01  0.34267603176E-02 -0.22258825399E-01  0.30600012679E-01  0.00000000000E+00 0.  1.
</event>
<event>
 5   0  0.4143600E+04  0.9118800E+02  0.7546771E-02  0.1180000E+00
      -11   -1    0    0    0    0  0.00000000000E+00  0.00000000000E+00  0.34996269501E-01  0.35000000000E-01  0.51099999109E-03 0.  1.
       11   -1    0    0    0    0 -0.00000000000E+00 -0.00000000000E+00 -0.34996269501E-01  0.35000000000E-01  0.51099999109E-03 0. -1.
       22    1    1    2    0    0 -0.75488432824E-04  0.29246487230E-03  0.31421418048E-02  0.31566262571E-02  0.00000000000E+00 0.  1.
       22    1    1    2    0    0  0.20149764968E-02 -0.20571115583E-01 -0.27937800586E-01  0.34752721163E-01  0.00000000000E+00 0. -1.
       22    1    1    2    0    0 -0.19394880640E-02  0.20278650711E-01  0.24795658782E-01  0.32090652580E-01  0.00000000000E+00 0.  1.
</event>
<event>
 5   0  0.4143600E+04  0.9118800E+02  0.7546771E-02  0.1180000E+00
      -11   -1    0    0    0    0  0.00000000000E+00  0.00000000000E+00  0.34996269501E-01  0.35000000000E-01  0.51099999109E-03 0.  1.
       11   -1    0    0    0    0 -0.00000000000E+00 -0.00000000000E+00 -0.34996269501E-01  0.35000000000E-01  0.51099999109E-03 0. -1.
       22    1    1    2    0    0  0.11936277787E-01 -0.17443386618E-01 -0.22574504849E-01  0.30924985583E-01  0.00000000000E+00 0. -1.
       22    1    1    2    0    0 -0.12089215605E-01  0.17256563341E-01  0.27220759653E-01  0.34422490735E-01  0.00000000000E+00 0.  1.
       22    1    1    2    0    0  0.15293781862E-03  0.18682327698E-03 -0.46462548037E-02  0.46525236822E-02  0.00000000000E+00 0. -1.
</event>
<event>
 5   0  0.4143600E+04  0.9118800E+02  0.7546771E-02  0.1180000E+00
      -11   -1    0    0    0    0  0.00000000000E+00  0.00000000000E+00  0.34996269501E-01  0.35000000000E-01  0.51099999109E-03 0.  1.
       11   -1    0    0    0    0 -0.00000000000E+00 -0.00000000000E+00 -0.34996269501E-01  0.35000000000E-01  0.51099999109E-03 0. -1.
       22    1    1    2    0    0 -0.15153564213E-02  0.14766654863E-03 -0.75578769832E-02  0.77097091376E-02  0.00000000000E+00 0.  1.
       22    1    1    2    0    0  0.10651126560E-01 -0.30655677239E-02 -0.25534511223E-01  0.27836225783E-01  0.00000000000E+00 0. -1.
       22    1    1    2    0    0 -0.91357701384E-02  0.29179011753E-02  0.33092388206E-01  0.34454065079E-01  0.00000000000E+00 0.  1.
</event>
<event>
 5   0  0.4143600E+04  0.9118800E+02  0.7546771E-02  0.1180000E+00
      -11   -1    0    0    0    0  0.00000000000E+00  0.00000000000E+00  0.34996269501E-01  0.35000000000E-01  0.51099999109E-03 0. -1.
       11   -1    0    0    0    0 -0.00000000000E+00 -0.00000000000E+00 -0.34996269501E-01  0.35000000000E-01  0.51099999109E-03 0.  1.
       22    1    1    2    0    0 -0.10816607573E-03  0.16033680318E-03 -0.38054890232E-03  0.42687850431E-03  0.00000000000E+00 0.  1.
       22    1    1    2    0    0 -0.10169847559E-03 -0.29583767368E-01 -0.18237251817E-01  0.34753517636E-01  0.00000000000E+00 0.  1.
       22    1    1    2    0    0  0.20986455132E-03  0.29423430565E-01  0.18617800719E-01  0.34819603860E-01  0.00000000000E+00 0. -1.
</event>
<event>
 5   0  0.4143600E+04  0.9118800E+02  0.7546771E-02  0.1180000E+00
      -11   -1    0    0    0    0  0.00000000000E+00  0.00000000000E+00  0.34996269501E-01  0.35000000000E-01  0.51099999109E-03 0.  1.
       11   -1    0    0    0    0 -0.00000000000E+00 -0.00000000000E+00 -0.34996269501E-01  0.35000000000E-01  0.51099999109E-03 0.  1.
       22    1    1    2    0    0 -0.68132271108E-03 -0.83976449832E-03  0.34867628006E-01  0.34884393184E-01  0.00000000000E+00 0.  1.
       22    1    1    2    0    0  0.26940712212E-03  0.25827373337E-04 -0.33305692600E-01  0.33306792203E-01  0.00000000000E+00 0.  1.
       22    1    1    2    0    0  0.41191558896E-03  0.81393712498E-03 -0.15619354054E-02  0.18088146137E-02  0.00000000000E+00 0. -1.
</event>
<event>
 5   0  0.4143600E+04  0.9118800E+02  0.7546771E-02  0.1180000E+00
      -11   -1    0    0    0    0  0.00000000000E+00  0.00000000000E+00  0.34996269501E-01  0.35000000000E-01  0.51099999109E-03 0. -1.
       11   -1    0    0    0    0 -0.00000000000E+00 -0.00000000000E+00 -0.34996269501E-01  0.35000000000E-01  0.51099999109E-03 0. -1.
       22    1    1    2    0    0 -0.38108954686E-03  0.37838958698E-02 -0.29031062914E-01  0.29279100245E-01  0.00000000000E+00 0. -1.
       22    1    1    2    0    0  0.38108954686E-03 -0.37838958698E-02 -0.52279381571E-02  0.64648615276E-02  0.00000000000E+00 0.  1.
       22    1    1    2    0    0  0.00000000000E+00  0.00000000000E+00  0.34259001072E-01  0.34256038228E-01  0.00000000000E+00 0. -1.
</event>
<event>
 5   0  0.4143600E+04  0.9118800E+02  0.7546771E-02  0.1180000E+00
      -11   -1    0    0    0    0  0.00000000000E+00  0.00000000000E+00  0.34996269501E-01  0.35000000000E-01  0.51099999109E-03 0. -1.
       11   -1    0    0    0    0 -0.00000000000E+00 -0.00000000000E+00 -0.34996269501E-01  0.35000000000E-01  0.51099999109E-03 0.  1.
       22    1    1    2    0    0  0.10185983518E-02 -0.36075172120E-02  0.32468081205E-01  0.32683757743E-01  0.00000000000E+00 0. -1.
       22    1    1    2    0    0  0.23327919931E-02 -0.64485612527E-02 -0.73452742381E-02  0.10048826516E-01  0.00000000000E+00 0. -1.
       22    1    1    2    0    0 -0.33513903448E-02  0.10056078465E-01 -0.25122806967E-01  0.27267415742E-01  0.00000000000E+00 0.  1.
</event>
<event>
 5   0  0.4143600E+04  0.9118800E+02  0.7546771E-02  0.1180000E+00
      -11   -1    0    0    0    0  0.00000000000E+00  0.00000000000E+00  0.34996269501E-01  0.35000000000E-01  0.51099999109E-03 0. -1.
       11   -1    0    0    0    0 -0.00000000000E+00 -0.00000000000E+00 -0.34996269501E-01  0.35000000000E-01  0.51099999109E-03 0.  1.
       22    1    1    2    0    0 -0.23710619324E-02  0.27404105213E-02  0.34761184699E-01  0.34949560029E-01  0.00000000000E+00 0. -1.
       22    1    1    2    0    0  0.25059979869E-02 -0.23452013747E-02 -0.34073214704E-01  0.34245641411E-01  0.00000000000E+00 0.  1.
       22    1    1    2    0    0 -0.13493605447E-03 -0.39520914657E-03 -0.68796999537E-03  0.80479856043E-03  0.00000000000E+00 0. -1.
</event>
<event>
 5   0  0.4143600E+04  0.9118800E+02  0.7546771E-02  0.1180000E+00
      -11   -1    0    0    0    0  0.00000000000E+00  0.00000000000E+00  0.34996269501E-01  0.35000000000E-01  0.51099999109E-03 0.  1.
       11   -1    0    0    0    0 -0.00000000000E+00 -0.00000000000E+00 -0.34996269501E-01  0.35000000000E-01  0.51099999109E-03 0. -1.
       22    1    1    2    0    0  0.19533338901E-01  0.24557631484E-01  0.11658955697E-01  0.33474764236E-01  0.00000000000E+00 0.  1.
       22    1    1    2    0    0  0.15443507586E-02 -0.14728114207E-02 -0.36947947956E-02  0.42668139552E-02  0.00000000000E+00 0.  1.
       22    1    1    2    0    0 -0.21077689660E-01 -0.23084820063E-01 -0.79641609018E-02  0.32258421809E-01  0.00000000000E+00 0. -1.
</event>
<event>
 5   0  0.4143600E+04  0.9118800E+02  0.7546771E-02  0.1180000E+00
      -11   -1    0    0    0    0  0.00000000000E+00  0.00000000000E+00  0.34996269501E-01  0.35000000000E-01  0.51099999109E-03 0.  1.
       11   -1    0    0    0    0 -0.00000000000E+00 -0.00000000000E+00 -0.34996269501E-01  0.35000000000E-01  0.51099999109E-03 0. -1.
       22    1    1    2    0    0  0.74755466375E-04  0.30043447884E-04 -0.70787399290E-03  0.71244408786E-03  0.00000000000E+00 0.  1.
       22    1    1    2    0    0  0.53136604953E-02 -0.20470240291E-01 -0.27088580354E-01  0.34366508566E-01  0.00000000000E+00 0. -1.
       22    1    1    2    0    0 -0.53884159617E-02  0.20440196843E-01  0.27796454346E-01  0.34921047347E-01  0.00000000000E+00 0.  1.
</event>
<event>
 5   0  0.4143600E+04  0.9118800E+02  0.7546771E-02  0.1180000E+00
      -11   -1    0    0    0    0  0.00000000000E+00  0.00000000000E+00  0.34996269501E-01  0.35000000000E-01  0.51099999109E-03 0.  1.
       11   -1    0    0    0    0 -0.00000000000E+00 -0.00000000000E+00 -0.34996269501E-01  0.35000000000E-01  0.51099999109E-03 0. -1.
       22    1    1    2    0    0  0.54150375538E-02 -0.18254660791E-02 -0.22342258066E-01  0.23061471193E-01  0.00000000000E+00 0. -1.
       22    1    1    2    0    0  0.15844528393E-03  0.11137481959E-02  0.33988832390E-01  0.34007444290E-01  0.00000000000E+00 0.  1.
       22    1    1    2    0    0 -0.55734828377E-02  0.71171788322E-03 -0.11646574324E-01  0.12931084516E-01  0.00000000000E+00 0.  1.
</event>
<event>
 5   0  0.4143600E+04  0.9118800E+02  0.7546771E-02  0.1180000E+00
      -11   -1    0    0    0    0  0.00000000000E+00  0.00000000000E+00  0.34996269501E-01  0.35000000000E-01  0.51099999109E-03 0.  1.
       11   -1    0    0    0    0 -0.00000000000E+00 -0.00000000000E+00 -0.34996269501E-01  0.35000000000E-01  0.51099999109E-03 0. -1.
       22    1    1    2    0    0 -0.79249494465E-02 -0.45018796756E-02  0.33725008892E-01  0.34934910463E-01  0.00000000000E+00 0.  1.
       22    1    1    2    0    0 -0.23320698778E-03  0.25961431489E-03 -0.67649429679E-03  0.76120274909E-03  0.00000000000E+00 0.  1.
       22    1    1    2    0    0  0.81581564343E-02  0.42422653607E-02 -0.33048514595E-01  0.34303886787E-01  0.00000000000E+00 0. -1.
</event>
<event>
 5   0  0.4143600E+04  0.9118800E+02  0.7546771E-02  0.1180000E+00
      -11   -1    0    0    0    0  0.00000000000E+00  0.00000000000E+00  0.34996269501E-01  0.35000000000E-01  0.51099999109E-03 0.  1.
       11   -1    0    0    0    0 -0.00000000000E+00 -0.00000000000E+00 -0.34996269501E-01  0.35000000000E-01  0.51099999109E-03 0. -1.
       22    1    1    2    0    0 -0.46191021938E-02  0.73334920699E-02 -0.21581084450E-01  0.23256384436E-01  0.00000000000E+00 0. -1.
       22    1    1    2    0    0 -0.43814429523E-03 -0.23813080452E-01  0.15716134836E-01  0.28535095325E-01  0.00000000000E+00 0. -1.
       22    1    1    2    0    0  0.50572464891E-02  0.16479588382E-01  0.58649496144E-02  0.18208520238E-01  0.00000000000E+00 0.  1.
</event>
<event>
 5   0  0.4143600E+04  0.9118800E+02  0.7546771E-02  0.1180000E+00
      -11   -1    0    0    0    0  0.00000000000E+00  0.00000000000E+00  0.34996269501E-01  0.35000000000E-01  0.51099999109E-03 0.  1.
       11   -1    0    0    0    0 -0.00000000000E+00 -0.00000000000E+00 -0.34996269501E-01  0.35000000000E-01  0.51099999109E-03 0. -1.
       22    1    1    2    0    0  0.44220942411E-04 -0.81795539063E-04 -0.15828247679E-02  0.15855536093E-02  0.00000000000E+00 0. -1.
       22    1    1    2    0    0  0.10803949280E-01 -0.10673705241E-01 -0.29835861340E-01  0.33478828019E-01  0.00000000000E+00 0. -1.
       22    1    1    2    0    0 -0.10848170223E-01  0.10755500780E-01  0.31418686108E-01  0.34935618371E-01  0.00000000000E+00 0.  1.
</event>
<event>
 5   0  0.4143600E+04  0.9118800E+02  0.7546771E-02  0.1180000E+00
      -11   -1    0    0    0    0  0.00000000000E+00  0.00000000000E+00  0.34996269501E-01  0.35000000000E-01  0.51099999109E-03 0.  1.
       11   -1    0    0    0    0 -0.00000000000E+00 -0.00000000000E+00 -0.34996269501E-01  0.35000000000E-01  0.51099999109E-03 0. -1.
       22    1    1    2    0    0  0.36413263384E-02 -0.77151347117E-02  0.33881384211E-01  0.34938957586E-01  0.00000000000E+00 0.  1.
       22    1    1    2    0    0  0.34884813876E-03  0.34623503971E-04 -0.10022972992E-02  0.10618350564E-02  0.00000000000E+00 0. -1.
       22    1    1    2    0    0 -0.39901744772E-02  0.76805112077E-02 -0.32879086912E-01  0.33999207358E-01  0.00000000000E+00 0. -1.
</event>
<event>
 5   0  0.4143600E+04  0.9118800E+02  0.7546771E-02  0.1180000E+00
      -11   -1    0    0    0    0  0.00000000000E+00  0.00000000000E+00  0.34996269501E-01  0.35000000000E-01  0.51099999109E-03 0.  1.
       11   -1    0    0    0    0 -0.00000000000E+00 -0.00000000000E+00 -0.34996269501E-01  0.35000000000E-01  0.51099999109E-03 0. -1.
       22    1    1    2    0    0  0.14819064662E-02  0.61102433309E-02  0.34115211380E-01  0.34689750184E-01  0.00000000000E+00 0.  1.
       22    1    1    2    0    0  0.51313617165E-03 -0.91047789187E-03 -0.21439794725E-01  0.21465252772E-01  0.00000000000E+00 0. -1.
       22    1    1    2    0    0 -0.19950426379E-02 -0.51997654390E-02 -0.12675416656E-01  0.13844997044E-01  0.00000000000E+00 0. -1.
</event>
<event>
 5   0  0.4143600E+04  0.9118800E+02  0.7546771E-02  0.1180000E+00
      -11   -1    0    0    0    0  0.00000000000E+00  0.00000000000E+00  0.34996269501E-01  0.35000000000E-01  0.51099999109E-03 0.  1.
       11   -1    0    0    0    0 -0.00000000000E+00 -0.00000000000E+00 -0.34996269501E-01  0.35000000000E-01  0.51099999109E-03 0. -1.
       22    1    1    2    0    0 -0.63323263219E-02 -0.16512346614E-01  0.27913465237E-01  0.33044174810E-01  0.00000000000E+00 0.  1.
       22    1    1    2    0    0  0.73538473583E-02  0.17764701801E-01 -0.29150824988E-01  0.34920399461E-01  0.00000000000E+00 0. -1.
       22    1    1    2    0    0 -0.10215210364E-02 -0.12523551874E-02  0.12373597514E-02  0.20354257289E-02  0.00000000000E+00 0.  1.
</event>
<event>
 5   0  0.4143600E+04  0.9118800E+02  0.7546771E-02  0.1180000E+00
      -11   -1    0    0    0    0  0.00000000000E+00  0.00000000000E+00  0.34996269501E-01  0.35000000000E-01  0.51099999109E-03 0.  1.
       11   -1    0    0    0    0 -0.00000000000E+00 -0.00000000000E+00 -0.34996269501E-01  0.35000000000E-01  0.51099999109E-03 0. -1.
       22    1    1    2    0    0  0.17973566095E-03 -0.63045967697E-04 -0.45404407687E-03  0.49237762500E-03  0.00000000000E+00 0.  1.
       22    1    1    2    0    0 -0.15953946172E-02 -0.17788294475E-01  0.30026141870E-01  0.34936197560E-01  0.00000000000E+00 0.  1.
       22    1    1    2    0    0  0.14156589562E-02  0.17851340443E-01 -0.29572097793E-01  0.34571424815E-01  0.00000000000E+00 0. -1.
</event>
<event>
 5   0  0.4143600E+04  0.9118800E+02  0.7546771E-02  0.1180000E+00
      -11   -1    0    0    0    0  0.00000000000E+00  0.00000000000E+00  0.34996269501E-01  0.35000000000E-01  0.51099999109E-03 0. -1.
       11   -1    0    0    0    0 -0.00000000000E+00 -0.00000000000E+00 -0.34996269501E-01  0.35000000000E-01  0.51099999109E-03 0.  1.
       22    1    1    2    0    0  0.71100094892E-02  0.19294281310E-01 -0.28178532778E-01  0.34883394843E-01  0.00000000000E+00 0.  1.
       22    1    1    2    0    0 -0.28811347365E-03  0.16396959981E-03  0.35749168544E-03  0.48754046860E-03  0.00000000000E+00 0.  1.
       22    1    1    2    0    0 -0.68218960156E-02 -0.19458250910E-01  0.27821041093E-01  0.34629064689E-01  0.00000000000E+00 0. -1.
</event>
<event>
 5   0  0.4143600E+04  0.9118800E+02  0.7546771E-02  0.1180000E+00
      -11   -1    0    0    0    0  0.00000000000E+00  0.00000000000E+00  0.34996269501E-01  0.35000000000E-01  0.51099999109E-03 0. -1.
       11   -1    0    0    0    0 -0.00000000000E+00 -0.00000000000E+00 -0.34996269501E-01  0.35000000000E-01  0.51099999109E-03 0.  1.
       22    1    1    2    0    0  0.16776269899E-02 -0.44505140461E-02 -0.22756055343E-01  0.23247786182E-01  0.00000000000E+00 0.  1.
       22    1    1    2    0    0 -0.42604341816E-04 -0.58782690425E-02 -0.10421786108E-01  0.11965345283E-01  0.00000000000E+00 0.  1.
       22    1    1    2    0    0 -0.16350226480E-02  0.10328783089E-01  0.33177841451E-01  0.34786868535E-01  0.00000000000E+00 0. -1.
</event>
<event>
 5   0  0.4143600E+04  0.9118800E+02  0.7546771E-02  0.1180000E+00
      -11   -1    0    0    0    0  0.00000000000E+00  0.00000000000E+00  0.34996269501E-01  0.35000000000E-01  0.51099999109E-03 0.  1.
       11   -1    0    0    0    0 -0.00000000000E+00 -0.00000000000E+00 -0.34996269501E-01  0.35000000000E-01  0.51099999109E-03 0. -1.
       22    1    1    2    0    0 -0.19761933700E-01 -0.27910085654E-01 -0.15833580467E-02  0.34234688950E-01  0.00000000000E+00 0.  1.
       22    1    1    2    0    0  0.19545187202E-01  0.28298844117E-01  0.27642383784E-02  0.34503332229E-01  0.00000000000E+00 0. -1.
       22    1    1    2    0    0  0.21674649805E-03 -0.38875846246E-03 -0.11808803317E-02  0.12619788209E-02  0.00000000000E+00 0.  1.
</event>
<event>
 5   0  0.4143600E+04  0.9118800E+02  0.7546771E-02  0.1180000E+00
      -11   -1    0    0    0    0  0.00000000000E+00  0.00000000000E+00  0.34996269501E-01  0.35000000000E-01  0.51099999109E-03 0.  1.
       11   -1    0    0    0    0 -0.00000000000E+00 -0.00000000000E+00 -0.34996269501E-01  0.35000000000E-01  0.51099999109E-03 0. -1.
       22    1    1    2    0    0 -0.81176662966E-04  0.21234169273E-03  0.21670164033E-02  0.21789076936E-02  0.00000000000E+00 0. -1.
       22    1    1    2    0    0  0.25967847542E-02 -0.14587148638E-01  0.29467533104E-01  0.32982778896E-01  0.00000000000E+00 0.  1.
       22    1    1    2    0    0 -0.25156080912E-02  0.14374806945E-01 -0.31634549507E-01  0.34838313411E-01  0.00000000000E+00 0. -1.
</event>
<event>
 5   0  0.4143600E+04  0.9118800E+02  0.7546771E-02  0.1180000E+00
      -11   -1    0    0    0    0  0.00000000000E+00  0.00000000000E+00  0.34996269501E-01  0.35000000000E-01  0.51099999109E-03 0. -1.
       11   -1    0    0    0    0 -0.00000000000E+00 -0.00000000000E+00 -0.34996269501E-01  0.35000000000E-01  0.51099999109E-03 0.  1.
       22    1    1    2    0    0  0.19101416842E-01  0.12359033634E-02  0.28576064370E-01  0.34394520456E-01  0.00000000000E+00 0. -1.
       22    1    1    2    0    0  0.37508395521E-03  0.60024698254E-03 -0.46323700413E-02  0.46861323725E-02  0.00000000000E+00 0.  1.
       22    1    1    2    0    0 -0.19476500797E-01 -0.18361503459E-02 -0.23943694329E-01  0.30919347172E-01  0.00000000000E+00 0.  1.
</event>
<event>
 5   0  0.4143600E+04  0.9118800E+02  0.7546771E-02  0.1180000E+00
      -11   -1    0    0    0    0  0.00000000000E+00  0.00000000000E+00  0.34996269501E-01  0.35000000000E-01  0.51099999109E-03 0.  1.
       11   -1    0    0    0    0 -0.00000000000E+00 -0.00000000000E+00 -0.34996269501E-01  0.35000000000E-01  0.51099999109E-03 0.  1.
       22    1    1    2    0    0  0.35360820029E-03  0.17688631952E-05 -0.68292799629E-03  0.76904651115E-03  0.00000000000E+00 0. -1.
       22    1    1    2    0    0 -0.00000000000E+00  0.00000000000E+00  0.34957303585E-01  0.34954753818E-01  0.00000000000E+00 0.  1.
       22    1    1    2    0    0 -0.35360820029E-03 -0.17688631952E-05 -0.34274375589E-01  0.34276199671E-01  0.00000000000E+00 0.  1.
</event>
<event>
 5   0  0.4143600E+04  0.9118800E+02  0.7546771E-02  0.1180000E+00
      -11   -1    0    0    0    0  0.00000000000E+00  0.00000000000E+00  0.34996269501E-01  0.35000000000E-01  0.51099999109E-03 0.  1.
       11   -1    0    0    0    0 -0.00000000000E+00 -0.00000000000E+00 -0.34996269501E-01  0.35000000000E-01  0.51099999109E-03 0. -1.
       22    1    1    2    0    0 -0.25748412582E-02  0.73493238441E-02  0.33576133446E-01  0.34467362905E-01  0.00000000000E+00 0.  1.
       22    1    1    2    0    0  0.12291903770E-02  0.16284584095E-02 -0.29313155901E-02  0.35714698463E-02  0.00000000000E+00 0.  1.
       22    1    1    2    0    0  0.13456508812E-02 -0.89777822536E-02 -0.30644817856E-01  0.31961167249E-01  0.00000000000E+00 0. -1.
</event>
<event>
 5   0  0.4143600E+04  0.9118800E+02  0.7546771E-02  0.1180000E+00
      -11   -1    0    0    0    0  0.00000000000E+00  0.00000000000E+00  0.34996269501E-01  0.35000000000E-01  0.51099999109E-03 0.  1.
       11   -1    0    0    0    0 -0.00000000000E+00 -0.00000000000E+00 -0.34996269501E-01  0.35000000000E-01  0.51099999109E-03 0. -1.
       22    1    1    2    0    0  0.19175393450E-01  0.51479038711E-02  0.28253484555E-01  0.34531956471E-01  0.00000000000E+00 0.  1.
       22    1    1    2    0    0 -0.19068749042E-01 -0.51365769455E-02 -0.28794795081E-01  0.34916211657E-01  0.00000000000E+00 0. -1.
       22    1    1    2    0    0 -0.10664440818E-03 -0.11326925579E-04  0.54131052619E-03  0.55183187187E-03  0.00000000000E+00 0.  1.
</event>
<event>
 5   0  0.4143600E+04  0.9118800E+02  0.7546771E-02  0.1180000E+00
      -11   -1    0    0    0    0  0.00000000000E+00  0.00000000000E+00  0.34996269501E-01  0.35000000000E-01  0.51099999109E-03 0.  1.
       11   -1    0    0    0    0 -0.00000000000E+00 -0.00000000000E+00 -0.34996269501E-01  0.35000000000E-01  0.51099999109E-03 0. -1.
       22    1    1    2    0    0 -0.11012347318E-01 -0.12481145841E-01  0.20466811625E-01  0.26380696978E-01  0.00000000000E+00 0.  1.
       22    1    1    2    0    0  0.10375831131E-01  0.12372534666E-01 -0.29997164227E-01  0.34067100660E-01  0.00000000000E+00 0. -1.
       22    1    1    2    0    0  0.63651618728E-03  0.10861117538E-03  0.95303526017E-02  0.95522023616E-02  0.00000000000E+00 0.  1.
</event>
<event>
 5   0  0.4143600E+04  0.9118800E+02  0.7546771E-02  0.1180000E+00
      -11   -1    0    0    0    0  0.00000000000E+00  0.00000000000E+00  0.34996269501E-01  0.35000000000E-01  0.51099999109E-03 0. -1.
       11   -1    0    0    0    0 -0.00000000000E+00 -0.00000000000E+00 -0.34996269501E-01  0.35000000000E-01  0.51099999109E-03 0.  1.
       22    1    1    2    0    0 -0.18264343090E-01  0.35495882835E-02 -0.29409516276E-01  0.34800940405E-01  0.00000000000E+00 0.  1.
       22    1    1    2    0    0  0.76760803795E-04 -0.11460721115E-04  0.26490566064E-02  0.26501932897E-02  0.00000000000E+00 0. -1.
       22    1    1    2    0    0  0.18187582286E-01 -0.35381275624E-02  0.26760459669E-01  0.32548866305E-01  0.00000000000E+00 0. -1.
</event>
<event>
 5   0  0.4143600E+04  0.9118800E+02  0.7546771E-02  0.1180000E+00
      -11   -1    0    0    0    0  0.00000000000E+00  0.00000000000E+00  0.34996269501E-01  0.35000000000E-01  0.51099999109E-03 0. -1.
       11   -1    0    0    0    0 -0.00000000000E+00 -0.00000000000E+00 -0.34996269501E-01  0.35000000000E-01  0.51099999109E-03 0.  1.
       22    1    1    2    0    0 -0.90172894373E-02 -0.70754438189E-02 -0.22658320164E-01  0.25392378516E-01  0.00000000000E+00 0.  1.
       22    1    1    2    0    0  0.21061541052E-02  0.18994846317E-01  0.24095918167E-01  0.30754728808E-01  0.00000000000E+00 0. -1.
       22    1    1    2    0    0  0.69111353321E-02 -0.11919402498E-01 -0.14375980031E-02  0.13852892677E-01  0.00000000000E+00 0.  1.
</event>
<event>
 5   0  0.4143600E+04  0.9118800E+02  0.7546771E-02  0.1180000E+00
      -11   -1    0    0    0    0  0.00000000000E+00  0.00000000000E+00  0.34996269501E-01  0.35000000000E-01  0.51099999109E-03 0. -1.
       11   -1    0    0    0    0 -0.00000000000E+00 -0.00000000000E+00 -0.34996269501E-01  0.35000000000E-01  0.51099999109E-03 0.  1.
       22    1    1    2    0    0  0.19771793214E-01 -0.61981655916E-02 -0.28158053604E-01  0.34960220914E-01  0.00000000000E+00 0.  1.
       22    1    1    2    0    0 -0.18438849331E-01  0.63696611734E-02  0.26206325417E-01  0.32670097030E-01  0.00000000000E+00 0. -1.
       22    1    1    2    0    0 -0.13329438832E-02 -0.17149558184E-03  0.19517281871E-02  0.23696820560E-02  0.00000000000E+00 0. -1.
</event>
<event>
 5   0  0.4143600E+04  0.9118800E+02  0.7546771E-02  0.1180000E+00
      -11   -1    0    0    0    0  0.00000000000E+00  0.00000000000E+00  0.34996269501E-01  0.35000000000E-01  0.51099999109E-03 0. -1.
       11   -1    0    0    0    0 -0.00000000000E+00 -0.00000000000E+00 -0.34996269501E-01  0.35000000000E-01  0.51099999109E-03 0.  1.
       22    1    1    2    0    0 -0.61766231372E-02  0.16578536182E-02  0.34210226555E-01  0.34802855528E-01  0.00000000000E+00 0. -1.
       22    1    1    2    0    0  0.49516287469E-02 -0.28602163605E-02 -0.31302960173E-01  0.31820980193E-01  0.00000000000E+00 0.  1.
       22    1    1    2    0    0  0.12249943903E-02  0.12023627424E-02 -0.29072663821E-02  0.33761642788E-02  0.00000000000E+00 0.  1.
</event>
<event>
 5   0  0.4143600E+04  0.9118800E+02  0.7546771E-02  0.1180000E+00
      -11   -1    0    0    0    0  0.00000000000E+00  0.00000000000E+00  0.34996269501E-01  0.35000000000E-01  0.51099999109E-03 0. -1.
       11   -1    0    0    0    0 -0.00000000000E+00 -0.00000000000E+00 -0.34996269501E-01  0.35000000000E-01  0.51099999109E-03 0.  1.
       22    1    1    2    0    0  0.10435974901E-01  0.21702892790E-01  0.24292362359E-01  0.34205905873E-01  0.00000000000E+00 0. -1.
       22    1    1    2    0    0 -0.10429152213E-01 -0.21620491584E-01 -0.25246289675E-01  0.34836590168E-01  0.00000000000E+00 0.  1.
       22    1    1    2    0    0 -0.68226879490E-05 -0.82401206347E-04  0.95392731532E-03  0.95750395863E-03  0.00000000000E+00 0. -1.
</event>
<event>
 5   0  0.4143600E+04  0.9118800E+02  0.7546771E-02  0.1180000E+00
      -11   -1    0    0    0    0  0.00000000000E+00  0.00000000000E+00  0.34996269501E-01  0.35000000000E-01  0.51099999109E-03 0. -1.
       11   -1    0    0    0    0 -0.00000000000E+00 -0.00000000000E+00 -0.34996269501E-01  0.35000000000E-01  0.51099999109E-03 0.  1.
       22    1    1    2    0    0  0.33763680105E-02  0.11101534659E-02  0.34749164004E-01  0.34930455202E-01  0.00000000000E+00 0. -1.
       22    1    1    2    0    0 -0.42751480284E-03  0.18557366517E-03 -0.55812237095E-03  0.72712246067E-03  0.00000000000E+00 0. -1.
       22    1    1    2    0    0 -0.29488532077E-02 -0.12957271311E-02 -0.34191041633E-01  0.34342422337E-01  0.00000000000E+00 0.  1.
</event>
<event>
 5   0  0.4143600E+04  0.9118800E+02  0.7546771E-02  0.1180000E+00
      -11   -1    0    0    0    0  0.00000000000E+00  0.00000000000E+00  0.34996269501E-01  0.35000000000E-01  0.51099999109E-03 0. -1.
       11   -1    0    0    0    0 -0.00000000000E+00 -0.00000000000E+00 -0.34996269501E-01  0.35000000000E-01  0.51099999109E-03 0.  1.
       22    1    1    2    0    0  0.55227363340E-02  0.89917993077E-02 -0.22105219770E-01  0.24494771125E-01  0.00000000000E+00 0.  1.
       22    1    1    2    0    0  0.28588266280E-02 -0.13743576111E-01  0.29952626619E-01  0.33078975428E-01  0.00000000000E+00 0. -1.
       22    1    1    2    0    0 -0.83815629620E-02  0.47517768033E-02 -0.78474068490E-02  0.12426253447E-01  0.00000000000E+00 0. -1.
</event>
<event>
 5   0  0.4143600E+04  0.9118800E+02  0.7546771E-02  0.1180000E+00
      -11   -1    0    0    0    0  0.00000000000E+00  0.00000000000E+00  0.34996269501E-01  0.35000000000E-01  0.51099999109E-03 0. -1.
       11   -1    0    0    0    0 -0.00000000000E+00 -0.00000000000E+00 -0.34996269501E-01  0.35000000000E-01  0.51099999109E-03 0. -1.
       22    1    1    2    0    0 -0.57772869162E-03  0.40361718343E-03 -0.15844099402E-02  0.17340796205E-02  0.00000000000E+00 0.  1.
       22    1    1    2    0    0  0.11091143885E-02 -0.86490485841E-03  0.34907288983E-01  0.34935612479E-01  0.00000000000E+00 0. -1.
       22    1    1    2    0    0 -0.53138569685E-03  0.46128767498E-03 -0.33322879043E-01  0.33330307901E-01  0.00000000000E+00 0. -1.
</event>
<event>
 5   0  0.4143600E+04  0.9118800E+02  0.7546771E-02  0.1180000E+00
      -11   -1    0    0    0    0  0.00000000000E+00  0.00000000000E+00  0.34996269501E-01  0.35000000000E-01  0.51099999109E-03 0.  1.
       11   -1    0    0    0    0 -0.00000000000E+00 -0.00000000000E+00 -0.34996269501E-01  0.35000000000E-01  0.51099999109E-03 0. -1.
       22    1    1    2    0    0 -0.12229582708E-01 -0.24810274557E-02  0.27395002238E-01  0.30103228035E-01  0.00000000000E+00 0.  1.
       22    1    1    2    0    0  0.12485170411E-01  0.46151687979E-02 -0.32085641787E-01  0.34737122392E-01  0.00000000000E+00 0. -1.
       22    1    1    2    0    0 -0.25558770257E-03 -0.21341413421E-02  0.46906395486E-02  0.51596495731E-02  0.00000000000E+00 0.  1.
</event>
<event>
 5   0  0.4143600E+04  0.9118800E+02  0.7546771E-02  0.1180000E+00
      -11   -1    0    0    0    0  0.00000000000E+00  0.00000000000E+00  0.34996269501E-01  0.35000000000E-01  0.51099999109E-03 0. -1.
       11   -1    0    0    0    0 -0.00000000000E+00 -0.00000000000E+00 -0.34996269501E-01  0.35000000000E-01  0.51099999109E-03 0.  1.
       22    1    1    2    0    0 -0.27466117276E-04 -0.33756470231E-04  0.18440921148E-02  0.18446055445E-02  0.00000000000E+00 0. -1.
       22    1    1    2    0    0  0.38414979126E-03  0.11829070322E-01 -0.32883460016E-01  0.34948482347E-01  0.00000000000E+00 0.  1.
       22    1    1    2    0    0 -0.35668367398E-03 -0.11795313851E-01  0.31039367901E-01  0.33206912109E-01  0.00000000000E+00 0. -1.
</event>
<event>
 5   0  0.4143600E+04  0.9118800E+02  0.7546771E-02  0.1180000E+00
      -11   -1    0    0    0    0  0.00000000000E+00  0.00000000000E+00  0.34996269501E-01  0.35000000000E-01  0.51099999109E-03 0. -1.
       11   -1    0    0    0    0 -0.00000000000E+00 -0.00000000000E+00 -0.34996269501E-01  0.35000000000E-01  0.51099999109E-03 0.  1.
       22    1    1    2    0    0  0.39609339477E-02  0.31809892606E-02 -0.13520684075E-01  0.14443565636E-01  0.00000000000E+00 0. -1.
       22    1    1    2    0    0 -0.41532635092E-02 -0.30151318831E-02 -0.20704084886E-01  0.21330723125E-01  0.00000000000E+00 0.  1.
       22    1    1    2    0    0  0.19232956148E-03 -0.16585737750E-03  0.34224768962E-01  0.34225711239E-01  0.00000000000E+00 0. -1.
</event>
<event>
 5   0  0.4143600E+04  0.9118800E+02  0.7546771E-02  0.1180000E+00
      -11   -1    0    0    0    0  0.00000000000E+00  0.00000000000E+00  0.34996269501E-01  0.35000000000E-01  0.51099999109E-03 0.  1.
       11   -1    0    0    0    0 -0.00000000000E+00 -0.00000000000E+00 -0.34996269501E-01  0.35000000000E-01  0.51099999109E-03 0. -1.
       22    1    1    2    0    0  0.31157560043E-02  0.13378722066E-01 -0.31748524299E-01  0.34592874046E-01  0.00000000000E+00 0. -1.
       22    1    1    2    0    0 -0.48488093191E-04 -0.55566250149E-04 -0.43441215225E-03  0.44062753132E-03  0.00000000000E+00 0.  1.
       22    1    1    2    0    0 -0.30672679111E-02 -0.13323155816E-01  0.32182936451E-01  0.34966498423E-01  0.00000000000E+00 0.  1.
</event>
<event>
 5   0  0.4143600E+04  0.9118800E+02  0.7546771E-02  0.1180000E+00
      -11   -1    0    0    0    0  0.00000000000E+00  0.00000000000E+00  0.34996269501E-01  0.35000000000E-01  0.51099999109E-03 0.  1.
       11   -1    0    0    0    0 -0.00000000000E+00 -0.00000000000E+00 -0.34996269501E-01  0.35000000000E-01  0.51099999109E-03 0. -1.
       22    1    1    2    0    0 -0.19972216103E-03  0.21902668627E-02  0.87738592255E-02  0.90453172183E-02  0.00000000000E+00 0. -1.
       22    1    1    2    0    0  0.15688788753E-01 -0.12711129122E-01 -0.27734963421E-01  0.34306545907E-01  0.00000000000E+00 0. -1.
       22    1    1    2    0    0 -0.15489066592E-01  0.10520862259E-01  0.18961104196E-01  0.26648136875E-01  0.00000000000E+00 0.  1.
</event>
<event>
 5   0  0.4143600E+04  0.9118800E+02  0.7546771E-02  0.1180000E+00
      -11   -1    0    0    0    0  0.00000000000E+00  0.00000000000E+00  0.34996269501E-01  0.35000000000E-01  0.51099999109E-03 0.  1.
       11   -1    0    0    0    0 -0.00000000000E+00 -0.00000000000E+00 -0.34996269501E-01  0.35000000000E-01  0.51099999109E-03 0. -1.
       22    1    1    2    0    0  0.54440969296E-02 -0.10015275958E-01 -0.33014239518E-01  0.34926837172E-01  0.00000000000E+00 0. -1.
       22    1    1    2    0    0 -0.55412241645E-02  0.99736518918E-02  0.30620888272E-01  0.32677479950E-01  0.00000000000E+00 0.  1.
       22    1    1    2    0    0  0.97127234938E-04  0.41624065801E-04  0.23933512464E-02  0.23956828778E-02  0.00000000000E+00 0.  1.
</event>
<event>
 5   0  0.4143600E+04  0.9118800E+02  0.7546771E-02  0.1180000E+00
      -11   -1    0    0    0    0  0.00000000000E+00  0.00000000000E+00  0.34996269501E-01  0.35000000000E-01  0.51099999109E-03 0. -1.
       11   -1    0    0    0    0 -0.00000000000E+00 -0.00000000000E+00 -0.34996269501E-01  0.35000000000E-01  0.51099999109E-03 0.  1.
       22    1    1    2    0    0  0.91344692695E-02 -0.20287297842E-02  0.33002697833E-01  0.34303532437E-01  0.00000000000E+00 0. -1.
       22    1    1    2    0    0 -0.90345042244E-02  0.30591937140E-02 -0.15752784396E-01  0.18415513813E-01  0.00000000000E+00 0.  1.
       22    1    1    2    0    0 -0.99965045113E-04 -0.10304639297E-02 -0.17249913437E-01  0.17280953750E-01  0.00000000000E+00 0.  1.
</event>
<event>
 5   0  0.4143600E+04  0.9118800E+02  0.7546771E-02  0.1180000E+00
      -11   -1    0    0    0    0  0.00000000000E+00  0.00000000000E+00  0.34996269501E-01  0.35000000000E-01  0.51099999109E-03 0. -1.
       11   -1    0    0    0    0 -0.00000000000E+00 -0.00000000000E+00 -0.34996269501E-01  0.35000000000E-01  0.51099999109E-03 0.  1.
       22    1    1    2    0    0 -0.58286544778E-02 -0.14540656322E-01 -0.28121671759E-01  0.32190562620E-01  0.00000000000E+00 0.  1.
       22    1    1    2    0    0  0.90976062013E-05 -0.25722249465E-03 -0.29204037145E-02  0.29317237308E-02  0.00000000000E+00 0.  1.
       22    1    1    2    0    0  0.58195568716E-02  0.14797878816E-01  0.31042075474E-01  0.34877713649E-01  0.00000000000E+00 0. -1.
</event>
<event>
 5   0  0.4143600E+04  0.9118800E+02  0.7546771E-02  0.1180000E+00
      -11   -1    0    0    0    0  0.00000000000E+00  0.00000000000E+00  0.34996269501E-01  0.35000000000E-01  0.51099999109E-03 0.  1.
       11   -1    0    0    0    0 -0.00000000000E+00 -0.00000000000E+00 -0.34996269501E-01  0.35000000000E-01  0.51099999109E-03 0. -1.
       22    1    1    2    0    0 -0.21822153386E-03 -0.38462563095E-03 -0.12259942385E-02  0.13033109325E-02  0.00000000000E+00 0.  1.
       22    1    1    2    0    0  0.52361963096E-02 -0.15732104760E-02 -0.33303646424E-01  0.33749453449E-01  0.00000000000E+00 0. -1.
       22    1    1    2    0    0 -0.50179747757E-02  0.19578361069E-02  0.34529640663E-01  0.34947235618E-01  0.00000000000E+00 0.  1.
</event>
<event>
 5   0  0.4143600E+04  0.9118800E+02  0.7546771E-02  0.1180000E+00
      -11   -1    0    0    0    0  0.00000000000E+00  0.00000000000E+00  0.34996269501E-01  0.35000000000E-01  0.51099999109E-03 0. -1.
       11   -1    0    0    0    0 -0.00000000000E+00 -0.00000000000E+00 -0.34996269501E-01  0.35000000000E-01  0.51099999109E-03 0.  1.
       22    1    1    2    0    0  0.15863434930E-02  0.11251931326E-02  0.44892253703E-02  0.48924114391E-02  0.00000000000E+00 0. -1.
       22    1    1    2    0    0  0.10428420826E-01 -0.51166011705E-02  0.27959503738E-01  0.30276482915E-01  0.00000000000E+00 0. -1.
       22    1    1    2    0    0 -0.12014764319E-01  0.39914080378E-02 -0.32448729108E-01  0.34831105646E-01  0.00000000000E+00 0.  1.
</event>
<event>
 5   0  0.4143600E+04  0.9118800E+02  0.7546771E-02  0.1180000E+00
      -11   -1    0    0    0    0  0.00000000000E+00  0.00000000000E+00  0.34996269501E-01  0.35000000000E-01  0.51099999109E-03 0.  1.
       11   -1    0    0    0    0 -0.00000000000E+00 -0.00000000000E+00 -0.34996269501E-01  0.35000000000E-01  0.51099999109E-03 0. -1.
       22    1    1    2    0    0 -0.19303066061E-02 -0.12045400058E-01 -0.32673901608E-01  0.34876949299E-01  0.00000000000E+00 0. -1.
       22    1    1    2    0    0  0.48401302320E-03  0.11486886809E-02  0.10065839880E-02  0.16021752766E-02  0.00000000000E+00 0.  1.
       22    1    1    2    0    0  0.14462935829E-02  0.10896711378E-01  0.31667317620E-01  0.33520875424E-01  0.00000000000E+00 0.  1.
</event>
<event>
 5   0  0.4143600E+04  0.9118800E+02  0.7546771E-02  0.1180000E+00
      -11   -1    0    0    0    0  0.00000000000E+00  0.00000000000E+00  0.34996269501E-01  0.35000000000E-01  0.51099999109E-03 0.  1.
       11   -1    0    0    0    0 -0.00000000000E+00 -0.00000000000E+00 -0.34996269501E-01  0.35000000000E-01  0.51099999109E-03 0. -1.
       22    1    1    2    0    0  0.27701717741E-02  0.57280185308E-03  0.34810217697E-01  0.34924965422E-01  0.00000000000E+00 0.  1.
       22    1    1    2    0    0 -0.29874907601E-02 -0.26721474338E-03 -0.34353095871E-01  0.34483788955E-01  0.00000000000E+00 0. -1.
       22    1    1    2    0    0  0.21731898599E-03 -0.30558710970E-03 -0.45712182543E-03  0.59124562288E-03  0.00000000000E+00 0. -1.
</event>
<event>
 5   0  0.4143600E+04  0.9118800E+02  0.7546771E-02  0.1180000E+00
      -11   -1    0    0    0    0  0.00000000000E+00  0.00000000000E+00  0.34996269501E-01  0.35000000000E-01  0.51099999109E-03 0.  1.
       11   -1    0    0    0    0 -0.00000000000E+00 -0.00000000000E+00 -0.34996269501E-01  0.35000000000E-01  0.51099999109E-03 0. -1.
       22    1    1    2    0    0 -0.13414412709E-03 -0.28849596680E-03 -0.67555775899E-03  0.74672810007E-03  0.00000000000E+00 0.  1.
       22    1    1    2    0    0 -0.24550611990E-02 -0.52204738828E-02 -0.33777507097E-01  0.34266611428E-01  0.00000000000E+00 0. -1.
       22    1    1    2    0    0  0.25892053261E-02  0.55089698496E-02  0.34453064856E-01  0.34986660472E-01  0.00000000000E+00 0.  1.
</event>
<event>
 5   0  0.4143600E+04  0.9118800E+02  0.7546771E-02  0.1180000E+00
      -11   -1    0    0    0    0  0.00000000000E+00  0.00000000000E+00  0.34996269501E-01  0.35000000000E-01  0.51099999109E-03 0. -1.
       11   -1    0    0    0    0 -0.00000000000E+00 -0.00000000000E+00 -0.34996269501E-01  0.35000000000E-01  0.51099999109E-03 0.  1.
       22    1    1    2    0    0 -0.11474675250E-01  0.15869033717E-01  0.21680955051E-01  0.29215718631E-01  0.00000000000E+00 0. -1.
       22    1    1    2    0    0  0.99628144436E-02 -0.20505280458E-01 -0.25779780457E-01  0.34413969238E-01  0.00000000000E+00 0.  1.
       22    1    1    2    0    0  0.15118608061E-02  0.46362467410E-02  0.40988254064E-02  0.63703121315E-02  0.00000000000E+00 0. -1.
</event>
<event>
 5   0  0.4143600E+04  0.9118800E+02  0.7546771E-02  0.1180000E+00
      -11   -1    0    0    0    0  0.00000000000E+00  0.00000000000E+00  0.34996269501E-01  0.35000000000E-01  0.51099999109E-03 0. -1.
       11   -1    0    0    0    0 -0.00000000000E+00 -0.00000000000E+00 -0.34996269501E-01  0.35000000000E-01  0.51099999109E-03 0.  1.
       22    1    1    2    0    0 -0.11042220204E-01 -0.48537776881E-02 -0.28719529439E-01  0.31149657399E-01  0.00000000000E+00 0.  1.
       22    1    1    2    0    0  0.10899771728E-01  0.45944537480E-02  0.32744010399E-01  0.34815000301E-01  0.00000000000E+00 0. -1.
       22    1    1    2    0    0  0.14244847607E-03  0.25932394013E-03 -0.40244809603E-02  0.40353422995E-02  0.00000000000E+00 0.  1.
</event>
<event>
 5   0  0.4143600E+04  0.9118800E+02  0.7546771E-02  0.1180000E+00
      -11   -1    0    0    0    0  0.00000000000E+00  0.00000000000E+00  0.34996269501E-01  0.35000000000E-01  0.51099999109E-03 0. -1.
       11   -1    0    0    0    0 -0.00000000000E+00 -0.00000000000E+00 -0.34996269501E-01  0.35000000000E-01  0.51099999109E-03 0.  1.
       22    1    1    2    0    0 -0.94843484140E-03  0.13717428841E-03  0.44952042135E-03  0.10584961233E-02  0.00000000000E+00 0.  1.
       22    1    1    2    0    0  0.47023021850E-02 -0.17733887392E-01 -0.29518000691E-01  0.34755068302E-01  0.00000000000E+00 0.  1.
       22    1    1    2    0    0 -0.37538673436E-02  0.17596713104E-01  0.29068480270E-01  0.34186435575E-01  0.00000000000E+00 0. -1.
</event>
<event>
 5   0  0.4143600E+04  0.9118800E+02  0.7546771E-02  0.1180000E+00
      -11   -1    0    0    0    0  0.00000000000E+00  0.00000000000E+00  0.34996269501E-01  0.35000000000E-01  0.51099999109E-03 0.  1.
       11   -1    0    0    0    0 -0.00000000000E+00 -0.00000000000E+00 -0.34996269501E-01  0.35000000000E-01  0.51099999109E-03 0.  1.
       22    1    1    2    0    0 -0.78507850790E-02 -0.62828844461E-02  0.28394802705E-01  0.30122653999E-01  0.00000000000E+00 0.  1.
       22    1    1    2    0    0  0.16721177121E-01  0.57532300518E-02 -0.24401300059E-01  0.30135043802E-01  0.00000000000E+00 0.  1.
       22    1    1    2    0    0 -0.88703920423E-02  0.52965439427E-03 -0.39935026455E-02  0.97423021993E-02  0.00000000000E+00 0. -1.
</event>
<event>
 5   0  0.4143600E+04  0.9118800E+02  0.7546771E-02  0.1180000E+00
      -11   -1    0    0    0    0  0.00000000000E+00  0.00000000000E+00  0.34996269501E-01  0.35000000000E-01  0.51099999109E-03 0. -1.
       11   -1    0    0    0    0 -0.00000000000E+00 -0.00000000000E+00 -0.34996269501E-01  0.35000000000E-01  0.51099999109E-03 0.  1.
       22    1    1    2    0    0 -0.10072196096E-01  0.17838337985E-01  0.27786744431E-01  0.34521856878E-01  0.00000000000E+00 0. -1.
       22    1    1    2    0    0 -0.11260475079E-03 -0.34043760013E-04  0.51325390752E-03  0.52656279880E-03  0.00000000000E+00 0.  1.
       22    1    1    2    0    0  0.10184800847E-01 -0.17804294224E-01 -0.28299998339E-01  0.34951580323E-01  0.00000000000E+00 0.  1.
</event>
<event>
 5   0  0.4143600E+04  0.9118800E+02  0.7546771E-02  0.1180000E+00
      -11   -1    0    0    0    0  0.00000000000E+00  0.00000000000E+00  0.34996269501E-01  0.35000000000E-01  0.51099999109E-03 0. -1.
       11   -1    0    0    0    0 -0.00000000000E+00 -0.00000000000E+00 -0.34996269501E-01  0.35000000000E-01  0.51099999109E-03 0.  1.
       22    1    1    2    0    0  0.75762630407E-02 -0.61322870061E-02  0.33336073247E-01  0.34731807973E-01  0.00000000000E+00 0. -1.
       22    1    1    2    0    0 -0.14031233563E-02  0.50545051654E-02 -0.15414861253E-01  0.16282958118E-01  0.00000000000E+00 0.  1.
       22    1    1    2    0    0 -0.61731396844E-02  0.10777818407E-02 -0.17921211994E-01  0.18985233909E-01  0.00000000000E+00 0.  1.
</event>
<event>
 5   0  0.4143600E+04  0.9118800E+02  0.7546771E-02  0.1180000E+00
      -11   -1    0    0    0    0  0.00000000000E+00  0.00000000000E+00  0.34996269501E-01  0.35000000000E-01  0.51099999109E-03 0.  1.
       11   -1    0    0    0    0 -0.00000000000E+00 -0.00000000000E+00 -0.34996269501E-01  0.35000000000E-01  0.51099999109E-03 0. -1.
       22    1    1    2    0    0 -0.13617136864E-04 -0.57057263254E-05  0.47459313398E-03  0.47482272960E-03  0.00000000000E+00 0. -1.
       22    1    1    2    0    0  0.36881811161E-02  0.24144572279E-01  0.24502018255E-01  0.34596415263E-01  0.00000000000E+00 0.  1.
       22    1    1    2    0    0 -0.36745639792E-02 -0.24138866553E-01 -0.24976611389E-01  0.34928762007E-01  0.00000000000E+00 0. -1.
</event>
<event>
 5   0  0.4143600E+04  0.9118800E+02  0.7546771E-02  0.1180000E+00
      -11   -1    0    0    0    0  0.00000000000E+00  0.00000000000E+00  0.34996269501E-01  0.35000000000E-01  0.51099999109E-03 0.  1.
       11   -1    0    0    0    0 -0.00000000000E+00 -0.00000000000E+00 -0.34996269501E-01  0.35000000000E-01  0.51099999109E-03 0. -1.
       22    1    1    2    0    0 -0.23205262571E-02  0.10635910410E-02 -0.34364082563E-01  0.34458761417E-01  0.00000000000E+00 0. -1.
       22    1    1    2    0    0  0.20311308454E-02 -0.11251307738E-02  0.34874262867E-01  0.34951475252E-01  0.00000000000E+00 0.  1.
       22    1    1    2    0    0  0.28939541167E-03  0.61539732807E-04 -0.51018030467E-03  0.58976333074E-03  0.00000000000E+00 0. -1.
</event>
<event>
 5   0  0.4143600E+04  0.9118800E+02  0.7546771E-02  0.1180000E+00
      -11   -1    0    0    0    0  0.00000000000E+00  0.00000000000E+00  0.34996269501E-01  0.35000000000E-01  0.51099999109E-03 0.  1.
       11   -1    0    0    0    0 -0.00000000000E+00 -0.00000000000E+00 -0.34996269501E-01  0.35000000000E-01  0.51099999109E-03 0. -1.
       22    1    1    2    0    0 -0.11739883861E-01  0.62314404694E-02  0.25477222906E-01  0.28735772313E-01  0.00000000000E+00 0.  1.
       22    1    1    2    0    0  0.12600534878E-01 -0.46164686690E-02 -0.31888372877E-01  0.34597017023E-01  0.00000000000E+00 0. -1.
       22    1    1    2    0    0 -0.86065101662E-03 -0.16149718005E-02  0.64111499708E-02  0.66672106639E-02  0.00000000000E+00 0. -1.
</event>
<event>
 5   0  0.4143600E+04  0.9118800E+02  0.7546771E-02  0.1180000E+00
      -11   -1    0    0    0    0  0.00000000000E+00  0.00000000000E+00  0.34996269501E-01  0.35000000000E-01  0.51099999109E-03 0. -1.
       11   -1    0    0    0    0 -0.00000000000E+00 -0.00000000000E+00 -0.34996269501E-01  0.35000000000E-01  0.51099999109E-03 0.  1.
       22    1    1    2    0    0 -0.19647858624E-01  0.13912686813E-02  0.10655647339E-01  0.22394570709E-01  0.00000000000E+00 0. -1.
       22    1    1    2    0    0  0.21982391566E-03  0.64420747293E-03  0.15191570652E-01  0.15206812444E-01  0.00000000000E+00 0. -1.
       22    1    1    2    0    0  0.19428034708E-01 -0.20354761542E-02 -0.25847217990E-01  0.32398616848E-01  0.00000000000E+00 0.  1.
</event>
<event>
 5   0  0.4143600E+04  0.9118800E+02  0.7546771E-02  0.1180000E+00
      -11   -1    0    0    0    0  0.00000000000E+00  0.00000000000E+00  0.34996269501E-01  0.35000000000E-01  0.51099999109E-03 0.  1.
       11   -1    0    0    0    0 -0.00000000000E+00 -0.00000000000E+00 -0.34996269501E-01  0.35000000000E-01  0.51099999109E-03 0. -1.
       22    1    1    2    0    0 -0.18084655176E-01  0.10221046068E-01  0.25509282906E-01  0.32897538661E-01  0.00000000000E+00 0.  1.
       22    1    1    2    0    0  0.18522196038E-01 -0.97919557982E-02 -0.27754841914E-01  0.34774781008E-01  0.00000000000E+00 0. -1.
       22    1    1    2    0    0 -0.43754086240E-03 -0.42909027026E-03  0.22455590085E-02  0.23276803318E-02  0.00000000000E+00 0. -1.
</event>
<event>
 5   0  0.4143600E+04  0.9118800E+02  0.7546771E-02  0.1180000E+00
      -11   -1    0    0    0    0  0.00000000000E+00  0.00000000000E+00  0.34996269501E-01  0.35000000000E-01  0.51099999109E-03 0. -1.
       11   -1    0    0    0    0 -0.00000000000E+00 -0.00000000000E+00 -0.34996269501E-01  0.35000000000E-01  0.51099999109E-03 0.  1.
       22    1    1    2    0    0  0.75377917062E-02  0.54426653559E-02 -0.31316788762E-01  0.32667754260E-01  0.00000000000E+00 0.  1.
       22    1    1    2    0    0  0.11001122889E-02 -0.12764335384E-03 -0.21196092181E-02  0.23915022708E-02  0.00000000000E+00 0.  1.
       22    1    1    2    0    0 -0.86379039951E-02 -0.53150220020E-02  0.33436397980E-01  0.34940743470E-01  0.00000000000E+00 0. -1.
</event>
<event>
 5   0  0.4143600E+04  0.9118800E+02  0.7546771E-02  0.1180000E+00
      -11   -1    0    0    0    0  0.00000000000E+00  0.00000000000E+00  0.34996269501E-01  0.35000000000E-01  0.51099999109E-03 0. -1.
       11   -1    0    0    0    0 -0.00000000000E+00 -0.00000000000E+00 -0.34996269501E-01  0.35000000000E-01  0.51099999109E-03 0.  1.
       22    1    1    2    0    0 -0.92979837514E-02 -0.11822983266E-01 -0.30333409081E-01  0.33857807691E-01  0.00000000000E+00 0.  1.
       22    1    1    2    0    0  0.91733493892E-03 -0.26480142943E-02  0.30521196260E-02  0.41435392244E-02  0.00000000000E+00 0. -1.
       22    1    1    2    0    0  0.83806488125E-02  0.14470997560E-01  0.27281289455E-01  0.31998653085E-01  0.00000000000E+00 0. -1.
</event>
<event>
 5   0  0.4143600E+04  0.9118800E+02  0.7546771E-02  0.1180000E+00
      -11   -1    0    0    0    0  0.00000000000E+00  0.00000000000E+00  0.34996269501E-01  0.35000000000E-01  0.51099999109E-03 0. -1.
       11   -1    0    0    0    0 -0.00000000000E+00 -0.00000000000E+00 -0.34996269501E-01  0.35000000000E-01  0.51099999109E-03 0.  1.
       22    1    1    2    0    0  0.88603761273E-02  0.16906726898E-01  0.28202407074E-01  0.34054653783E-01  0.00000000000E+00 0. -1.
       22    1    1    2    0    0 -0.10386624565E-01 -0.16383162170E-01 -0.28321067519E-01  0.34327435645E-01  0.00000000000E+00 0.  1.
       22    1    1    2    0    0  0.15262484372E-02 -0.52356472733E-03  0.11866044491E-03  0.16179105714E-02  0.00000000000E+00 0. -1.
</event>
<event>
 5   0  0.4143600E+04  0.9118800E+02  0.7546771E-02  0.1180000E+00
      -11   -1    0    0    0    0  0.00000000000E+00  0.00000000000E+00  0.34996269501E-01  0.35000000000E-01  0.51099999109E-03 0.  1.
       11   -1    0    0    0    0 -0.00000000000E+00 -0.00000000000E+00 -0.34996269501E-01  0.35000000000E-01  0.51099999109E-03 0. -1.
       22    1    1    2    0    0 -0.10214114008E-01  0.57499395005E-02  0.32627684189E-01  0.34669232826E-01  0.00000000000E+00 0.  1.
       22    1    1    2    0    0  0.14808302671E-04  0.54500595807E-05  0.34227935048E-03  0.34264287931E-03  0.00000000000E+00 0. -1.
       22    1    1    2    0    0  0.10199305706E-01 -0.57553895601E-02 -0.32969963539E-01  0.34988124294E-01  0.00000000000E+00 0. -1.
</event>
<event>
 5   0  0.4143600E+04  0.9118800E+02  0.7546771E-02  0.1180000E+00
      -11   -1    0    0    0    0  0.00000000000E+00  0.00000000000E+00  0.34996269501E-01  0.35000000000E-01  0.51099999109E-03 0. -1.
       11   -1    0    0    0    0 -0.00000000000E+00 -0.00000000000E+00 -0.34996269501E-01  0.35000000000E-01  0.51099999109E-03 0.  1.
       22    1    1    2    0    0  0.31735120119E-02 -0.24642067824E-02 -0.60446370496E-02  0.72581768108E-02  0.00000000000E+00 0.  1.
       22    1    1    2    0    0 -0.49628951097E-02  0.37831080315E-02  0.34065784117E-01  0.34632641854E-01  0.00000000000E+00 0. -1.
       22    1    1    2    0    0  0.17893830978E-02 -0.13189012491E-02 -0.28021147068E-01  0.28109181336E-01  0.00000000000E+00 0.  1.
</event>
<event>
 5   0  0.4143600E+04  0.9118800E+02  0.7546771E-02  0.1180000E+00
      -11   -1    0    0    0    0  0.00000000000E+00  0.00000000000E+00  0.34996269501E-01  0.35000000000E-01  0.51099999109E-03 0. -1.
       11   -1    0    0    0    0 -0.00000000000E+00 -0.00000000000E+00 -0.34996269501E-01  0.35000000000E-01  0.51099999109E-03 0.  1.
       22    1    1    2    0    0 -0.96778597836E-02 -0.88626337430E-02 -0.32314665673E-01  0.34877569646E-01  0.00000000000E+00 0.  1.
       22    1    1    2    0    0  0.10002820363E-01  0.87206634492E-02  0.32021178490E-01  0.34662115603E-01  0.00000000000E+00 0. -1.
       22    1    1    2    0    0 -0.32496057977E-03  0.14197029385E-03  0.29348718322E-03  0.46031475042E-03  0.00000000000E+00 0.  1.
</event>
<event>
 5   0  0.4143600E+04  0.9118800E+02  0.7546771E-02  0.1180000E+00
      -11   -1    0    0    0    0  0.00000000000E+00  0.00000000000E+00  0.34996269501E-01  0.35000000000E-01  0.51099999109E-03 0. -1.
       11   -1    0    0    0    0 -0.00000000000E+00 -0.00000000000E+00 -0.34996269501E-01  0.35000000000E-01  0.51099999109E-03 0.  1.
       22    1    1    2    0    0 -0.22485603895E-02  0.29882204800E-02 -0.68970212320E-02  0.78456604143E-02  0.00000000000E+00 0.  1.
       22    1    1    2    0    0 -0.16768175926E-01 -0.12175781585E-01 -0.19427336977E-01  0.28404978492E-01  0.00000000000E+00 0.  1.
       22    1    1    2    0    0  0.19016736315E-01  0.91875611051E-02  0.26324358209E-01  0.33749361094E-01  0.00000000000E+00 0. -1.
</event>
<event>
 5   0  0.4143600E+04  0.9118800E+02  0.7546771E-02  0.1180000E+00
      -11   -1    0    0    0    0  0.00000000000E+00  0.00000000000E+00  0.34996269501E-01  0.35000000000E-01  0.51099999109E-03 0. -1.
       11   -1    0    0    0    0 -0.00000000000E+00 -0.00000000000E+00 -0.34996269501E-01  0.35000000000E-01  0.51099999109E-03 0.  1.
       22    1    1    2    0    0 -0.18693733742E-02  0.33688162813E-04 -0.14315516575E-01  0.14437094809E-01  0.00000000000E+00 0.  1.
       22    1    1    2    0    0  0.32108291167E-02  0.15289340184E-01 -0.15503888736E-01  0.22010086616E-01  0.00000000000E+00 0.  1.
       22    1    1    2    0    0 -0.13414557424E-02 -0.15323028347E-01  0.29819405311E-01  0.33552818575E-01  0.00000000000E+00 0. -1.
</event>
<event>
 5   0  0.4143600E+04  0.9118800E+02  0.7546771E-02  0.1180000E+00
      -11   -1    0    0    0    0  0.00000000000E+00  0.00000000000E+00  0.34996269501E-01  0.35000000000E-01  0.51099999109E-03 0. -1.
       11   -1    0    0    0    0 -0.00000000000E+00 -0.00000000000E+00 -0.34996269501E-01  0.35000000000E-01  0.51099999109E-03 0.  1.
       22    1    1    2    0    0  0.14590128313E-01  0.69440119264E-02  0.28094160398E-01  0.32409458407E-01  0.00000000000E+00 0. -1.
       22    1    1    2    0    0 -0.14888795000E-01 -0.72978668132E-02 -0.30728026822E-01  0.34916281431E-01  0.00000000000E+00 0.  1.
       22    1    1    2    0    0  0.29866668705E-03  0.35385488675E-03  0.26338664246E-02  0.26742601619E-02  0.00000000000E+00 0.  1.
</event>
<event>
 5   0  0.4143600E+04  0.9118800E+02  0.7546771E-02  0.1180000E+00
      -11   -1    0    0    0    0  0.00000000000E+00  0.00000000000E+00  0.34996269501E-01  0.35000000000E-01  0.51099999109E-03 0.  1.
       11   -1    0    0    0    0 -0.00000000000E+00 -0.00000000000E+00 -0.34996269501E-01  0.35000000000E-01  0.51099999109E-03 0. -1.
       22    1    1    2    0    0  0.77172895380E-02 -0.21839388676E-02  0.67640052801E-02  0.10491802239E-01  0.00000000000E+00 0.  1.
       22    1    1    2    0    0 -0.22335717257E-02  0.14679112098E-01  0.22650094478E-01  0.27083056594E-01  0.00000000000E+00 0.  1.
       22    1    1    2    0    0 -0.54837178123E-02 -0.12495173230E-01 -0.29414099758E-01  0.32425141167E-01  0.00000000000E+00 0. -1.
</event>
<event>
 5   0  0.4143600E+04  0.9118800E+02  0.7546771E-02  0.1180000E+00
      -11   -1    0    0    0    0  0.00000000000E+00  0.00000000000E+00  0.34996269501E-01  0.35000000000E-01  0.51099999109E-03 0. -1.
       11   -1    0    0    0    0 -0.00000000000E+00 -0.00000000000E+00 -0.34996269501E-01  0.35000000000E-01  0.51099999109E-03 0.  1.
       22    1    1    2    0    0 -0.55694223043E-03 -0.50035038231E-05  0.13215296882E-01  0.13227028441E-01  0.00000000000E+00 0. -1.
       22    1    1    2    0    0  0.16748611504E-01 -0.33933483015E-02 -0.29158257192E-01  0.33796963806E-01  0.00000000000E+00 0.  1.
       22    1    1    2    0    0 -0.16191669273E-01  0.33983518053E-02  0.15942960310E-01  0.22976007754E-01  0.00000000000E+00 0. -1.
</event>
<event>
 5   0  0.4143600E+04  0.9118800E+02  0.7546771E-02  0.1180000E+00
      -11   -1    0    0    0    0  0.00000000000E+00  0.00000000000E+00  0.34996269501E-01  0.35000000000E-01  0.51099999109E-03 0. -1.
       11   -1    0    0    0    0 -0.00000000000E+00 -0.00000000000E+00 -0.34996269501E-01  0.35000000000E-01  0.51099999109E-03 0.  1.
       22    1    1    2    0    0 -0.21765143317E-01  0.99709531547E-02  0.25232971244E-01  0.34782814840E-01  0.00000000000E+00 0. -1.
       22    1    1    2    0    0  0.60106652008E-02 -0.30192685126E-02 -0.38070644667E-02  0.77290244120E-02  0.00000000000E+00 0.  1.
       22    1    1    2    0    0  0.15754478116E-01 -0.69516846421E-02 -0.21425906777E-01  0.27488160748E-01  0.00000000000E+00 0.  1.
</event>
<event>
 5   0  0.4143600E+04  0.9118800E+02  0.7546771E-02  0.1180000E+00
      -11   -1    0    0    0    0  0.00000000000E+00  0.00000000000E+00  0.34996269501E-01  0.35000000000E-01  0.51099999109E-03 0. -1.
       11   -1    0    0    0    0 -0.00000000000E+00 -0.00000000000E+00 -0.34996269501E-01  0.35000000000E-01  0.51099999109E-03 0.  1.
       22    1    1    2    0    0  0.14480221130E-01  0.29669105014E-02  0.30543589381E-01  0.33932141315E-01  0.00000000000E+00 0. -1.
       22    1    1    2    0    0 -0.23895924363E-02  0.68779084724E-03  0.51477541423E-03  0.25393310120E-02  0.00000000000E+00 0.  1.
       22    1    1    2    0    0 -0.12090628694E-01 -0.36547013487E-02 -0.31058364796E-01  0.33528527673E-01  0.00000000000E+00 0.  1.
</event>
<event>
 5   0  0.4143600E+04  0.9118800E+02  0.7546771E-02  0.1180000E+00
      -11   -1    0    0    0    0  0.00000000000E+00  0.00000000000E+00  0.34996269501E-01  0.35000000000E-01  0.51099999109E-03 0.  1.
       11   -1    0    0    0    0 -0.00000000000E+00 -0.00000000000E+00 -0.34996269501E-01  0.35000000000E-01  0.51099999109E-03 0. -1.
       22    1    1    2    0    0  0.54534623592E-04 -0.59771472588E-03 -0.93388040425E-03  0.11101214024E-02  0.00000000000E+00 0. -1.
       22    1    1    2    0    0  0.14888397916E-02 -0.24494591757E-03 -0.33939084631E-01  0.33972608202E-01  0.00000000000E+00 0. -1.
       22    1    1    2    0    0 -0.15433744152E-02  0.84266064345E-03  0.34872965035E-01  0.34917270396E-01  0.00000000000E+00 0.  1.
</event>
<event>
 5   0  0.4143600E+04  0.9118800E+02  0.7546771E-02  0.1180000E+00
      -11   -1    0    0    0    0  0.00000000000E+00  0.00000000000E+00  0.34996269501E-01  0.35000000000E-01  0.51099999109E-03 0. -1.
       11   -1    0    0    0    0 -0.00000000000E+00 -0.00000000000E+00 -0.34996269501E-01  0.35000000000E-01  0.51099999109E-03 0. -1.
       22    1    1    2    0    0 -0.95818813371E-03 -0.95507287566E-03 -0.16050775911E-02  0.20991814526E-02  0.00000000000E+00 0.  1.
       22    1    1    2    0    0 -0.00000000000E+00  0.00000000000E+00  0.34739885270E-01  0.34738403548E-01  0.00000000000E+00 0. -1.
       22    1    1    2    0    0  0.95818813371E-03  0.95507287566E-03 -0.33134807679E-01  0.33162415000E-01  0.00000000000E+00 0. -1.
</event>
<event>
 5   0  0.4143600E+04  0.9118800E+02  0.7546771E-02  0.1180000E+00
      -11   -1    0    0    0    0  0.00000000000E+00  0.00000000000E+00  0.34996269501E-01  0.35000000000E-01  0.51099999109E-03 0. -1.
       11   -1    0    0    0    0 -0.00000000000E+00 -0.00000000000E+00 -0.34996269501E-01  0.35000000000E-01  0.51099999109E-03 0.  1.
       22    1    1    2    0    0  0.96281705687E-04  0.20559492373E-03  0.50529087026E-02  0.50580061088E-02  0.00000000000E+00 0.  1.
       22    1    1    2    0    0 -0.14208311658E-01  0.38198260354E-02 -0.31460503758E-01  0.34730829069E-01  0.00000000000E+00 0.  1.
       22    1    1    2    0    0  0.14112029953E-01 -0.40254209591E-02  0.26407595055E-01  0.30211164822E-01  0.00000000000E+00 0. -1.
</event>
<event>
 5   0  0.4143600E+04  0.9118800E+02  0.7546771E-02  0.1180000E+00
      -11   -1    0    0    0    0  0.00000000000E+00  0.00000000000E+00  0.34996269501E-01  0.35000000000E-01  0.51099999109E-03 0.  1.
       11   -1    0    0    0    0 -0.00000000000E+00 -0.00000000000E+00 -0.34996269501E-01  0.35000000000E-01  0.51099999109E-03 0. -1.
       22    1    1    2    0    0 -0.10117131523E-02  0.19949672671E-02  0.59120869765E-03  0.23136520100E-02  0.00000000000E+00 0.  1.
       22    1    1    2    0    0 -0.59519924903E-02 -0.11830361139E-01  0.31088623675E-01  0.33791806423E-01  0.00000000000E+00 0.  1.
       22    1    1    2    0    0  0.69637056426E-02  0.98353938718E-02 -0.31679832373E-01  0.33894541567E-01  0.00000000000E+00 0. -1.
</event>
<event>
 5   0  0.4143600E+04  0.9118800E+02  0.7546771E-02  0.1180000E+00
      -11   -1    0    0    0    0  0.00000000000E+00  0.00000000000E+00  0.34996269501E-01  0.35000000000E-01  0.51099999109E-03 0. -1.
       11   -1    0    0    0    0 -0.00000000000E+00 -0.00000000000E+00 -0.34996269501E-01  0.35000000000E-01  0.51099999109E-03 0.  1.
       22    1    1    2    0    0 -0.60676883979E-03 -0.24497275383E-03  0.15180236715E-01  0.15194333378E-01  0.00000000000E+00 0. -1.
       22    1    1    2    0    0  0.73356871100E-02  0.11310868485E-01 -0.31328146486E-01  0.34105729922E-01  0.00000000000E+00 0.  1.
       22    1    1    2    0    0 -0.67289182702E-02 -0.11065895731E-01  0.16147909771E-01  0.20699936700E-01  0.00000000000E+00 0. -1.
</event>
<event>
 5   0  0.4143600E+04  0.9118800E+02  0.7546771E-02  0.1180000E+00
      -11   -1    0    0    0    0  0.00000000000E+00  0.00000000000E+00  0.34996269501E-01  0.35000000000E-01  0.51099999109E-03 0.  1.
       11   -1    0    0    0    0 -0.00000000000E+00 -0.00000000000E+00 -0.34996269501E-01  0.35000000000E-01  0.51099999109E-03 0. -1.
       22    1    1    2    0    0 -0.37903444091E-03 -0.10681328270E-02 -0.12084496527E-02  0.16567816412E-02  0.00000000000E+00 0.  1.
       22    1    1    2    0    0 -0.16200423537E-02 -0.11405220142E-01 -0.31360943416E-01  0.33409764376E-01  0.00000000000E+00 0. -1.
       22    1    1    2    0    0  0.19990767946E-02  0.12473352969E-01  0.32569393069E-01  0.34933453983E-01  0.00000000000E+00 0.  1.
</event>
<event>
 5   0  0.4143600E+04  0.9118800E+02  0.7546771E-02  0.1180000E+00
      -11   -1    0    0    0    0  0.00000000000E+00  0.00000000000E+00  0.34996269501E-01  0.35000000000E-01  0.51099999109E-03 0.  1.
       11   -1    0    0    0    0 -0.00000000000E+00 -0.00000000000E+00 -0.34996269501E-01  0.35000000000E-01  0.51099999109E-03 0.  1.
       22    1    1    2    0    0 -0.14825667307E-01  0.11144163554E-01  0.20555436255E-01  0.27686075057E-01  0.00000000000E+00 0. -1.
       22    1    1    2    0    0  0.00000000000E+00  0.00000000000E+00  0.81438997243E-02  0.81431087680E-02  0.00000000000E+00 0.  1.
       22    1    1    2    0    0  0.14825667307E-01 -0.11144163554E-01 -0.28699335980E-01  0.34170816175E-01  0.00000000000E+00 0.  1.
</event>
<event>
 5   0  0.4143600E+04  0.9118800E+02  0.7546771E-02  0.1180000E+00
      -11   -1    0    0    0    0  0.00000000000E+00  0.00000000000E+00  0.34996269501E-01  0.35000000000E-01  0.51099999109E-03 0. -1.
       11   -1    0    0    0    0 -0.00000000000E+00 -0.00000000000E+00 -0.34996269501E-01  0.35000000000E-01  0.51099999109E-03 0.  1.
       22    1    1    2    0    0  0.10934397741E-01 -0.69615763535E-02  0.31861648961E-01  0.34397518425E-01  0.00000000000E+00 0. -1.
       22    1    1    2    0    0  0.50205026665E-04  0.46177720266E-05  0.61638099770E-03  0.61843949004E-03  0.00000000000E+00 0. -1.
       22    1    1    2    0    0 -0.10984602767E-01  0.69569585815E-02 -0.32478029958E-01  0.34984042085E-01  0.00000000000E+00 0.  1.
</event>
<event>
 5   0  0.4143600E+04  0.9118800E+02  0.7546771E-02  0.1180000E+00
      -11   -1    0    0    0    0  0.00000000000E+00  0.00000000000E+00  0.34996269501E-01  0.35000000000E-01  0.51099999109E-03 0.  1.
       11   -1    0    0    0    0 -0.00000000000E+00 -0.00000000000E+00 -0.34996269501E-01  0.35000000000E-01  0.51099999109E-03 0. -1.
       22    1    1    2    0    0 -0.61701512574E-02 -0.22418047268E-01  0.25844575476E-01  0.34764661531E-01  0.00000000000E+00 0.  1.
       22    1    1    2    0    0  0.40324217158E-03  0.58544209749E-04  0.17816007770E-03  0.44471641157E-03  0.00000000000E+00 0. -1.
       22    1    1    2    0    0  0.57669090858E-02  0.22359503058E-01 -0.26022735554E-01  0.34790622057E-01  0.00000000000E+00 0. -1.
</event>
<event>
 5   0  0.4143600E+04  0.9118800E+02  0.7546771E-02  0.1180000E+00
      -11   -1    0    0    0    0  0.00000000000E+00  0.00000000000E+00  0.34996269501E-01  0.35000000000E-01  0.51099999109E-03 0. -1.
       11   -1    0    0    0    0 -0.00000000000E+00 -0.00000000000E+00 -0.34996269501E-01  0.35000000000E-01  0.51099999109E-03 0.  1.
       22    1    1    2    0    0 -0.10694444535E-01 -0.45795310069E-02 -0.32993057589E-01  0.34984069192E-01  0.00000000000E+00 0.  1.
       22    1    1    2    0    0  0.27881686885E-03 -0.10858256396E-03  0.10670531433E-02  0.11082109141E-02  0.00000000000E+00 0.  1.
       22    1    1    2    0    0  0.10415627666E-01  0.46881135708E-02  0.31926004446E-01  0.33907719894E-01  0.00000000000E+00 0. -1.
</event>
<event>
 5   0  0.4143600E+04  0.9118800E+02  0.7546771E-02  0.1180000E+00
      -11   -1    0    0    0    0  0.00000000000E+00  0.00000000000E+00  0.34996269501E-01  0.35000000000E-01  0.51099999109E-03 0. -1.
       11   -1    0    0    0    0 -0.00000000000E+00 -0.00000000000E+00 -0.34996269501E-01  0.35000000000E-01  0.51099999109E-03 0.  1.
       22    1    1    2    0    0  0.15100482483E-01  0.71656624637E-02 -0.30444976067E-01  0.34731367055E-01  0.00000000000E+00 0.  1.
       22    1    1    2    0    0 -0.25484568813E-02 -0.41183622447E-02  0.72298309722E-02  0.87020684863E-02  0.00000000000E+00 0.  1.
       22    1    1    2    0    0 -0.12552025602E-01 -0.30473002190E-02  0.23215145095E-01  0.26566564459E-01  0.00000000000E+00 0. -1.
</event>
<event>
 5   0  0.4143600E+04  0.9118800E+02  0.7546771E-02  0.1180000E+00
      -11   -1    0    0    0    0  0.00000000000E+00  0.00000000000E+00  0.34996269501E-01  0.35000000000E-01  0.51099999109E-03 0. -1.
       11   -1    0    0    0    0 -0.00000000000E+00 -0.00000000000E+00 -0.34996269501E-01  0.35000000000E-01  0.51099999109E-03 0.  1.
       22    1    1    2    0    0  0.32152122269E-02  0.37051270876E-02  0.34599948523E-01  0.34945986811E-01  0.00000000000E+00 0. -1.
       22    1    1    2    0    0  0.27567665354E-03  0.27487447676E-04 -0.48637949135E-03  0.55974832442E-03  0.00000000000E+00 0. -1.
       22    1    1    2    0    0 -0.34908888804E-02 -0.37326145352E-02 -0.34113569032E-01  0.34494264864E-01  0.00000000000E+00 0.  1.
</event>
<event>
 5   0  0.4143600E+04  0.9118800E+02  0.7546771E-02  0.1180000E+00
      -11   -1    0    0    0    0  0.00000000000E+00  0.00000000000E+00  0.34996269501E-01  0.35000000000E-01  0.51099999109E-03 0.  1.
       11   -1    0    0    0    0 -0.00000000000E+00 -0.00000000000E+00 -0.34996269501E-01  0.35000000000E-01  0.51099999109E-03 0. -1.
       22    1    1    2    0    0 -0.30143813794E-02 -0.62383466959E-03 -0.40192642197E-02  0.50626228048E-02  0.00000000000E+00 0.  1.
       22    1    1    2    0    0 -0.27033621248E-02  0.30421716144E-02  0.34039509191E-01  0.34281936365E-01  0.00000000000E+00 0.  1.
       22    1    1    2    0    0  0.57177435041E-02 -0.24183369448E-02 -0.30020244972E-01  0.30655440831E-01  0.00000000000E+00 0. -1.
</event>
<event>
 5   0  0.4143600E+04  0.9118800E+02  0.7546771E-02  0.1180000E+00
      -11   -1    0    0    0    0  0.00000000000E+00  0.00000000000E+00  0.34996269501E-01  0.35000000000E-01  0.51099999109E-03 0. -1.
       11   -1    0    0    0    0 -0.00000000000E+00 -0.00000000000E+00 -0.34996269501E-01  0.35000000000E-01  0.51099999109E-03 0.  1.
       22    1    1    2    0    0 -0.95815363886E-03  0.24420356268E-01  0.24594322897E-01  0.34672072009E-01  0.00000000000E+00 0. -1.
       22    1    1    2    0    0  0.78088882339E-03 -0.97745769220E-04 -0.74703581068E-04  0.79052021791E-03  0.00000000000E+00 0.  1.
       22    1    1    2    0    0  0.17726481547E-03 -0.24322610499E-01 -0.24519619316E-01  0.34537407773E-01  0.00000000000E+00 0.  1.
</event>
<event>
 5   0  0.4143600E+04  0.9118800E+02  0.7546771E-02  0.1180000E+00
      -11   -1    0    0    0    0  0.00000000000E+00  0.00000000000E+00  0.34996269501E-01  0.35000000000E-01  0.51099999109E-03 0. -1.
       11   -1    0    0    0    0 -0.00000000000E+00 -0.00000000000E+00 -0.34996269501E-01  0.35000000000E-01  0.51099999109E-03 0.  1.
       22    1    1    2    0    0  0.33426957241E-02 -0.23346997819E-01 -0.23326608185E-01  0.33172075173E-01  0.00000000000E+00 0.  1.
       22    1    1    2    0    0 -0.23693766651E-02  0.21777938869E-01  0.25733064155E-01  0.33794720859E-01  0.00000000000E+00 0. -1.
       22    1    1    2    0    0 -0.97331905905E-03  0.15690589495E-02 -0.24064559695E-02  0.30332039679E-02  0.00000000000E+00 0. -1.
</event>
<event>
 5   0  0.4143600E+04  0.9118800E+02  0.7546771E-02  0.1180000E+00
      -11   -1    0    0    0    0  0.00000000000E+00  0.00000000000E+00  0.34996269501E-01  0.35000000000E-01  0.51099999109E-03 0. -1.
       11   -1    0    0    0    0 -0.00000000000E+00 -0.00000000000E+00 -0.34996269501E-01  0.35000000000E-01  0.51099999109E-03 0.  1.
       22    1    1    2    0    0  0.62203069603E-02 -0.11428722501E-01  0.31586907775E-01  0.34161976808E-01  0.00000000000E+00 0. -1.
       22    1    1    2    0    0 -0.76723741731E-02  0.94729081248E-02 -0.16278032047E-01  0.20336559225E-01  0.00000000000E+00 0.  1.
       22    1    1    2    0    0  0.14520672128E-02  0.19558143764E-02 -0.15308875728E-01  0.15501463967E-01  0.00000000000E+00 0. -1.
</event>
<event>
 5   0  0.4143600E+04  0.9118800E+02  0.7546771E-02  0.1180000E+00
      -11   -1    0    0    0    0  0.00000000000E+00  0.00000000000E+00  0.34996269501E-01  0.35000000000E-01  0.51099999109E-03 0.  1.
       11   -1    0    0    0    0 -0.00000000000E+00 -0.00000000000E+00 -0.34996269501E-01  0.35000000000E-01  0.51099999109E-03 0. -1.
       22    1    1    2    0    0 -0.25212720637E-01  0.19489809417E-01  0.60956710072E-02  0.32445202389E-01  0.00000000000E+00 0. -1.
       22    1    1    2    0    0  0.21448925214E-01 -0.21023909193E-01  0.23081560446E-03  0.30035219767E-01  0.00000000000E+00 0.  1.
       22    1    1    2    0    0  0.37637954225E-02  0.15340997759E-02 -0.63264866117E-02  0.75195778440E-02  0.00000000000E+00 0.  1.
</event>
<event>
 5   0  0.4143600E+04  0.9118800E+02  0.7546771E-02  0.1180000E+00
      -11   -1    0    0    0    0  0.00000000000E+00  0.00000000000E+00  0.34996269501E-01  0.35000000000E-01  0.51099999109E-03 0.  1.
       11   -1    0    0    0    0 -0.00000000000E+00 -0.00000000000E+00 -0.34996269501E-01  0.35000000000E-01  0.51099999109E-03 0. -1.
       22    1    1    2    0    0  0.38437757478E-03  0.20841494300E-03  0.47851139290E-02  0.48050492424E-02  0.00000000000E+00 0.  1.
       22    1    1    2    0    0 -0.16856248746E-01 -0.70952549774E-02 -0.29498091444E-01  0.34707537565E-01  0.00000000000E+00 0. -1.
       22    1    1    2    0    0  0.16471871172E-01  0.68868400344E-02  0.24712977515E-01  0.30487413193E-01  0.00000000000E+00 0.  1.
</event>
<event>
 5   0  0.4143600E+04  0.9118800E+02  0.7546771E-02  0.1180000E+00
      -11   -1    0    0    0    0  0.00000000000E+00  0.00000000000E+00  0.34996269501E-01  0.35000000000E-01  0.51099999109E-03 0. -1.
       11   -1    0    0    0    0 -0.00000000000E+00 -0.00000000000E+00 -0.34996269501E-01  0.35000000000E-01  0.51099999109E-03 0.  1.
       22    1    1    2    0    0  0.46758073588E-04 -0.30756630605E-03 -0.23283314206E-02  0.23490233192E-02  0.00000000000E+00 0.  1.
       22    1    1    2    0    0  0.20870902581E-02 -0.17083634583E-01  0.30182192466E-01  0.34744370168E-01  0.00000000000E+00 0. -1.
       22    1    1    2    0    0 -0.21338483317E-02  0.17391200889E-01 -0.27853861045E-01  0.32906606513E-01  0.00000000000E+00 0.  1.
</event>
<event>
 5   0  0.4143600E+04  0.9118800E+02  0.7546771E-02  0.1180000E+00
      -11   -1    0    0    0    0  0.00000000000E+00  0.00000000000E+00  0.34996269501E-01  0.35000000000E-01  0.51099999109E-03 0. -1.
       11   -1    0    0    0    0 -0.00000000000E+00 -0.00000000000E+00 -0.34996269501E-01  0.35000000000E-01  0.51099999109E-03 0.  1.
       22    1    1    2    0    0  0.44196879084E-02  0.11294160629E-01 -0.30724784170E-01  0.33031864431E-01  0.00000000000E+00 0.  1.
       22    1    1    2    0    0 -0.30868915531E-02 -0.73332997171E-02  0.31694567876E-01  0.32678002036E-01  0.00000000000E+00 0. -1.
       22    1    1    2    0    0 -0.13327963554E-02 -0.39608609123E-02 -0.96978370630E-03  0.42901335327E-02  0.00000000000E+00 0. -1.
</event>
<event>
 5   0  0.4143600E+04  0.9118800E+02  0.7546771E-02  0.1180000E+00
      -11   -1    0    0    0    0  0.00000000000E+00  0.00000000000E+00  0.34996269501E-01  0.35000000000E-01  0.51099999109E-03 0.  1.
       11   -1    0    0    0    0 -0.00000000000E+00 -0.00000000000E+00 -0.34996269501E-01  0.35000000000E-01  0.51099999109E-03 0. -1.
       22    1    1    2    0    0 -0.25163354108E-02  0.45667085536E-02  0.34559839538E-01  0.34950955349E-01  0.00000000000E+00 0.  1.
       22    1    1    2    0    0  0.33737038394E-03 -0.37196705149E-03 -0.70364188892E-03  0.86445946765E-03  0.00000000000E+00 0. -1.
       22    1    1    2    0    0  0.21789650268E-02 -0.41947415021E-02 -0.33856197649E-01  0.34184585183E-01  0.00000000000E+00 0. -1.
</event>
<event>
 5   0  0.4143600E+04  0.9118800E+02  0.7546771E-02  0.1180000E+00
      -11   -1    0    0    0    0  0.00000000000E+00  0.00000000000E+00  0.34996269501E-01  0.35000000000E-01  0.51099999109E-03 0. -1.
       11   -1    0    0    0    0 -0.00000000000E+00 -0.00000000000E+00 -0.34996269501E-01  0.35000000000E-01  0.51099999109E-03 0.  1.
       22    1    1    2    0    0  0.49950683011E-02  0.24279588439E-01 -0.24520940834E-01  0.34867257728E-01  0.00000000000E+00 0.  1.
       22    1    1    2    0    0 -0.53331536852E-02 -0.23216411568E-01  0.24232838283E-01  0.33980505376E-01  0.00000000000E+00 0. -1.
       22    1    1    2    0    0  0.33808538412E-03 -0.10631768707E-02  0.28810255108E-03  0.11522368963E-02  0.00000000000E+00 0. -1.
</event>
<event>
 5   0  0.4143600E+04  0.9118800E+02  0.7546771E-02  0.1180000E+00
      -11   -1    0    0    0    0  0.00000000000E+00  0.00000000000E+00  0.34996269501E-01  0.35000000000E-01  0.51099999109E-03 0.  1.
       11   -1    0    0    0    0 -0.00000000000E+00 -0.00000000000E+00 -0.34996269501E-01  0.35000000000E-01  0.51099999109E-03 0. -1.
       22    1    1    2    0    0 -0.26706221884E-02 -0.39273000677E-02 -0.34129679863E-01  0.34458539670E-01  0.00000000000E+00 0. -1.
       22    1    1    2    0    0 -0.27285473155E-03  0.16679370966E-03 -0.49483107854E-03  0.58917539188E-03  0.00000000000E+00 0. -1.
       22    1    1    2    0    0  0.29434769199E-02  0.37605063580E-02  0.34624510941E-01  0.34952284938E-01  0.00000000000E+00 0.  1.
</event>
<event>
 5   0  0.4143600E+04  0.9118800E+02  0.7546771E-02  0.1180000E+00
      -11   -1    0    0    0    0  0.00000000000E+00  0.00000000000E+00  0.34996269501E-01  0.35000000000E-01  0.51099999109E-03 0.  1.
       11   -1    0    0    0    0 -0.00000000000E+00 -0.00000000000E+00 -0.34996269501E-01  0.35000000000E-01  0.51099999109E-03 0. -1.
       22    1    1    2    0    0  0.15318248073E-01 -0.40452682721E-02 -0.31160418974E-01  0.34956896745E-01  0.00000000000E+00 0. -1.
       22    1    1    2    0    0 -0.10875024050E-03  0.17501623492E-03  0.12343349079E-02  0.12514151838E-02  0.00000000000E+00 0. -1.
       22    1    1    2    0    0 -0.15209497832E-01  0.38702520371E-02  0.29926084066E-01  0.33791688071E-01  0.00000000000E+00 0.  1.
</event>
<event>
 5   0  0.4143600E+04  0.9118800E+02  0.7546771E-02  0.1180000E+00
      -11   -1    0    0    0    0  0.00000000000E+00  0.00000000000E+00  0.34996269501E-01  0.35000000000E-01  0.51099999109E-03 0. -1.
       11   -1    0    0    0    0 -0.00000000000E+00 -0.00000000000E+00 -0.34996269501E-01  0.35000000000E-01  0.51099999109E-03 0.  1.
       22    1    1    2    0    0 -0.44893311247E-03 -0.15561481773E-02  0.22654801325E-01  0.22712621186E-01  0.00000000000E+00 0. -1.
       22    1    1    2    0    0  0.95751371311E-02  0.15229171746E-01  0.15194684954E-02  0.18053246457E-01  0.00000000000E+00 0. -1.
       22    1    1    2    0    0 -0.91262040186E-02 -0.13673023568E-01 -0.24174269820E-01  0.29234132356E-01  0.00000000000E+00 0.  1.
</event>
<event>
 5   0  0.4143600E+04  0.9118800E+02  0.7546771E-02  0.1180000E+00
      -11   -1    0    0    0    0  0.00000000000E+00  0.00000000000E+00  0.34996269501E-01  0.35000000000E-01  0.51099999109E-03 0. -1.
       11   -1    0    0    0    0 -0.00000000000E+00 -0.00000000000E+00 -0.34996269501E-01  0.35000000000E-01  0.51099999109E-03 0.  1.
       22    1    1    2    0    0 -0.84215520431E-03  0.12549551288E-01 -0.32637027715E-01  0.34976792891E-01  0.00000000000E+00 0.  1.
       22    1    1    2    0    0 -0.11118384523E-04 -0.61275217948E-04  0.96981569995E-03  0.97181313156E-03  0.00000000000E+00 0.  1.
       22    1    1    2    0    0  0.85327358883E-03 -0.12488276070E-01  0.31667212015E-01  0.34051393977E-01  0.00000000000E+00 0. -1.
</event>
<event>
 5   0  0.4143600E+04  0.9118800E+02  0.7546771E-02  0.1180000E+00
      -11   -1    0    0    0    0  0.00000000000E+00  0.00000000000E+00  0.34996269501E-01  0.35000000000E-01  0.51099999109E-03 0.  1.
       11   -1    0    0    0    0 -0.00000000000E+00 -0.00000000000E+00 -0.34996269501E-01  0.35000000000E-01  0.51099999109E-03 0. -1.
       22    1    1    2    0    0 -0.17192977586E-03 -0.35801462404E-02  0.34413402746E-01  0.34599556291E-01  0.00000000000E+00 0.  1.
       22    1    1    2    0    0  0.29945386400E-03  0.14825853325E-03 -0.28919769683E-01  0.28921700014E-01  0.00000000000E+00 0. -1.
       22    1    1    2    0    0 -0.12752408815E-03  0.34318877072E-02 -0.54936330634E-02  0.64787436948E-02  0.00000000000E+00 0. -1.
</event>
<event>
 5   0  0.4143600E+04  0.9118800E+02  0.7546771E-02  0.1180000E+00
      -11   -1    0    0    0    0  0.00000000000E+00  0.00000000000E+00  0.34996269501E-01  0.35000000000E-01  0.51099999109E-03 0. -1.
       11   -1    0    0    0    0 -0.00000000000E+00 -0.00000000000E+00 -0.34996269501E-01  0.35000000000E-01  0.51099999109E-03 0.  1.
       22    1    1    2    0    0 -0.95379404185E-02 -0.15668210309E-01  0.27023716094E-01  0.32661083161E-01  0.00000000000E+00 0. -1.
       22    1    1    2    0    0  0.93789562922E-02  0.15713024166E-01 -0.29577047286E-01  0.34780248356E-01  0.00000000000E+00 0.  1.
       22    1    1    2    0    0  0.15898412630E-03 -0.44813857292E-04  0.25533311911E-02  0.25586684830E-02  0.00000000000E+00 0. -1.
</event>
<event>
 5   0  0.4143600E+04  0.9118800E+02  0.7546771E-02  0.1180000E+00
      -11   -1    0    0    0    0  0.00000000000E+00  0.00000000000E+00  0.34996269501E-01  0.35000000000E-01  0.51099999109E-03 0. -1.
       11   -1    0    0    0    0 -0.00000000000E+00 -0.00000000000E+00 -0.34996269501E-01  0.35000000000E-01  0.51099999109E-03 0.  1.
       22    1    1    2    0    0  0.90431579321E-02 -0.79847011899E-02  0.31340899579E-01  0.33582527375E-01  0.00000000000E+00 0. -1.
       22    1    1    2    0    0 -0.68020749228E-02  0.10442427564E-01 -0.30556436999E-01  0.33000126648E-01  0.00000000000E+00 0.  1.
       22    1    1    2    0    0 -0.22410830092E-02 -0.24577263744E-02 -0.78446258008E-03  0.34173459768E-02  0.00000000000E+00 0. -1.
</event>
<event>
 5   0  0.4143600E+04  0.9118800E+02  0.7546771E-02  0.1180000E+00
      -11   -1    0    0    0    0  0.00000000000E+00  0.00000000000E+00  0.34996269501E-01  0.35000000000E-01  0.51099999109E-03 0. -1.
       11   -1    0    0    0    0 -0.00000000000E+00 -0.00000000000E+00 -0.34996269501E-01  0.35000000000E-01  0.51099999109E-03 0.  1.
       22    1    1    2    0    0 -0.44375902984E-02 -0.28183329716E-02 -0.19760109837E-01  0.20447424023E-01  0.00000000000E+00 0. -1.
       22    1    1    2    0    0  0.10039626614E-01  0.15087176387E-02 -0.12885189668E-01  0.16404220318E-01  0.00000000000E+00 0.  1.
       22    1    1    2    0    0 -0.56020363156E-02  0.13096153329E-02  0.32645299504E-01  0.33148355660E-01  0.00000000000E+00 0. -1.
</event>
<event>
 5   0  0.4143600E+04  0.9118800E+02  0.7546771E-02  0.1180000E+00
      -11   -1    0    0    0    0  0.00000000000E+00  0.00000000000E+00  0.34996269501E-01  0.35000000000E-01  0.51099999109E-03 0.  1.
       11   -1    0    0    0    0 -0.00000000000E+00 -0.00000000000E+00 -0.34996269501E-01  0.35000000000E-01  0.51099999109E-03 0.  1.
       22    1    1    2    0    0 -0.25611571898E-03 -0.13994192290E-03 -0.96340074782E-02  0.96384272105E-02  0.00000000000E+00 0.  1.
       22    1    1    2    0    0 -0.10229174456E-01 -0.54432594713E-02 -0.22933859474E-01  0.25694882644E-01  0.00000000000E+00 0.  1.
       22    1    1    2    0    0  0.10485290175E-01  0.55832013942E-02  0.32567866952E-01  0.34666690146E-01  0.00000000000E+00 0.  1.
</event>
<event>
 5   0  0.4143600E+04  0.9118800E+02  0.7546771E-02  0.1180000E+00
      -11   -1    0    0    0    0  0.00000000000E+00  0.00000000000E+00  0.34996269501E-01  0.35000000000E-01  0.51099999109E-03 0. -1.
       11   -1    0    0    0    0 -0.00000000000E+00 -0.00000000000E+00 -0.34996269501E-01  0.35000000000E-01  0.51099999109E-03 0.  1.
       22    1    1    2    0    0 -0.39833008583E-02  0.14657865627E-01 -0.31462418056E-01  0.34937135836E-01  0.00000000000E+00 0.  1.
       22    1    1    2    0    0  0.38928006611E-02 -0.14387586798E-01  0.29215067390E-01  0.32797510781E-01  0.00000000000E+00 0. -1.
       22    1    1    2    0    0  0.90500197219E-04 -0.27027882912E-03  0.22473506666E-02  0.22653533830E-02  0.00000000000E+00 0.  1.
</event>
<event>
 5   0  0.4143600E+04  0.9118800E+02  0.7546771E-02  0.1180000E+00
      -11   -1    0    0    0    0  0.00000000000E+00  0.00000000000E+00  0.34996269501E-01  0.35000000000E-01  0.51099999109E-03 0.  1.
       11   -1    0    0    0    0 -0.00000000000E+00 -0.00000000000E+00 -0.34996269501E-01  0.35000000000E-01  0.51099999109E-03 0. -1.
       22    1    1    2    0    0  0.62645204893E-02  0.21494460344E-01  0.24335185529E-01  0.33067465842E-01  0.00000000000E+00 0.  1.
       22    1    1    2    0    0 -0.73466664213E-02 -0.22344268168E-01 -0.25807063613E-01  0.34917679759E-01  0.00000000000E+00 0. -1.
       22    1    1    2    0    0  0.10821459320E-02  0.84980782351E-03  0.14718780840E-02  0.20148543990E-02  0.00000000000E+00 0. -1.
</event>
<event>
 5   0  0.4143600E+04  0.9118800E+02  0.7546771E-02  0.1180000E+00
      -11   -1    0    0    0    0  0.00000000000E+00  0.00000000000E+00  0.34996269501E-01  0.35000000000E-01  0.51099999109E-03 0.  1.
       11   -1    0    0    0    0 -0.00000000000E+00 -0.00000000000E+00 -0.34996269501E-01  0.35000000000E-01  0.51099999109E-03 0. -1.
       22    1    1    2    0    0 -0.24947438300E-04 -0.18286525451E-02 -0.33965263668E-01  0.34014463520E-01  0.00000000000E+00 0. -1.
       22    1    1    2    0    0 -0.14996942068E-03  0.22873310073E-02  0.34875827507E-01  0.34951076068E-01  0.00000000000E+00 0.  1.
       22    1    1    2    0    0  0.17491685898E-03 -0.45867846219E-03 -0.91056383948E-03  0.10344604125E-02  0.00000000000E+00 0. -1.
</event>
<event>
 5   0  0.4143600E+04  0.9118800E+02  0.7546771E-02  0.1180000E+00
      -11   -1    0    0    0    0  0.00000000000E+00  0.00000000000E+00  0.34996269501E-01  0.35000000000E-01  0.51099999109E-03 0.  1.
       11   -1    0    0    0    0 -0.00000000000E+00 -0.00000000000E+00 -0.34996269501E-01  0.35000000000E-01  0.51099999109E-03 0.  1.
       22    1    1    2    0    0  0.20591463336E-05 -0.97390120285E-03 -0.32680345695E-01  0.32694854068E-01  0.00000000000E+00 0.  1.
       22    1    1    2    0    0 -0.00000000000E+00 -0.00000000000E+00  0.34891041657E-01  0.34889433940E-01  0.00000000000E+00 0.  1.
       22    1    1    2    0    0 -0.20591463336E-05  0.97390120285E-03 -0.22106959622E-02  0.24157119924E-02  0.00000000000E+00 0. -1.
</event>
<event>
 5   0  0.4143600E+04  0.9118800E+02  0.7546771E-02  0.1180000E+00
      -11   -1    0    0    0    0  0.00000000000E+00  0.00000000000E+00  0.34996269501E-01  0.35000000000E-01  0.51099999109E-03 0.  1.
       11   -1    0    0    0    0 -0.00000000000E+00 -0.00000000000E+00 -0.34996269501E-01  0.35000000000E-01  0.51099999109E-03 0. -1.
       22    1    1    2    0    0 -0.23445674708E-02  0.34749640463E-03 -0.27653757846E-02  0.36421221296E-02  0.00000000000E+00 0.  1.
       22    1    1    2    0    0 -0.11995429943E-02  0.12317574743E-02  0.34421721326E-01  0.34464634466E-01  0.00000000000E+00 0.  1.
       22    1    1    2    0    0  0.35441104652E-02 -0.15792538789E-02 -0.31656345541E-01  0.31893243404E-01  0.00000000000E+00 0. -1.
</event>
<event>
 5   0  0.4143600E+04  0.9118800E+02  0.7546771E-02  0.1180000E+00
      -11   -1    0    0    0    0  0.00000000000E+00  0.00000000000E+00  0.34996269501E-01  0.35000000000E-01  0.51099999109E-03 0. -1.
       11   -1    0    0    0    0 -0.00000000000E+00 -0.00000000000E+00 -0.34996269501E-01  0.35000000000E-01  0.51099999109E-03 0.  1.
       22    1    1    2    0    0 -0.12644378055E-01 -0.69137753598E-03 -0.26888943581E-02  0.12945595860E-01  0.00000000000E+00 0. -1.
       22    1    1    2    0    0 -0.55886477060E-03  0.21552742516E-02  0.28202163884E-01  0.28289920196E-01  0.00000000000E+00 0. -1.
       22    1    1    2    0    0  0.13203242825E-01 -0.14638967156E-02 -0.25513269526E-01  0.28764483945E-01  0.00000000000E+00 0.  1.
</event>
<event>
 5   0  0.4143600E+04  0.9118800E+02  0.7546771E-02  0.1180000E+00
      -11   -1    0    0    0    0  0.00000000000E+00  0.00000000000E+00  0.34996269501E-01  0.35000000000E-01  0.51099999109E-03 0. -1.
       11   -1    0    0    0    0 -0.00000000000E+00 -0.00000000000E+00 -0.34996269501E-01  0.35000000000E-01  0.51099999109E-03 0.  1.
       22    1    1    2    0    0  0.12569810062E-01  0.48936121743E-02 -0.30292141345E-01  0.33159634986E-01  0.00000000000E+00 0.  1.
       22    1    1    2    0    0 -0.12511233398E-01 -0.47105589576E-02  0.32230210043E-01  0.34892789603E-01  0.00000000000E+00 0. -1.
       22    1    1    2    0    0 -0.58576663935E-04 -0.18305321670E-03 -0.19380686981E-02  0.19475754117E-02  0.00000000000E+00 0.  1.
</event>
<event>
 5   0  0.4143600E+04  0.9118800E+02  0.7546771E-02  0.1180000E+00
      -11   -1    0    0    0    0  0.00000000000E+00  0.00000000000E+00  0.34996269501E-01  0.35000000000E-01  0.51099999109E-03 0.  1.
       11   -1    0    0    0    0 -0.00000000000E+00 -0.00000000000E+00 -0.34996269501E-01  0.35000000000E-01  0.51099999109E-03 0. -1.
       22    1    1    2    0    0  0.49440275487E-02 -0.33615956827E-02 -0.33384451191E-01  0.33915561550E-01  0.00000000000E+00 0. -1.
       22    1    1    2    0    0 -0.45602302928E-02  0.33400101175E-02  0.34471268048E-01  0.34931643086E-01  0.00000000000E+00 0.  1.
       22    1    1    2    0    0 -0.38379725592E-03  0.21585565178E-04 -0.10868168571E-02  0.11527953639E-02  0.00000000000E+00 0. -1.
</event>
<event>
 5   0  0.4143600E+04  0.9118800E+02  0.7546771E-02  0.1180000E+00
      -11   -1    0    0    0    0  0.00000000000E+00  0.00000000000E+00  0.34996269501E-01  0.35000000000E-01  0.51099999109E-03 0.  1.
       11   -1    0    0    0    0 -0.00000000000E+00 -0.00000000000E+00 -0.34996269501E-01  0.35000000000E-01  0.51099999109E-03 0. -1.
       22    1    1    2    0    0 -0.58515183006E-02 -0.94614467442E-02  0.33051360448E-01  0.34873366175E-01  0.00000000000E+00 0.  1.
       22    1    1    2    0    0  0.51905695511E-02  0.91665641791E-02 -0.26218909366E-01  0.28255957239E-01  0.00000000000E+00 0. -1.
       22    1    1    2    0    0  0.66094874950E-03  0.29488256511E-03 -0.68324510814E-02  0.68706765865E-02  0.00000000000E+00 0. -1.
</event>
<event>
 5   0  0.4143600E+04  0.9118800E+02  0.7546771E-02  0.1180000E+00
      -11   -1    0    0    0    0  0.00000000000E+00  0.00000000000E+00  0.34996269501E-01  0.35000000000E-01  0.51099999109E-03 0. -1.
       11   -1    0    0    0    0 -0.00000000000E+00 -0.00000000000E+00 -0.34996269501E-01  0.35000000000E-01  0.51099999109E-03 0.  1.
       22    1    1    2    0    0 -0.44092600935E-02  0.20990581926E-03 -0.65618632644E-02  0.79084565198E-02  0.00000000000E+00 0.  1.
       22    1    1    2    0    0 -0.91505240959E-02  0.60678639274E-02 -0.24926571854E-01  0.27237566857E-01  0.00000000000E+00 0.  1.
       22    1    1    2    0    0  0.13559784189E-01 -0.62777697467E-02  0.31488435119E-01  0.34853976624E-01  0.00000000000E+00 0. -1.
</event>
<event>
 5   0  0.4143600E+04  0.9118800E+02  0.7546771E-02  0.1180000E+00
      -11   -1    0    0    0    0  0.00000000000E+00  0.00000000000E+00  0.34996269501E-01  0.35000000000E-01  0.51099999109E-03 0.  1.
       11   -1    0    0    0    0 -0.00000000000E+00 -0.00000000000E+00 -0.34996269501E-01  0.35000000000E-01  0.51099999109E-03 0. -1.
       22    1    1    2    0    0  0.18283544606E-03  0.19287923033E-01 -0.28044579274E-01  0.34037564989E-01  0.00000000000E+00 0. -1.
       22    1    1    2    0    0  0.22748494402E-03 -0.13762818554E-03  0.88204870960E-02  0.88244933865E-02  0.00000000000E+00 0.  1.
       22    1    1    2    0    0 -0.41032039008E-03 -0.19150294848E-01  0.19224092178E-01  0.27137941625E-01  0.00000000000E+00 0.  1.
</event>
<event>
 5   0  0.4143600E+04  0.9118800E+02  0.7546771E-02  0.1180000E+00
      -11   -1    0    0    0    0  0.00000000000E+00  0.00000000000E+00  0.34996269501E-01  0.35000000000E-01  0.51099999109E-03 0.  1.
       11   -1    0    0    0    0 -0.00000000000E+00 -0.00000000000E+00 -0.34996269501E-01  0.35000000000E-01  0.51099999109E-03 0. -1.
       22    1    1    2    0    0  0.33516262628E-03 -0.20390543336E-03 -0.18639578829E-02  0.19047966823E-02  0.00000000000E+00 0. -1.
       22    1    1    2    0    0 -0.86985645511E-02  0.73339081603E-02 -0.31222646906E-01  0.33231083551E-01  0.00000000000E+00 0. -1.
       22    1    1    2    0    0  0.83634019249E-02 -0.71300027270E-02  0.33086604789E-01  0.34864119767E-01  0.00000000000E+00 0.  1.
</event>
<event>
 5   0  0.4143600E+04  0.9118800E+02  0.7546771E-02  0.1180000E+00
      -11   -1    0    0    0    0  0.00000000000E+00  0.00000000000E+00  0.34996269501E-01  0.35000000000E-01  0.51099999109E-03 0. -1.
       11   -1    0    0    0    0 -0.00000000000E+00 -0.00000000000E+00 -0.34996269501E-01  0.35000000000E-01  0.51099999109E-03 0.  1.
       22    1    1    2    0    0  0.59730412342E-04 -0.21793439520E-03  0.11780741107E-02  0.11995506380E-02  0.00000000000E+00 0. -1.
       22    1    1    2    0    0  0.47017977276E-02 -0.23641673933E-01 -0.25015436745E-01  0.34739138213E-01  0.00000000000E+00 0.  1.
       22    1    1    2    0    0 -0.47615281399E-02  0.23859608329E-01  0.23837362634E-01  0.34061311149E-01  0.00000000000E+00 0. -1.
</event>
<event>
 5   0  0.4143600E+04  0.9118800E+02  0.7546771E-02  0.1180000E+00
      -11   -1    0    0    0    0  0.00000000000E+00  0.00000000000E+00  0.34996269501E-01  0.35000000000E-01  0.51099999109E-03 0. -1.
       11   -1    0    0    0    0 -0.00000000000E+00 -0.00000000000E+00 -0.34996269501E-01  0.35000000000E-01  0.51099999109E-03 0.  1.
       22    1    1    2    0    0  0.30816326602E-01 -0.26756205507E-02  0.65775854960E-02  0.31623876446E-01  0.00000000000E+00 0.  1.
       22    1    1    2    0    0 -0.48324351005E-02 -0.78369574775E-03 -0.10769418976E-01  0.11829919404E-01  0.00000000000E+00 0. -1.
       22    1    1    2    0    0 -0.25983891501E-01  0.34593162985E-02  0.41918334805E-02  0.26546204149E-01  0.00000000000E+00 0. -1.
</event>
<event>
 5   0  0.4143600E+04  0.9118800E+02  0.7546771E-02  0.1180000E+00
      -11   -1    0    0    0    0  0.00000000000E+00  0.00000000000E+00  0.34996269501E-01  0.35000000000E-01  0.51099999109E-03 0. -1.
       11   -1    0    0    0    0 -0.00000000000E+00 -0.00000000000E+00 -0.34996269501E-01  0.35000000000E-01  0.51099999109E-03 0.  1.
       22    1    1    2    0    0  0.53879954418E-02  0.20161015987E-01  0.26571768042E-01  0.33786919323E-01  0.00000000000E+00 0. -1.
       22    1    1    2    0    0 -0.10870686626E-03 -0.77415180859E-04  0.13829688012E-02  0.13893930323E-02  0.00000000000E+00 0.  1.
       22    1    1    2    0    0 -0.52792885756E-02 -0.20083600806E-01 -0.27954736843E-01  0.34823687644E-01  0.00000000000E+00 0.  1.
</event>
<event>
 5   0  0.4143600E+04  0.9118800E+02  0.7546771E-02  0.1180000E+00
      -11   -1    0    0    0    0  0.00000000000E+00  0.00000000000E+00  0.34996269501E-01  0.35000000000E-01  0.51099999109E-03 0. -1.
       11   -1    0    0    0    0 -0.00000000000E+00 -0.00000000000E+00 -0.34996269501E-01  0.35000000000E-01  0.51099999109E-03 0.  1.
       22    1    1    2    0    0 -0.91147344842E-02 -0.19824422402E-02  0.31425539942E-01  0.32780680631E-01  0.00000000000E+00 0. -1.
       22    1    1    2    0    0  0.52088859755E-03  0.88827202998E-02 -0.14940131670E-01  0.17389122439E-01  0.00000000000E+00 0.  1.
       22    1    1    2    0    0  0.85938458867E-02 -0.69002780596E-02 -0.16485408272E-01  0.19830196931E-01  0.00000000000E+00 0.  1.
</event>
<event>
 5   0  0.4143600E+04  0.9118800E+02  0.7546771E-02  0.1180000E+00
      -11   -1    0    0    0    0  0.00000000000E+00  0.00000000000E+00  0.34996269501E-01  0.35000000000E-01  0.51099999109E-03 0.  1.
       11   -1    0    0    0    0 -0.00000000000E+00 -0.00000000000E+00 -0.34996269501E-01  0.35000000000E-01  0.51099999109E-03 0. -1.
       22    1    1    2    0    0  0.15197720600E-01  0.49431957031E-02 -0.30473688225E-01  0.34410050410E-01  0.00000000000E+00 0. -1.
       22    1    1    2    0    0  0.21858707058E-03 -0.16148825588E-02  0.78129276309E-02  0.79810691108E-02  0.00000000000E+00 0. -1.
       22    1    1    2    0    0 -0.15416307671E-01 -0.33283131443E-02  0.22660760594E-01  0.27608880479E-01  0.00000000000E+00 0.  1.
</event>
<event>
 5   0  0.4143600E+04  0.9118800E+02  0.7546771E-02  0.1180000E+00
      -11   -1    0    0    0    0  0.00000000000E+00  0.00000000000E+00  0.34996269501E-01  0.35000000000E-01  0.51099999109E-03 0.  1.
       11   -1    0    0    0    0 -0.00000000000E+00 -0.00000000000E+00 -0.34996269501E-01  0.35000000000E-01  0.51099999109E-03 0. -1.
       22    1    1    2    0    0  0.24458898575E-03  0.51427536251E-04 -0.56001863706E-03  0.61326131241E-03  0.00000000000E+00 0. -1.
       22    1    1    2    0    0  0.22545254247E-02 -0.20559501627E-02  0.34831980353E-01  0.34965363880E-01  0.00000000000E+00 0.  1.
       22    1    1    2    0    0 -0.24991144105E-02  0.20045226265E-02 -0.34271961716E-01  0.34421374808E-01  0.00000000000E+00 0. -1.
</event>
<event>
 5   0  0.4143600E+04  0.9118800E+02  0.7546771E-02  0.1180000E+00
      -11   -1    0    0    0    0  0.00000000000E+00  0.00000000000E+00  0.34996269501E-01  0.35000000000E-01  0.51099999109E-03 0. -1.
       11   -1    0    0    0    0 -0.00000000000E+00 -0.00000000000E+00 -0.34996269501E-01  0.35000000000E-01  0.51099999109E-03 0.  1.
       22    1    1    2    0    0  0.14801040561E-03  0.10649319774E-03  0.43071228612E-02  0.43109807727E-02  0.00000000000E+00 0. -1.
       22    1    1    2    0    0 -0.14574469870E-01 -0.13556668611E-01  0.24004944020E-01  0.31183902470E-01  0.00000000000E+00 0. -1.
       22    1    1    2    0    0  0.14426459464E-01  0.13450175414E-01 -0.28312066881E-01  0.34505116757E-01  0.00000000000E+00 0.  1.
</event>
<event>
 5   0  0.4143600E+04  0.9118800E+02  0.7546771E-02  0.1180000E+00
      -11   -1    0    0    0    0  0.00000000000E+00  0.00000000000E+00  0.34996269501E-01  0.35000000000E-01  0.51099999109E-03 0.  1.
       11   -1    0    0    0    0 -0.00000000000E+00 -0.00000000000E+00 -0.34996269501E-01  0.35000000000E-01  0.51099999109E-03 0. -1.
       22    1    1    2    0    0 -0.13713054702E-01  0.41709882615E-02  0.30219220550E-01  0.33446170229E-01  0.00000000000E+00 0.  1.
       22    1    1    2    0    0  0.10759537748E-03  0.22278017937E-03  0.16268633201E-02  0.16455673903E-02  0.00000000000E+00 0.  1.
       22    1    1    2    0    0  0.13605459325E-01 -0.43937684409E-02 -0.31846083870E-01  0.34908262380E-01  0.00000000000E+00 0. -1.
</event>
<event>
 5   0  0.4143600E+04  0.9118800E+02  0.7546771E-02  0.1180000E+00
      -11   -1    0    0    0    0  0.00000000000E+00  0.00000000000E+00  0.34996269501E-01  0.35000000000E-01  0.51099999109E-03 0.  1.
       11   -1    0    0    0    0 -0.00000000000E+00 -0.00000000000E+00 -0.34996269501E-01  0.35000000000E-01  0.51099999109E-03 0. -1.
       22    1    1    2    0    0 -0.11643958476E-01 -0.31366876621E-02 -0.30981888237E-01  0.33246021976E-01  0.00000000000E+00 0. -1.
       22    1    1    2    0    0 -0.23408534483E-02  0.20143750710E-02  0.15731632174E-01  0.16031891737E-01  0.00000000000E+00 0.  1.
       22    1    1    2    0    0  0.13984811924E-01  0.11223125911E-02  0.15250256063E-01  0.20722086287E-01  0.00000000000E+00 0.  1.
</event>
<event>
 5   0  0.4143600E+04  0.9118800E+02  0.7546771E-02  0.1180000E+00
      -11   -1    0    0    0    0  0.00000000000E+00  0.00000000000E+00  0.34996269501E-01  0.35000000000E-01  0.51099999109E-03 0. -1.
       11   -1    0    0    0    0 -0.00000000000E+00 -0.00000000000E+00 -0.34996269501E-01  0.35000000000E-01  0.51099999109E-03 0.  1.
       22    1    1    2    0    0  0.98173610813E-02  0.16088920099E-01  0.28256368373E-01  0.33965516074E-01  0.00000000000E+00 0. -1.
       22    1    1    2    0    0 -0.75733970124E-02 -0.16170334394E-01 -0.28646053681E-01  0.33755480269E-01  0.00000000000E+00 0.  1.
       22    1    1    2    0    0 -0.22439640689E-02  0.81414295512E-04  0.38968530795E-03  0.22790036571E-02  0.00000000000E+00 0. -1.
</event>
<event>
 5   0  0.4143600E+04  0.9118800E+02  0.7546771E-02  0.1180000E+00
      -11   -1    0    0    0    0  0.00000000000E+00  0.00000000000E+00  0.34996269501E-01  0.35000000000E-01  0.51099999109E-03 0. -1.
       11   -1    0    0    0    0 -0.00000000000E+00 -0.00000000000E+00 -0.34996269501E-01  0.35000000000E-01  0.51099999109E-03 0.  1.
       22    1    1    2    0    0 -0.11872421908E-01 -0.71035703443E-02  0.32117920447E-01  0.34971072724E-01  0.00000000000E+00 0. -1.
       22    1    1    2    0    0  0.59777620966E-04  0.31940720638E-03 -0.11978776908E-02  0.12411709349E-02  0.00000000000E+00 0. -1.
       22    1    1    2    0    0  0.11812644287E-01  0.67841631380E-02 -0.30920042756E-01  0.33787756341E-01  0.00000000000E+00 0.  1.
</event>
<event>
 5   0  0.4143600E+04  0.9118800E+02  0.7546771E-02  0.1180000E+00
      -11   -1    0    0    0    0  0.00000000000E+00  0.00000000000E+00  0.34996269501E-01  0.35000000000E-01  0.51099999109E-03 0. -1.
       11   -1    0    0    0    0 -0.00000000000E+00 -0.00000000000E+00 -0.34996269501E-01  0.35000000000E-01  0.51099999109E-03 0.  1.
       22    1    1    2    0    0  0.18237163293E-02 -0.89784996890E-03  0.34913823382E-01  0.34972948674E-01  0.00000000000E+00 0. -1.
       22    1    1    2    0    0 -0.16883431557E-02  0.10630284506E-02 -0.34531779377E-01  0.34589367138E-01  0.00000000000E+00 0.  1.
       22    1    1    2    0    0 -0.13537317350E-03 -0.16517848171E-03 -0.38204400453E-03  0.43768418788E-03  0.00000000000E+00 0. -1.
</event>
<event>
 5   0  0.4143600E+04  0.9118800E+02  0.7546771E-02  0.1180000E+00
      -11   -1    0    0    0    0  0.00000000000E+00  0.00000000000E+00  0.34996269501E-01  0.35000000000E-01  0.51099999109E-03 0.  1.
       11   -1    0    0    0    0 -0.00000000000E+00 -0.00000000000E+00 -0.34996269501E-01  0.35000000000E-01  0.51099999109E-03 0. -1.
       22    1    1    2    0    0 -0.97998390915E-04 -0.12411449966E-03 -0.39633722148E-03  0.42672155650E-03  0.00000000000E+00 0. -1.
       22    1    1    2    0    0  0.36685475674E-02 -0.19255298005E-02 -0.34342404943E-01  0.34591425000E-01  0.00000000000E+00 0. -1.
       22    1    1    2    0    0 -0.35705491765E-02  0.20496443002E-02  0.34738742164E-01  0.34981853444E-01  0.00000000000E+00 0.  1.
</event>
<event>
 5   0  0.4143600E+04  0.9118800E+02  0.7546771E-02  0.1180000E+00
      -11   -1    0    0    0    0  0.00000000000E+00  0.00000000000E+00  0.34996269501E-01  0.35000000000E-01  0.51099999109E-03 0. -1.
       11   -1    0    0    0    0 -0.00000000000E+00 -0.00000000000E+00 -0.34996269501E-01  0.35000000000E-01  0.51099999109E-03 0.  1.
       22    1    1    2    0    0 -0.00000000000E+00 -0.00000000000E+00  0.34962629934E-01  0.34959730244E-01  0.00000000000E+00 0. -1.
       22    1    1    2    0    0 -0.22660054384E-03 -0.30358326377E-04 -0.30147302789E-03  0.37835885214E-03  0.00000000000E+00 0. -1.
       22    1    1    2    0    0  0.22660054384E-03  0.30358326377E-04 -0.34661156906E-01  0.34661910904E-01  0.00000000000E+00 0.  1.
</event>
<event>
 5   0  0.4143600E+04  0.9118800E+02  0.7546771E-02  0.1180000E+00
      -11   -1    0    0    0    0  0.00000000000E+00  0.00000000000E+00  0.34996269501E-01  0.35000000000E-01  0.51099999109E-03 0. -1.
       11   -1    0    0    0    0 -0.00000000000E+00 -0.00000000000E+00 -0.34996269501E-01  0.35000000000E-01  0.51099999109E-03 0.  1.
       22    1    1    2    0    0 -0.33681129599E-02  0.70908195397E-02  0.33823786006E-01  0.34722793759E-01  0.00000000000E+00 0. -1.
       22    1    1    2    0    0 -0.66561910699E-03  0.53303386943E-03 -0.88954425372E-03  0.12322592588E-02  0.00000000000E+00 0. -1.
       22    1    1    2    0    0  0.40337320668E-02 -0.76238534091E-02 -0.32934241752E-01  0.34044946982E-01  0.00000000000E+00 0.  1.
</event>
<event>
 5   0  0.4143600E+04  0.9118800E+02  0.7546771E-02  0.1180000E+00
      -11   -1    0    0    0    0  0.00000000000E+00  0.00000000000E+00  0.34996269501E-01  0.35000000000E-01  0.51099999109E-03 0.  1.
       11   -1    0    0    0    0 -0.00000000000E+00 -0.00000000000E+00 -0.34996269501E-01  0.35000000000E-01  0.51099999109E-03 0. -1.
       22    1    1    2    0    0 -0.29438974909E-02  0.31603104668E-02 -0.28416368345E-01  0.28742722289E-01  0.00000000000E+00 0. -1.
       22    1    1    2    0    0 -0.82269019493E-03  0.47399956931E-02 -0.48663995005E-02  0.68429688313E-02  0.00000000000E+00 0. -1.
       22    1    1    2    0    0  0.37665876858E-02 -0.79003061600E-02  0.33282767845E-01  0.34414308880E-01  0.00000000000E+00 0.  1.
</event>
<event>
 5   0  0.4143600E+04  0.9118800E+02  0.7546771E-02  0.1180000E+00
      -11   -1    0    0    0    0  0.00000000000E+00  0.00000000000E+00  0.34996269501E-01  0.35000000000E-01  0.51099999109E-03 0. -1.
       11   -1    0    0    0    0 -0.00000000000E+00 -0.00000000000E+00 -0.34996269501E-01  0.35000000000E-01  0.51099999109E-03 0. -1.
       22    1    1    2    0    0  0.17681693471E-03 -0.18951934170E-03 -0.34512130044E-01  0.34513103338E-01  0.00000000000E+00 0. -1.
       22    1    1    2    0    0  0.00000000000E+00  0.00000000000E+00  0.34965566902E-01  0.34964606711E-01  0.00000000000E+00 0. -1.
       22    1    1    2    0    0 -0.17681693471E-03  0.18951934170E-03 -0.45343685750E-03  0.52228995110E-03  0.00000000000E+00 0.  1.
</event>
<event>
 5   0  0.4143600E+04  0.9118800E+02  0.7546771E-02  0.1180000E+00
      -11   -1    0    0    0    0  0.00000000000E+00  0.00000000000E+00  0.34996269501E-01  0.35000000000E-01  0.51099999109E-03 0. -1.
       11   -1    0    0    0    0 -0.00000000000E+00 -0.00000000000E+00 -0.34996269501E-01  0.35000000000E-01  0.51099999109E-03 0.  1.
       22    1    1    2    0    0  0.29939443007E-04  0.37959994995E-04 -0.35553038971E-03  0.35880243794E-03  0.00000000000E+00 0.  1.
       22    1    1    2    0    0 -0.62795605241E-02 -0.16555256256E-01  0.30174024252E-01  0.34985441681E-01  0.00000000000E+00 0. -1.
       22    1    1    2    0    0  0.62496210810E-02  0.16517296261E-01 -0.29818493863E-01  0.34655755881E-01  0.00000000000E+00 0.  1.
</event>
<event>
 5   0  0.4143600E+04  0.9118800E+02  0.7546771E-02  0.1180000E+00
      -11   -1    0    0    0    0  0.00000000000E+00  0.00000000000E+00  0.34996269501E-01  0.35000000000E-01  0.51099999109E-03 0. -1.
       11   -1    0    0    0    0 -0.00000000000E+00 -0.00000000000E+00 -0.34996269501E-01  0.35000000000E-01  0.51099999109E-03 0.  1.
       22    1    1    2    0    0  0.14254911481E-01 -0.22224938223E-02  0.30859480613E-01  0.34065371330E-01  0.00000000000E+00 0. -1.
       22    1    1    2    0    0 -0.26830923794E-03  0.48422723710E-04  0.10190780311E-02  0.10549192580E-02  0.00000000000E+00 0.  1.
       22    1    1    2    0    0 -0.13986602243E-01  0.21740710986E-02 -0.31878558644E-01  0.34879709412E-01  0.00000000000E+00 0.  1.
</event>
<event>
 5   0  0.4143600E+04  0.9118800E+02  0.7546771E-02  0.1180000E+00
      -11   -1    0    0    0    0  0.00000000000E+00  0.00000000000E+00  0.34996269501E-01  0.35000000000E-01  0.51099999109E-03 0. -1.
       11   -1    0    0    0    0 -0.00000000000E+00 -0.00000000000E+00 -0.34996269501E-01  0.35000000000E-01  0.51099999109E-03 0.  1.
       22    1    1    2    0    0 -0.18892935270E-01 -0.14809859189E-01  0.23888801644E-01  0.33866646960E-01  0.00000000000E+00 0. -1.
       22    1    1    2    0    0 -0.18349288160E-02  0.20525679053E-02 -0.28332466941E-02  0.39506057251E-02  0.00000000000E+00 0. -1.
       22    1    1    2    0    0  0.20727864086E-01  0.12757291284E-01 -0.21055554950E-01  0.32182747315E-01  0.00000000000E+00 0.  1.
</event>
<event>
 5   0  0.4143600E+04  0.9118800E+02  0.7546771E-02  0.1180000E+00
      -11   -1    0    0    0    0  0.00000000000E+00  0.00000000000E+00  0.34996269501E-01  0.35000000000E-01  0.51099999109E-03 0. -1.
       11   -1    0    0    0    0 -0.00000000000E+00 -0.00000000000E+00 -0.34996269501E-01  0.35000000000E-01  0.51099999109E-03 0. -1.
       22    1    1    2    0    0 -0.43006162869E-02  0.25765558787E-02 -0.24107227260E-01  0.24623004423E-01  0.00000000000E+00 0.  1.
       22    1    1    2    0    0  0.00000000000E+00  0.00000000000E+00  0.34151643505E-01  0.34150943807E-01  0.00000000000E+00 0. -1.
       22    1    1    2    0    0  0.43006162869E-02 -0.25765558787E-02 -0.10044416244E-01  0.11226051770E-01  0.00000000000E+00 0. -1.
</event>
<event>
 5   0  0.4143600E+04  0.9118800E+02  0.7546771E-02  0.1180000E+00
      -11   -1    0    0    0    0  0.00000000000E+00  0.00000000000E+00  0.34996269501E-01  0.35000000000E-01  0.51099999109E-03 0.  1.
       11   -1    0    0    0    0 -0.00000000000E+00 -0.00000000000E+00 -0.34996269501E-01  0.35000000000E-01  0.51099999109E-03 0. -1.
       22    1    1    2    0    0 -0.14667768066E-02  0.20086846455E-02 -0.60131278214E-02  0.65072232482E-02  0.00000000000E+00 0. -1.
       22    1    1    2    0    0  0.21439792813E-01  0.12225564959E-01 -0.16913236581E-01  0.29919671222E-01  0.00000000000E+00 0. -1.
       22    1    1    2    0    0 -0.19973016006E-01 -0.14234249604E-01  0.22926364402E-01  0.33573105529E-01  0.00000000000E+00 0.  1.
</event>
<event>
 5   0  0.4143600E+04  0.9118800E+02  0.7546771E-02  0.1180000E+00
      -11   -1    0    0    0    0  0.00000000000E+00  0.00000000000E+00  0.34996269501E-01  0.35000000000E-01  0.51099999109E-03 0. -1.
       11   -1    0    0    0    0 -0.00000000000E+00 -0.00000000000E+00 -0.34996269501E-01  0.35000000000E-01  0.51099999109E-03 0.  1.
       22    1    1    2    0    0 -0.71972525907E-02  0.57986872133E-02  0.14584637349E-01  0.17266640230E-01  0.00000000000E+00 0. -1.
       22    1    1    2    0    0 -0.60465726863E-02  0.49613094023E-02  0.15944181475E-01  0.17759294894E-01  0.00000000000E+00 0.  1.
       22    1    1    2    0    0  0.13243825277E-01 -0.10759996616E-01 -0.30528818824E-01  0.34974064875E-01  0.00000000000E+00 0.  1.
</event>
<event>
 5   0  0.4143600E+04  0.9118800E+02  0.7546771E-02  0.1180000E+00
      -11   -1    0    0    0    0  0.00000000000E+00  0.00000000000E+00  0.34996269501E-01  0.35000000000E-01  0.51099999109E-03 0.  1.
       11   -1    0    0    0    0 -0.00000000000E+00 -0.00000000000E+00 -0.34996269501E-01  0.35000000000E-01  0.51099999109E-03 0. -1.
       22    1    1    2    0    0 -0.25585136148E-02 -0.24196197542E-02 -0.34164345515E-01  0.34345349847E-01  0.00000000000E+00 0. -1.
       22    1    1    2    0    0  0.37361771472E-03  0.36226111626E-03 -0.58097031627E-03  0.77996783363E-03  0.00000000000E+00 0.  1.
       22    1    1    2    0    0  0.21848959000E-02  0.20573586379E-02  0.34745315831E-01  0.34874682319E-01  0.00000000000E+00 0.  1.
</event>
<event>
 5   0  0.4143600E+04  0.9118800E+02  0.7546771E-02  0.1180000E+00
      -11   -1    0    0    0    0  0.00000000000E+00  0.00000000000E+00  0.34996269501E-01  0.35000000000E-01  0.51099999109E-03 0.  1.
       11   -1    0    0    0    0 -0.00000000000E+00 -0.00000000000E+00 -0.34996269501E-01  0.35000000000E-01  0.51099999109E-03 0. -1.
       22    1    1    2    0    0 -0.12189346234E-01  0.40519497689E-02 -0.29662527094E-01  0.32324355711E-01  0.00000000000E+00 0. -1.
       22    1    1    2    0    0  0.13486215581E-01 -0.38462264173E-02  0.83476869251E-02  0.16320396605E-01  0.00000000000E+00 0.  1.
       22    1    1    2    0    0 -0.12968693475E-02 -0.20572335155E-03  0.21314840169E-01  0.21355247684E-01  0.00000000000E+00 0. -1.
</event>
<event>
 5   0  0.4143600E+04  0.9118800E+02  0.7546771E-02  0.1180000E+00
      -11   -1    0    0    0    0  0.00000000000E+00  0.00000000000E+00  0.34996269501E-01  0.35000000000E-01  0.51099999109E-03 0.  1.
       11   -1    0    0    0    0 -0.00000000000E+00 -0.00000000000E+00 -0.34996269501E-01  0.35000000000E-01  0.51099999109E-03 0. -1.
       22    1    1    2    0    0  0.86925119250E-04 -0.71072357397E-03  0.37167586224E-02  0.37850995538E-02  0.00000000000E+00 0. -1.
       22    1    1    2    0    0  0.34225730105E-02 -0.12333947118E-01 -0.32221751811E-01  0.34671047681E-01  0.00000000000E+00 0. -1.
       22    1    1    2    0    0 -0.35094981298E-02  0.13044670692E-01  0.28504993188E-01  0.31543852765E-01  0.00000000000E+00 0.  1.
</event>
<event>
 5   0  0.4143600E+04  0.9118800E+02  0.7546771E-02  0.1180000E+00
      -11   -1    0    0    0    0  0.00000000000E+00  0.00000000000E+00  0.34996269501E-01  0.35000000000E-01  0.51099999109E-03 0.  1.
       11   -1    0    0    0    0 -0.00000000000E+00 -0.00000000000E+00 -0.34996269501E-01  0.35000000000E-01  0.51099999109E-03 0. -1.
       22    1    1    2    0    0 -0.20346129521E-01 -0.11534651669E-01 -0.23629490951E-01  0.33247045255E-01  0.00000000000E+00 0. -1.
       22    1    1    2    0    0 -0.10326357062E-02 -0.98127599690E-03  0.64515555136E-02  0.66069514626E-02  0.00000000000E+00 0.  1.
       22    1    1    2    0    0  0.21378765228E-01  0.12515927666E-01  0.17177935437E-01  0.30146003282E-01  0.00000000000E+00 0.  1.
</event>
<event>
 5   0  0.4143600E+04  0.9118800E+02  0.7546771E-02  0.1180000E+00
      -11   -1    0    0    0    0  0.00000000000E+00  0.00000000000E+00  0.34996269501E-01  0.35000000000E-01  0.51099999109E-03 0.  1.
       11   -1    0    0    0    0 -0.00000000000E+00 -0.00000000000E+00 -0.34996269501E-01  0.35000000000E-01  0.51099999109E-03 0. -1.
       22    1    1    2    0    0 -0.82120315963E-03  0.89214099651E-04 -0.92271318228E-02  0.92640323543E-02  0.00000000000E+00 0. -1.
       22    1    1    2    0    0  0.39737884547E-02 -0.86900808376E-02 -0.24230690586E-01  0.26046782256E-01  0.00000000000E+00 0. -1.
       22    1    1    2    0    0 -0.31525852950E-02  0.86008667380E-02  0.33457822408E-01  0.34689185390E-01  0.00000000000E+00 0.  1.
</event>
<event>
 5   0  0.4143600E+04  0.9118800E+02  0.7546771E-02  0.1180000E+00
      -11   -1    0    0    0    0  0.00000000000E+00  0.00000000000E+00  0.34996269501E-01  0.35000000000E-01  0.51099999109E-03 0.  1.
       11   -1    0    0    0    0 -0.00000000000E+00 -0.00000000000E+00 -0.34996269501E-01  0.35000000000E-01  0.51099999109E-03 0. -1.
       22    1    1    2    0    0  0.11514759152E-01 -0.17783898904E-01  0.27494826847E-01  0.34710549433E-01  0.00000000000E+00 0.  1.
       22    1    1    2    0    0 -0.11498191450E-01  0.17778948465E-01 -0.27821727538E-01  0.34962092877E-01  0.00000000000E+00 0. -1.
       22    1    1    2    0    0 -0.16567702219E-04  0.49504394705E-05  0.32690069112E-03  0.32735769040E-03  0.00000000000E+00 0. -1.
</event>
<event>
 5   0  0.4143600E+04  0.9118800E+02  0.7546771E-02  0.1180000E+00
      -11   -1    0    0    0    0  0.00000000000E+00  0.00000000000E+00  0.34996269501E-01  0.35000000000E-01  0.51099999109E-03 0.  1.
       11   -1    0    0    0    0 -0.00000000000E+00 -0.00000000000E+00 -0.34996269501E-01  0.35000000000E-01  0.51099999109E-03 0. -1.
       22    1    1    2    0    0  0.42037401729E-04  0.16247225901E-03 -0.35004159110E-03  0.38819259858E-03  0.00000000000E+00 0. -1.
       22    1    1    2    0    0  0.11808327320E-01  0.12005371700E-01  0.30595533223E-01  0.34923519252E-01  0.00000000000E+00 0. -1.
       22    1    1    2    0    0 -0.11850364722E-01 -0.12167843959E-01 -0.30245491632E-01  0.34688288149E-01  0.00000000000E+00 0.  1.
</event>
<event>
 5   0  0.4143600E+04  0.9118800E+02  0.7546771E-02  0.1180000E+00
      -11   -1    0    0    0    0  0.00000000000E+00  0.00000000000E+00  0.34996269501E-01  0.35000000000E-01  0.51099999109E-03 0. -1.
       11   -1    0    0    0    0 -0.00000000000E+00 -0.00000000000E+00 -0.34996269501E-01  0.35000000000E-01  0.51099999109E-03 0.  1.
       22    1    1    2    0    0  0.15917386578E-01  0.16452397573E-01  0.26222368021E-01  0.34808866198E-01  0.00000000000E+00 0. -1.
       22    1    1    2    0    0 -0.16107438465E-01 -0.16479739586E-01 -0.25187336993E-01  0.34138443660E-01  0.00000000000E+00 0.  1.
       22    1    1    2    0    0  0.19005188761E-03  0.27342013260E-04 -0.10350310280E-02  0.10526901417E-02  0.00000000000E+00 0. -1.
</event>
<event>
 5   0  0.4143600E+04  0.9118800E+02  0.7546771E-02  0.1180000E+00
      -11   -1    0    0    0    0  0.00000000000E+00  0.00000000000E+00  0.34996269501E-01  0.35000000000E-01  0.51099999109E-03 0.  1.
       11   -1    0    0    0    0 -0.00000000000E+00 -0.00000000000E+00 -0.34996269501E-01  0.35000000000E-01  0.51099999109E-03 0. -1.
       22    1    1    2    0    0 -0.18469514662E-03  0.49112726745E-04 -0.62456520415E-03  0.65315086415E-03  0.00000000000E+00 0.  1.
       22    1    1    2    0    0 -0.13216885628E-02  0.16734477086E-01 -0.30008640490E-01  0.34384707183E-01  0.00000000000E+00 0. -1.
       22    1    1    2    0    0  0.15063837094E-02 -0.16783589813E-01  0.30633205694E-01  0.34962141953E-01  0.00000000000E+00 0.  1.
</event>
<event>
 5   0  0.4143600E+04  0.9118800E+02  0.7546771E-02  0.1180000E+00
      -11   -1    0    0    0    0  0.00000000000E+00  0.00000000000E+00  0.34996269501E-01  0.35000000000E-01  0.51099999109E-03 0. -1.
       11   -1    0    0    0    0 -0.00000000000E+00 -0.00000000000E+00 -0.34996269501E-01  0.35000000000E-01  0.51099999109E-03 0.  1.
       22    1    1    2    0    0  0.76264100716E-02 -0.10779028589E-01 -0.25830524093E-01  0.29009749444E-01  0.00000000000E+00 0.  1.
       22    1    1    2    0    0  0.41712972668E-02  0.77742517563E-02  0.27334791528E-01  0.28723327438E-01  0.00000000000E+00 0. -1.
       22    1    1    2    0    0 -0.11797707338E-01  0.30047768329E-02 -0.15042674344E-02  0.12266923118E-01  0.00000000000E+00 0. -1.
</event>
<event>
 5   0  0.4143600E+04  0.9118800E+02  0.7546771E-02  0.1180000E+00
      -11   -1    0    0    0    0  0.00000000000E+00  0.00000000000E+00  0.34996269501E-01  0.35000000000E-01  0.51099999109E-03 0. -1.
       11   -1    0    0    0    0 -0.00000000000E+00 -0.00000000000E+00 -0.34996269501E-01  0.35000000000E-01  0.51099999109E-03 0.  1.
       22    1    1    2    0    0  0.11012169732E-01  0.51160483537E-02 -0.32602703962E-01  0.34790489197E-01  0.00000000000E+00 0.  1.
       22    1    1    2    0    0 -0.11390205807E-01 -0.53349455246E-02  0.29404411774E-01  0.31981523789E-01  0.00000000000E+00 0. -1.
       22    1    1    2    0    0  0.37803607569E-03  0.21889717089E-03  0.31982921872E-02  0.32279870137E-02  0.00000000000E+00 0.  1.
</event>
<event>
 5   0  0.4143600E+04  0.9118800E+02  0.7546771E-02  0.1180000E+00
      -11   -1    0    0    0    0  0.00000000000E+00  0.00000000000E+00  0.34996269501E-01  0.35000000000E-01  0.51099999109E-03 0. -1.
       11   -1    0    0    0    0 -0.00000000000E+00 -0.00000000000E+00 -0.34996269501E-01  0.35000000000E-01  0.51099999109E-03 0.  1.
       22    1    1    2    0    0  0.10870275025E-01 -0.18663134362E-01  0.11418827249E-01  0.24430822317E-01  0.00000000000E+00 0. -1.
       22    1    1    2    0    0 -0.52491663153E-02  0.11040820426E-01 -0.25684736564E-01  0.28445722966E-01  0.00000000000E+00 0.  1.
       22    1    1    2    0    0 -0.56211087100E-02  0.76223139356E-02  0.14265909315E-01  0.17123454717E-01  0.00000000000E+00 0. -1.
</event>
<event>
 5   0  0.4143600E+04  0.9118800E+02  0.7546771E-02  0.1180000E+00
      -11   -1    0    0    0    0  0.00000000000E+00  0.00000000000E+00  0.34996269501E-01  0.35000000000E-01  0.51099999109E-03 0.  1.
       11   -1    0    0    0    0 -0.00000000000E+00 -0.00000000000E+00 -0.34996269501E-01  0.35000000000E-01  0.51099999109E-03 0. -1.
       22    1    1    2    0    0 -0.61823676118E-03 -0.57579978492E-03 -0.12993028632E-02  0.15498225755E-02  0.00000000000E+00 0. -1.
       22    1    1    2    0    0  0.28146343058E-01  0.20183851760E-01  0.24318899426E-03  0.34636160877E-01  0.00000000000E+00 0.  1.
       22    1    1    2    0    0 -0.27528106297E-01 -0.19608051975E-01  0.10561138689E-02  0.33814016547E-01  0.00000000000E+00 0. -1.
</event>
<event>
 5   0  0.4143600E+04  0.9118800E+02  0.7546771E-02  0.1180000E+00
      -11   -1    0    0    0    0  0.00000000000E+00  0.00000000000E+00  0.34996269501E-01  0.35000000000E-01  0.51099999109E-03 0. -1.
       11   -1    0    0    0    0 -0.00000000000E+00 -0.00000000000E+00 -0.34996269501E-01  0.35000000000E-01  0.51099999109E-03 0.  1.
       22    1    1    2    0    0 -0.19898868361E-01  0.10786986797E-01 -0.25537016091E-01  0.34124232402E-01  0.00000000000E+00 0.  1.
       22    1    1    2    0    0  0.20070091393E-01 -0.11118922526E-01  0.26375036810E-01  0.34958283330E-01  0.00000000000E+00 0. -1.
       22    1    1    2    0    0 -0.17122303188E-03  0.33193572858E-03 -0.83802071947E-03  0.91748426734E-03  0.00000000000E+00 0.  1.
</event>
<event>
 5   0  0.4143600E+04  0.9118800E+02  0.7546771E-02  0.1180000E+00
      -11   -1    0    0    0    0  0.00000000000E+00  0.00000000000E+00  0.34996269501E-01  0.35000000000E-01  0.51099999109E-03 0.  1.
       11   -1    0    0    0    0 -0.00000000000E+00 -0.00000000000E+00 -0.34996269501E-01  0.35000000000E-01  0.51099999109E-03 0. -1.
       22    1    1    2    0    0 -0.42821800373E-02  0.20159548486E-02 -0.86101260075E-02  0.98252434926E-02  0.00000000000E+00 0. -1.
       22    1    1    2    0    0  0.20141579745E-01  0.49380505845E-02  0.27568673238E-01  0.34497816196E-01  0.00000000000E+00 0.  1.
       22    1    1    2    0    0 -0.15859399707E-01 -0.69540054331E-02 -0.18958547231E-01  0.25676940311E-01  0.00000000000E+00 0. -1.
</event>
<event>
 5   0  0.4143600E+04  0.9118800E+02  0.7546771E-02  0.1180000E+00
      -11   -1    0    0    0    0  0.00000000000E+00  0.00000000000E+00  0.34996269501E-01  0.35000000000E-01  0.51099999109E-03 0. -1.
       11   -1    0    0    0    0 -0.00000000000E+00 -0.00000000000E+00 -0.34996269501E-01  0.35000000000E-01  0.51099999109E-03 0.  1.
       22    1    1    2    0    0  0.20097067891E-01 -0.14564799945E-01  0.47340013752E-03  0.24824375983E-01  0.00000000000E+00 0.  1.
       22    1    1    2    0    0 -0.60074239191E-02  0.71002470576E-02  0.18310240430E-01  0.20536980183E-01  0.00000000000E+00 0. -1.
       22    1    1    2    0    0 -0.14089643972E-01  0.74645528871E-02 -0.18783640567E-01  0.24638643835E-01  0.00000000000E+00 0. -1.
</event>
<event>
 5   0  0.4143600E+04  0.9118800E+02  0.7546771E-02  0.1180000E+00
      -11   -1    0    0    0    0  0.00000000000E+00  0.00000000000E+00  0.34996269501E-01  0.35000000000E-01  0.51099999109E-03 0.  1.
       11   -1    0    0    0    0 -0.00000000000E+00 -0.00000000000E+00 -0.34996269501E-01  0.35000000000E-01  0.51099999109E-03 0. -1.
       22    1    1    2    0    0  0.14717325829E-01 -0.83525712045E-02 -0.27032552643E-01  0.31892381969E-01  0.00000000000E+00 0. -1.
       22    1    1    2    0    0 -0.69856614301E-02  0.28828388096E-02  0.27603802805E-01  0.28619576421E-01  0.00000000000E+00 0.  1.
       22    1    1    2    0    0 -0.77316643987E-02  0.54697323948E-02 -0.57125016263E-03  0.94880416100E-02  0.00000000000E+00 0.  1.
</event>
<event>
 5   0  0.4143600E+04  0.9118800E+02  0.7546771E-02  0.1180000E+00
      -11   -1    0    0    0    0  0.00000000000E+00  0.00000000000E+00  0.34996269501E-01  0.35000000000E-01  0.51099999109E-03 0. -1.
       11   -1    0    0    0    0 -0.00000000000E+00 -0.00000000000E+00 -0.34996269501E-01  0.35000000000E-01  0.51099999109E-03 0.  1.
       22    1    1    2    0    0  0.53647982708E-02 -0.13702431834E-01 -0.31286163957E-01  0.34574004017E-01  0.00000000000E+00 0.  1.
       22    1    1    2    0    0 -0.37512546148E-04  0.72612662618E-04 -0.46110516435E-03  0.46829238994E-03  0.00000000000E+00 0. -1.
       22    1    1    2    0    0 -0.53272857246E-02  0.13629819171E-01  0.31747269121E-01  0.34957703593E-01  0.00000000000E+00 0. -1.
</event>
<event>
 5   0  0.4143600E+04  0.9118800E+02  0.7546771E-02  0.1180000E+00
      -11   -1    0    0    0    0  0.00000000000E+00  0.00000000000E+00  0.34996269501E-01  0.35000000000E-01  0.51099999109E-03 0.  1.
       11   -1    0    0    0    0 -0.00000000000E+00 -0.00000000000E+00 -0.34996269501E-01  0.35000000000E-01  0.51099999109E-03 0. -1.
       22    1    1    2    0    0  0.15070523184E-01 -0.37898796365E-02  0.30787910621E-01  0.34487378809E-01  0.00000000000E+00 0.  1.
       22    1    1    2    0    0  0.45547374647E-03 -0.61160981058E-03 -0.12452023287E-04  0.76267814116E-03  0.00000000000E+00 0.  1.
       22    1    1    2    0    0 -0.15525996931E-01  0.44014894471E-02 -0.30775458598E-01  0.34749943050E-01  0.00000000000E+00 0. -1.
</event>
<event>
 5   0  0.4143600E+04  0.9118800E+02  0.7546771E-02  0.1180000E+00
      -11   -1    0    0    0    0  0.00000000000E+00  0.00000000000E+00  0.34996269501E-01  0.35000000000E-01  0.51099999109E-03 0.  1.
       11   -1    0    0    0    0 -0.00000000000E+00 -0.00000000000E+00 -0.34996269501E-01  0.35000000000E-01  0.51099999109E-03 0. -1.
       22    1    1    2    0    0  0.22449461462E-02 -0.55526269714E-02 -0.29544554229E-01  0.30145515986E-01  0.00000000000E+00 0. -1.
       22    1    1    2    0    0 -0.72843798820E-03  0.27314406505E-02  0.34137868253E-01  0.34254714110E-01  0.00000000000E+00 0.  1.
       22    1    1    2    0    0 -0.15165081580E-02  0.28211863210E-02 -0.45933140236E-02  0.55997699034E-02  0.00000000000E+00 0.  1.
</event>
<event>
 5   0  0.4143600E+04  0.9118800E+02  0.7546771E-02  0.1180000E+00
      -11   -1    0    0    0    0  0.00000000000E+00  0.00000000000E+00  0.34996269501E-01  0.35000000000E-01  0.51099999109E-03 0. -1.
       11   -1    0    0    0    0 -0.00000000000E+00 -0.00000000000E+00 -0.34996269501E-01  0.35000000000E-01  0.51099999109E-03 0.  1.
       22    1    1    2    0    0  0.17421234967E-02 -0.65710450973E-02  0.34177512354E-01  0.34847036871E-01  0.00000000000E+00 0. -1.
       22    1    1    2    0    0 -0.11324838992E-02  0.13625940676E-02 -0.26208393970E-02  0.31635393975E-02  0.00000000000E+00 0. -1.
       22    1    1    2    0    0 -0.60963959746E-03  0.52084510297E-02 -0.31556672957E-01  0.31989423732E-01  0.00000000000E+00 0.  1.
</event>
<event>
 5   0  0.4143600E+04  0.9118800E+02  0.7546771E-02  0.1180000E+00
      -11   -1    0    0    0    0  0.00000000000E+00  0.00000000000E+00  0.34996269501E-01  0.35000000000E-01  0.51099999109E-03 0.  1.
       11   -1    0    0    0    0 -0.00000000000E+00 -0.00000000000E+00 -0.34996269501E-01  0.35000000000E-01  0.51099999109E-03 0. -1.
       22    1    1    2    0    0  0.22554594430E-01 -0.59667198881E-02 -0.25646067966E-01  0.34670337152E-01  0.00000000000E+00 0. -1.
       22    1    1    2    0    0  0.11502079499E-03 -0.56543346296E-04 -0.31588183467E-03  0.34089333635E-03  0.00000000000E+00 0. -1.
       22    1    1    2    0    0 -0.22669615225E-01  0.60232632344E-02  0.25961949801E-01  0.34988769511E-01  0.00000000000E+00 0.  1.
</event>
<event>
 5   0  0.4143600E+04  0.9118800E+02  0.7546771E-02  0.1180000E+00
      -11   -1    0    0    0    0  0.00000000000E+00  0.00000000000E+00  0.34996269501E-01  0.35000000000E-01  0.51099999109E-03 0.  1.
       11   -1    0    0    0    0 -0.00000000000E+00 -0.00000000000E+00 -0.34996269501E-01  0.35000000000E-01  0.51099999109E-03 0. -1.
       22    1    1    2    0    0 -0.95975544607E-03  0.51457179852E-02  0.27146070979E-01  0.27646133793E-01  0.00000000000E+00 0.  1.
       22    1    1    2    0    0 -0.52765759001E-03  0.81608183264E-02  0.35115647320E-02  0.88999137724E-02  0.00000000000E+00 0.  1.
       22    1    1    2    0    0  0.14874130361E-02 -0.13306536312E-01 -0.30657635711E-01  0.33453952435E-01  0.00000000000E+00 0. -1.
</event>
<event>
 5   0  0.4143600E+04  0.9118800E+02  0.7546771E-02  0.1180000E+00
      -11   -1    0    0    0    0  0.00000000000E+00  0.00000000000E+00  0.34996269501E-01  0.35000000000E-01  0.51099999109E-03 0. -1.
       11   -1    0    0    0    0 -0.00000000000E+00 -0.00000000000E+00 -0.34996269501E-01  0.35000000000E-01  0.51099999109E-03 0.  1.
       22    1    1    2    0    0  0.18365829952E-03 -0.45236572236E-04 -0.79533289253E-02  0.79555777736E-02  0.00000000000E+00 0.  1.
       22    1    1    2    0    0  0.97602869084E-02  0.66732155558E-02  0.32586672834E-01  0.34665346569E-01  0.00000000000E+00 0. -1.
       22    1    1    2    0    0 -0.99439452079E-02 -0.66279789835E-02 -0.24633343909E-01  0.27379075657E-01  0.00000000000E+00 0.  1.
</event>
<event>
 5   0  0.4143600E+04  0.9118800E+02  0.7546771E-02  0.1180000E+00
      -11   -1    0    0    0    0  0.00000000000E+00  0.00000000000E+00  0.34996269501E-01  0.35000000000E-01  0.51099999109E-03 0. -1.
       11   -1    0    0    0    0 -0.00000000000E+00 -0.00000000000E+00 -0.34996269501E-01  0.35000000000E-01  0.51099999109E-03 0. -1.
       22    1    1    2    0    0 -0.79908339739E-03 -0.75023165611E-03 -0.31801313921E-01  0.31820197186E-01  0.00000000000E+00 0. -1.
       22    1    1    2    0    0  0.79908339739E-03  0.75023165611E-03 -0.30965832217E-02  0.32848454245E-02  0.00000000000E+00 0.  1.
       22    1    1    2    0    0 -0.00000000000E+00 -0.00000000000E+00  0.34897897143E-01  0.34894957390E-01  0.00000000000E+00 0. -1.
</event>
<event>
 5   0  0.4143600E+04  0.9118800E+02  0.7546771E-02  0.1180000E+00
      -11   -1    0    0    0    0  0.00000000000E+00  0.00000000000E+00  0.34996269501E-01  0.35000000000E-01  0.51099999109E-03 0. -1.
       11   -1    0    0    0    0 -0.00000000000E+00 -0.00000000000E+00 -0.34996269501E-01  0.35000000000E-01  0.51099999109E-03 0.  1.
       22    1    1    2    0    0  0.14010752700E-01 -0.27290612520E-02 -0.28008070980E-01  0.31435664564E-01  0.00000000000E+00 0.  1.
       22    1    1    2    0    0 -0.11264617861E-01  0.46691511755E-02  0.31463016496E-01  0.33743354832E-01  0.00000000000E+00 0. -1.
       22    1    1    2    0    0 -0.27461348394E-02 -0.19400899235E-02 -0.34549455162E-02  0.48209806044E-02  0.00000000000E+00 0. -1.
</event>
<event>
 5   0  0.4143600E+04  0.9118800E+02  0.7546771E-02  0.1180000E+00
      -11   -1    0    0    0    0  0.00000000000E+00  0.00000000000E+00  0.34996269501E-01  0.35000000000E-01  0.51099999109E-03 0.  1.
       11   -1    0    0    0    0 -0.00000000000E+00 -0.00000000000E+00 -0.34996269501E-01  0.35000000000E-01  0.51099999109E-03 0. -1.
       22    1    1    2    0    0  0.73996990767E-03 -0.10387571370E-02  0.20108561571E-02  0.23812001887E-02  0.00000000000E+00 0.  1.
       22    1    1    2    0    0  0.12437187016E-01  0.20214596045E-02  0.30243138968E-01  0.32763048919E-01  0.00000000000E+00 0.  1.
       22    1    1    2    0    0 -0.13177156924E-01 -0.98270246746E-03 -0.32253995125E-01  0.34855750892E-01  0.00000000000E+00 0. -1.
</event>
<event>
 5   0  0.4143600E+04  0.9118800E+02  0.7546771E-02  0.1180000E+00
      -11   -1    0    0    0    0  0.00000000000E+00  0.00000000000E+00  0.34996269501E-01  0.35000000000E-01  0.51099999109E-03 0.  1.
       11   -1    0    0    0    0 -0.00000000000E+00 -0.00000000000E+00 -0.34996269501E-01  0.35000000000E-01  0.51099999109E-03 0. -1.
       22    1    1    2    0    0  0.33577611597E-02 -0.81519833423E-03 -0.79107324464E-02  0.86324270150E-02  0.00000000000E+00 0. -1.
       22    1    1    2    0    0  0.46256612807E-02  0.35735296437E-02 -0.25882712776E-01  0.26534537438E-01  0.00000000000E+00 0. -1.
       22    1    1    2    0    0 -0.79834224404E-02 -0.27583313095E-02  0.33793445222E-01  0.34833035547E-01  0.00000000000E+00 0.  1.
</event>
<event>
 5   0  0.4143600E+04  0.9118800E+02  0.7546771E-02  0.1180000E+00
      -11   -1    0    0    0    0  0.00000000000E+00  0.00000000000E+00  0.34996269501E-01  0.35000000000E-01  0.51099999109E-03 0.  1.
       11   -1    0    0    0    0 -0.00000000000E+00 -0.00000000000E+00 -0.34996269501E-01  0.35000000000E-01  0.51099999109E-03 0. -1.
       22    1    1    2    0    0 -0.17006262584E-01  0.43124922044E-03  0.29910096709E-01  0.34409487473E-01  0.00000000000E+00 0.  1.
       22    1    1    2    0    0 -0.92196655145E-03  0.50438779422E-04 -0.29712058874E-03  0.96997269895E-03  0.00000000000E+00 0.  1.
       22    1    1    2    0    0  0.17928229136E-01 -0.48168799986E-03 -0.29612976121E-01  0.34620539828E-01  0.00000000000E+00 0. -1.
</event>
<event>
 5   0  0.4143600E+04  0.9118800E+02  0.7546771E-02  0.1180000E+00
      -11   -1    0    0    0    0  0.00000000000E+00  0.00000000000E+00  0.34996269501E-01  0.35000000000E-01  0.51099999109E-03 0.  1.
       11   -1    0    0    0    0 -0.00000000000E+00 -0.00000000000E+00 -0.34996269501E-01  0.35000000000E-01  0.51099999109E-03 0. -1.
       22    1    1    2    0    0 -0.23181174646E-02 -0.13165716777E-02 -0.34600974891E-01  0.34703522774E-01  0.00000000000E+00 0. -1.
       22    1    1    2    0    0  0.77582966116E-04  0.76259707107E-04 -0.29098853245E-03  0.31065895380E-03  0.00000000000E+00 0.  1.
       22    1    1    2    0    0  0.22405344984E-02  0.12403119706E-02  0.34891963423E-01  0.34985818272E-01  0.00000000000E+00 0.  1.
</event>
<event>
 5   0  0.4143600E+04  0.9118800E+02  0.7546771E-02  0.1180000E+00
      -11   -1    0    0    0    0  0.00000000000E+00  0.00000000000E+00  0.34996269501E-01  0.35000000000E-01  0.51099999109E-03 0.  1.
       11   -1    0    0    0    0 -0.00000000000E+00 -0.00000000000E+00 -0.34996269501E-01  0.35000000000E-01  0.51099999109E-03 0. -1.
       22    1    1    2    0    0 -0.12549064975E-02 -0.18066012492E-02  0.25886622627E-01  0.25979912037E-01  0.00000000000E+00 0.  1.
       22    1    1    2    0    0 -0.16600282434E-01  0.27793622909E-02 -0.17462276866E-01  0.24253357396E-01  0.00000000000E+00 0. -1.
       22    1    1    2    0    0  0.17855188932E-01 -0.97276104168E-03 -0.84243457614E-02  0.19766730568E-01  0.00000000000E+00 0.  1.
</event>
<event>
 5   0  0.4143600E+04  0.9118800E+02  0.7546771E-02  0.1180000E+00
      -11   -1    0    0    0    0  0.00000000000E+00  0.00000000000E+00  0.34996269501E-01  0.35000000000E-01  0.51099999109E-03 0.  1.
       11   -1    0    0    0    0 -0.00000000000E+00 -0.00000000000E+00 -0.34996269501E-01  0.35000000000E-01  0.51099999109E-03 0.  1.
       22    1    1    2    0    0 -0.46722421881E-03 -0.43814559047E-03 -0.17762535348E-02  0.18882125540E-02  0.00000000000E+00 0. -1.
       22    1    1    2    0    0 -0.00000000000E+00 -0.00000000000E+00  0.34942693544E-01  0.34939162996E-01  0.00000000000E+00 0.  1.
       22    1    1    2    0    0  0.46722421881E-03  0.43814559047E-03 -0.33166440009E-01  0.33172624450E-01  0.00000000000E+00 0.  1.
</event>
<event>
 5   0  0.4143600E+04  0.9118800E+02  0.7546771E-02  0.1180000E+00
      -11   -1    0    0    0    0  0.00000000000E+00  0.00000000000E+00  0.34996269501E-01  0.35000000000E-01  0.51099999109E-03 0. -1.
       11   -1    0    0    0    0 -0.00000000000E+00 -0.00000000000E+00 -0.34996269501E-01  0.35000000000E-01  0.51099999109E-03 0.  1.
       22    1    1    2    0    0  0.33137838028E-03  0.56186792947E-03 -0.85490050053E-03  0.10753427672E-02  0.00000000000E+00 0.  1.
       22    1    1    2    0    0  0.18287171936E-01  0.61864384714E-03 -0.28663001988E-01  0.34005456336E-01  0.00000000000E+00 0.  1.
       22    1    1    2    0    0 -0.18618550317E-01 -0.11805117766E-02  0.29517902489E-01  0.34919200897E-01  0.00000000000E+00 0. -1.
</event>
<event>
 5   0  0.4143600E+04  0.9118800E+02  0.7546771E-02  0.1180000E+00
      -11   -1    0    0    0    0  0.00000000000E+00  0.00000000000E+00  0.34996269501E-01  0.35000000000E-01  0.51099999109E-03 0. -1.
       11   -1    0    0    0    0 -0.00000000000E+00 -0.00000000000E+00 -0.34996269501E-01  0.35000000000E-01  0.51099999109E-03 0.  1.
       22    1    1    2    0    0 -0.79637311545E-02 -0.22719087000E-01  0.20213045575E-01  0.31434775957E-01  0.00000000000E+00 0. -1.
       22    1    1    2    0    0  0.78727516380E-02  0.22747187818E-01 -0.24459693723E-01  0.34317508491E-01  0.00000000000E+00 0.  1.
       22    1    1    2    0    0  0.90979516493E-04 -0.28100818291E-04  0.42466481476E-02  0.42477155528E-02  0.00000000000E+00 0. -1.
</event>
<event>
 5   0  0.4143600E+04  0.9118800E+02  0.7546771E-02  0.1180000E+00
      -11   -1    0    0    0    0  0.00000000000E+00  0.00000000000E+00  0.34996269501E-01  0.35000000000E-01  0.51099999109E-03 0. -1.
       11   -1    0    0    0    0 -0.00000000000E+00 -0.00000000000E+00 -0.34996269501E-01  0.35000000000E-01  0.51099999109E-03 0. -1.
       22    1    1    2    0    0  0.24179574417E-04 -0.90829118945E-04  0.34975062060E-01  0.34975188358E-01  0.00000000000E+00 0. -1.
       22    1    1    2    0    0 -0.27453079463E-03 -0.68027669331E-04 -0.80108143521E-03  0.84954481156E-03  0.00000000000E+00 0.  1.
       22    1    1    2    0    0  0.25035122021E-03  0.15885678828E-03 -0.34173980625E-01  0.34175266831E-01  0.00000000000E+00 0. -1.
</event>
<event>
 5   0  0.4143600E+04  0.9118800E+02  0.7546771E-02  0.1180000E+00
      -11   -1    0    0    0    0  0.00000000000E+00  0.00000000000E+00  0.34996269501E-01  0.35000000000E-01  0.51099999109E-03 0.  1.
       11   -1    0    0    0    0 -0.00000000000E+00 -0.00000000000E+00 -0.34996269501E-01  0.35000000000E-01  0.51099999109E-03 0. -1.
       22    1    1    2    0    0 -0.41377168876E-02  0.14494999171E-02 -0.61480311991E-02  0.75511614124E-02  0.00000000000E+00 0.  1.
       22    1    1    2    0    0 -0.17284488128E-02 -0.81515925192E-03  0.33962096699E-01  0.34015820321E-01  0.00000000000E+00 0.  1.
       22    1    1    2    0    0  0.58661657003E-02 -0.63434066514E-03 -0.27814065500E-01  0.28433018267E-01  0.00000000000E+00 0. -1.
</event>
<event>
 5   0  0.4143600E+04  0.9118800E+02  0.7546771E-02  0.1180000E+00
      -11   -1    0    0    0    0  0.00000000000E+00  0.00000000000E+00  0.34996269501E-01  0.35000000000E-01  0.51099999109E-03 0. -1.
       11   -1    0    0    0    0 -0.00000000000E+00 -0.00000000000E+00 -0.34996269501E-01  0.35000000000E-01  0.51099999109E-03 0.  1.
       22    1    1    2    0    0  0.90198326978E-04 -0.32844486011E-03 -0.20271199476E-01  0.20274060766E-01  0.00000000000E+00 0.  1.
       22    1    1    2    0    0 -0.56053019326E-02 -0.25330111296E-03 -0.13961561729E-01  0.15046885961E-01  0.00000000000E+00 0.  1.
       22    1    1    2    0    0  0.55151036056E-02  0.58174597308E-03  0.34232761205E-01  0.34679053273E-01  0.00000000000E+00 0. -1.
</event>
<event>
 5   0  0.4143600E+04  0.9118800E+02  0.7546771E-02  0.1180000E+00
      -11   -1    0    0    0    0  0.00000000000E+00  0.00000000000E+00  0.34996269501E-01  0.35000000000E-01  0.51099999109E-03 0. -1.
       11   -1    0    0    0    0 -0.00000000000E+00 -0.00000000000E+00 -0.34996269501E-01  0.35000000000E-01  0.51099999109E-03 0.  1.
       22    1    1    2    0    0  0.81424051187E-02  0.14788150623E-01  0.30301150170E-01  0.34686421862E-01  0.00000000000E+00 0. -1.
       22    1    1    2    0    0 -0.18208611436E-02  0.23520290304E-03 -0.30264560366E-02  0.35398152284E-02  0.00000000000E+00 0. -1.
       22    1    1    2    0    0 -0.63215439751E-02 -0.15023353526E-01 -0.27274694133E-01  0.31773762910E-01  0.00000000000E+00 0.  1.
</event>
<event>
 5   0  0.4143600E+04  0.9118800E+02  0.7546771E-02  0.1180000E+00
      -11   -1    0    0    0    0  0.00000000000E+00  0.00000000000E+00  0.34996269501E-01  0.35000000000E-01  0.51099999109E-03 0. -1.
       11   -1    0    0    0    0 -0.00000000000E+00 -0.00000000000E+00 -0.34996269501E-01  0.35000000000E-01  0.51099999109E-03 0.  1.
       22    1    1    2    0    0  0.15213419495E-01 -0.70755198256E-03 -0.28099428571E-01  0.31961330519E-01  0.00000000000E+00 0.  1.
       22    1    1    2    0    0 -0.15386710909E-01  0.81734657217E-03  0.31270682251E-01  0.34860787376E-01  0.00000000000E+00 0. -1.
       22    1    1    2    0    0  0.17329141452E-03 -0.10979458961E-03 -0.31712536800E-02  0.31778821043E-02  0.00000000000E+00 0.  1.
</event>
<event>
 5   0  0.4143600E+04  0.9118800E+02  0.7546771E-02  0.1180000E+00
      -11   -1    0    0    0    0  0.00000000000E+00  0.00000000000E+00  0.34996269501E-01  0.35000000000E-01  0.51099999109E-03 0. -1.
       11   -1    0    0    0    0 -0.00000000000E+00 -0.00000000000E+00 -0.34996269501E-01  0.35000000000E-01  0.51099999109E-03 0.  1.
       22    1    1    2    0    0 -0.66406793151E-02  0.30981726257E-02 -0.18625795528E-01  0.20015432906E-01  0.00000000000E+00 0.  1.
       22    1    1    2    0    0  0.79648507542E-02 -0.13218603496E-01 -0.10801625450E-01  0.18837341593E-01  0.00000000000E+00 0. -1.
       22    1    1    2    0    0 -0.13241714391E-02  0.10120430870E-01  0.29427420978E-01  0.31147225501E-01  0.00000000000E+00 0. -1.
</event>
<event>
 5   0  0.4143600E+04  0.9118800E+02  0.7546771E-02  0.1180000E+00
      -11   -1    0    0    0    0  0.00000000000E+00  0.00000000000E+00  0.34996269501E-01  0.35000000000E-01  0.51099999109E-03 0. -1.
       11   -1    0    0    0    0 -0.00000000000E+00 -0.00000000000E+00 -0.34996269501E-01  0.35000000000E-01  0.51099999109E-03 0.  1.
       22    1    1    2    0    0  0.55817148105E-03  0.25339201250E-02 -0.32761257303E-01  0.32863844673E-01  0.00000000000E+00 0.  1.
       22    1    1    2    0    0 -0.24047847162E-03 -0.74944081619E-03 -0.20923287767E-02  0.22354711231E-02  0.00000000000E+00 0. -1.
       22    1    1    2    0    0 -0.31769300943E-03 -0.17844793088E-02  0.34853586080E-01  0.34900684204E-01  0.00000000000E+00 0. -1.
</event>
<event>
 5   0  0.4143600E+04  0.9118800E+02  0.7546771E-02  0.1180000E+00
      -11   -1    0    0    0    0  0.00000000000E+00  0.00000000000E+00  0.34996269501E-01  0.35000000000E-01  0.51099999109E-03 0.  1.
       11   -1    0    0    0    0 -0.00000000000E+00 -0.00000000000E+00 -0.34996269501E-01  0.35000000000E-01  0.51099999109E-03 0. -1.
       22    1    1    2    0    0 -0.11354204296E-01 -0.14626159784E-01 -0.27413886003E-01  0.33081167618E-01  0.00000000000E+00 0. -1.
       22    1    1    2    0    0  0.10536548890E-01  0.13866262606E-01  0.11286281400E-01  0.20752644386E-01  0.00000000000E+00 0.  1.
       22    1    1    2    0    0  0.81765540569E-03  0.75989717723E-03  0.16127604603E-01  0.16166187996E-01  0.00000000000E+00 0.  1.
</event>
<event>
 5   0  0.4143600E+04  0.9118800E+02  0.7546771E-02  0.1180000E+00
      -11   -1    0    0    0    0  0.00000000000E+00  0.00000000000E+00  0.34996269501E-01  0.35000000000E-01  0.51099999109E-03 0. -1.
       11   -1    0    0    0    0 -0.00000000000E+00 -0.00000000000E+00 -0.34996269501E-01  0.35000000000E-01  0.51099999109E-03 0.  1.
       22    1    1    2    0    0 -0.36561404670E-02  0.17764858196E-02 -0.27899905519E-01  0.28194467418E-01  0.00000000000E+00 0.  1.
       22    1    1    2    0    0  0.49511958102E-02  0.19539670293E-02  0.34068199751E-01  0.34481510427E-01  0.00000000000E+00 0. -1.
       22    1    1    2    0    0 -0.12950553432E-02 -0.37304528490E-02 -0.61682942313E-02  0.73240221548E-02  0.00000000000E+00 0. -1.
</event>
<event>
 5   0  0.4143600E+04  0.9118800E+02  0.7546771E-02  0.1180000E+00
      -11   -1    0    0    0    0  0.00000000000E+00  0.00000000000E+00  0.34996269501E-01  0.35000000000E-01  0.51099999109E-03 0. -1.
       11   -1    0    0    0    0 -0.00000000000E+00 -0.00000000000E+00 -0.34996269501E-01  0.35000000000E-01  0.51099999109E-03 0.  1.
       22    1    1    2    0    0 -0.14118250553E-01  0.14148278408E-01  0.28691990765E-01  0.34967543732E-01  0.00000000000E+00 0. -1.
       22    1    1    2    0    0  0.14170608785E-01 -0.14047016183E-01 -0.28318206333E-01  0.34641674713E-01  0.00000000000E+00 0.  1.
       22    1    1    2    0    0 -0.52358232405E-04 -0.10126222446E-03 -0.37378443156E-03  0.39078155520E-03  0.00000000000E+00 0. -1.
</event>
<event>
 5   0  0.4143600E+04  0.9118800E+02  0.7546771E-02  0.1180000E+00
      -11   -1    0    0    0    0  0.00000000000E+00  0.00000000000E+00  0.34996269501E-01  0.35000000000E-01  0.51099999109E-03 0.  1.
       11   -1    0    0    0    0 -0.00000000000E+00 -0.00000000000E+00 -0.34996269501E-01  0.35000000000E-01  0.51099999109E-03 0. -1.
       22    1    1    2    0    0 -0.11366657777E-02  0.45275951964E-02 -0.13307437026E-01  0.14102446864E-01  0.00000000000E+00 0. -1.
       22    1    1    2    0    0  0.46587828785E-03  0.15107322079E-03  0.34338461149E-01  0.34341953639E-01  0.00000000000E+00 0.  1.
       22    1    1    2    0    0  0.67078748983E-03 -0.46786684172E-02 -0.21031024122E-01  0.21555599497E-01  0.00000000000E+00 0.  1.
</event>
<event>
 5   0  0.4143600E+04  0.9118800E+02  0.7546771E-02  0.1180000E+00
      -11   -1    0    0    0    0  0.00000000000E+00  0.00000000000E+00  0.34996269501E-01  0.35000000000E-01  0.51099999109E-03 0. -1.
       11   -1    0    0    0    0 -0.00000000000E+00 -0.00000000000E+00 -0.34996269501E-01  0.35000000000E-01  0.51099999109E-03 0.  1.
       22    1    1    2    0    0  0.13995734368E-02 -0.79707969626E-03  0.34771837789E-01  0.34809120142E-01  0.00000000000E+00 0. -1.
       22    1    1    2    0    0 -0.29115343568E-02  0.16177748568E-03 -0.30073335507E-01  0.30214379238E-01  0.00000000000E+00 0.  1.
       22    1    1    2    0    0  0.15119609200E-02  0.63530221058E-03 -0.46985022821E-02  0.49765006196E-02  0.00000000000E+00 0.  1.
</event>
<event>
 5   0  0.4143600E+04  0.9118800E+02  0.7546771E-02  0.1180000E+00
      -11   -1    0    0    0    0  0.00000000000E+00  0.00000000000E+00  0.34996269501E-01  0.35000000000E-01  0.51099999109E-03 0.  1.
       11   -1    0    0    0    0 -0.00000000000E+00 -0.00000000000E+00 -0.34996269501E-01  0.35000000000E-01  0.51099999109E-03 0. -1.
       22    1    1    2    0    0 -0.96649837381E-02  0.71032740931E-02 -0.30714856057E-01  0.32973789532E-01  0.00000000000E+00 0. -1.
       22    1    1    2    0    0  0.28909261707E-02  0.17060755819E-02 -0.93296214988E-03  0.34840445446E-02  0.00000000000E+00 0.  1.
       22    1    1    2    0    0  0.67740575674E-02 -0.88093496750E-02  0.31647818206E-01  0.33542165924E-01  0.00000000000E+00 0.  1.
</event>
<event>
 5   0  0.4143600E+04  0.9118800E+02  0.7546771E-02  0.1180000E+00
      -11   -1    0    0    0    0  0.00000000000E+00  0.00000000000E+00  0.34996269501E-01  0.35000000000E-01  0.51099999109E-03 0. -1.
       11   -1    0    0    0    0 -0.00000000000E+00 -0.00000000000E+00 -0.34996269501E-01  0.35000000000E-01  0.51099999109E-03 0.  1.
       22    1    1    2    0    0  0.71915599160E-03  0.28252414220E-03 -0.14055611461E-01  0.14076832697E-01  0.00000000000E+00 0.  1.
       22    1    1    2    0    0 -0.93065577142E-02  0.12998122429E-01  0.29667454479E-01  0.33700460805E-01  0.00000000000E+00 0. -1.
       22    1    1    2    0    0  0.85874017226E-02 -0.13280646571E-01 -0.15611843018E-01  0.22222706499E-01  0.00000000000E+00 0.  1.
</event>
<event>
 5   0  0.4143600E+04  0.9118800E+02  0.7546771E-02  0.1180000E+00
      -11   -1    0    0    0    0  0.00000000000E+00  0.00000000000E+00  0.34996269501E-01  0.35000000000E-01  0.51099999109E-03 0. -1.
       11   -1    0    0    0    0 -0.00000000000E+00 -0.00000000000E+00 -0.34996269501E-01  0.35000000000E-01  0.51099999109E-03 0.  1.
       22    1    1    2    0    0  0.64274626423E-04 -0.20400593180E-01 -0.26479889710E-01  0.33427128090E-01  0.00000000000E+00 0.  1.
       22    1    1    2    0    0  0.39694604491E-04  0.20500135637E-01  0.15775263663E-01  0.25867278180E-01  0.00000000000E+00 0. -1.
       22    1    1    2    0    0 -0.10396923091E-03 -0.99542457492E-04  0.10704626047E-01  0.10705593730E-01  0.00000000000E+00 0. -1.
</event>
<event>
 5   0  0.4143600E+04  0.9118800E+02  0.7546771E-02  0.1180000E+00
      -11   -1    0    0    0    0  0.00000000000E+00  0.00000000000E+00  0.34996269501E-01  0.35000000000E-01  0.51099999109E-03 0.  1.
       11   -1    0    0    0    0 -0.00000000000E+00 -0.00000000000E+00 -0.34996269501E-01  0.35000000000E-01  0.51099999109E-03 0. -1.
       22    1    1    2    0    0  0.21885911712E-03 -0.10024113574E-02 -0.18480917764E-01  0.18509377333E-01  0.00000000000E+00 0.  1.
       22    1    1    2    0    0 -0.81265289665E-02  0.23702889398E-02 -0.14911852626E-01  0.17147072387E-01  0.00000000000E+00 0. -1.
       22    1    1    2    0    0  0.79076698494E-02 -0.13678775824E-02  0.33392770390E-01  0.34343550280E-01  0.00000000000E+00 0.  1.
</event>
<event>
 5   0  0.4143600E+04  0.9118800E+02  0.7546771E-02  0.1180000E+00
      -11   -1    0    0    0    0  0.00000000000E+00  0.00000000000E+00  0.34996269501E-01  0.35000000000E-01  0.51099999109E-03 0.  1.
       11   -1    0    0    0    0 -0.00000000000E+00 -0.00000000000E+00 -0.34996269501E-01  0.35000000000E-01  0.51099999109E-03 0. -1.
       22    1    1    2    0    0  0.50856138249E-02 -0.19720534022E-01 -0.22766385168E-01  0.30546214556E-01  0.00000000000E+00 0. -1.
       22    1    1    2    0    0 -0.44712919382E-02  0.21581110263E-01  0.63710969183E-02  0.22941831830E-01  0.00000000000E+00 0.  1.
       22    1    1    2    0    0 -0.61432188668E-03 -0.18605762409E-02  0.16395288250E-01  0.16511953613E-01  0.00000000000E+00 0.  1.
</event>
<event>
 5   0  0.4143600E+04  0.9118800E+02  0.7546771E-02  0.1180000E+00
      -11   -1    0    0    0    0  0.00000000000E+00  0.00000000000E+00  0.34996269501E-01  0.35000000000E-01  0.51099999109E-03 0. -1.
       11   -1    0    0    0    0 -0.00000000000E+00 -0.00000000000E+00 -0.34996269501E-01  0.35000000000E-01  0.51099999109E-03 0.  1.
       22    1    1    2    0    0 -0.17415366286E-03 -0.41094753932E-03 -0.10194097132E-02  0.11128358107E-02  0.00000000000E+00 0. -1.
       22    1    1    2    0    0 -0.28000079448E-01 -0.67526544466E-02 -0.18169109798E-01  0.34054652281E-01  0.00000000000E+00 0.  1.
       22    1    1    2    0    0  0.28174233111E-01  0.71636019859E-02  0.19188519511E-01  0.34832511908E-01  0.00000000000E+00 0. -1.
</event>
<event>
 5   0  0.4143600E+04  0.9118800E+02  0.7546771E-02  0.1180000E+00
      -11   -1    0    0    0    0  0.00000000000E+00  0.00000000000E+00  0.34996269501E-01  0.35000000000E-01  0.51099999109E-03 0. -1.
       11   -1    0    0    0    0 -0.00000000000E+00 -0.00000000000E+00 -0.34996269501E-01  0.35000000000E-01  0.51099999109E-03 0.  1.
       22    1    1    2    0    0  0.33204782382E-03  0.20441319985E-03  0.55681011522E-03  0.67976320729E-03  0.00000000000E+00 0.  1.
       22    1    1    2    0    0 -0.17261723002E-01  0.17609935321E-01  0.24119403234E-01  0.34493804014E-01  0.00000000000E+00 0. -1.
       22    1    1    2    0    0  0.16929675178E-01 -0.17814348521E-01 -0.24676213349E-01  0.34826432779E-01  0.00000000000E+00 0.  1.
</event>
<event>
 5   0  0.4143600E+04  0.9118800E+02  0.7546771E-02  0.1180000E+00
      -11   -1    0    0    0    0  0.00000000000E+00  0.00000000000E+00  0.34996269501E-01  0.35000000000E-01  0.51099999109E-03 0. -1.
       11   -1    0    0    0    0 -0.00000000000E+00 -0.00000000000E+00 -0.34996269501E-01  0.35000000000E-01  0.51099999109E-03 0.  1.
       22    1    1    2    0    0  0.89486079628E-03 -0.38278578985E-02  0.31546418814E-01  0.31790404400E-01  0.00000000000E+00 0. -1.
       22    1    1    2    0    0  0.88922156692E-02  0.18389214203E-02 -0.62785820752E-02  0.11039643308E-01  0.00000000000E+00 0. -1.
       22    1    1    2    0    0 -0.97870764655E-02  0.19889364782E-02 -0.25267836739E-01  0.27169952292E-01  0.00000000000E+00 0.  1.
</event>
<event>
 5   0  0.4143600E+04  0.9118800E+02  0.7546771E-02  0.1180000E+00
      -11   -1    0    0    0    0  0.00000000000E+00  0.00000000000E+00  0.34996269501E-01  0.35000000000E-01  0.51099999109E-03 0. -1.
       11   -1    0    0    0    0 -0.00000000000E+00 -0.00000000000E+00 -0.34996269501E-01  0.35000000000E-01  0.51099999109E-03 0.  1.
       22    1    1    2    0    0 -0.81559316150E-03 -0.34102918443E-02 -0.31525416381E-01  0.31719822834E-01  0.00000000000E+00 0.  1.
       22    1    1    2    0    0 -0.10723915427E-02  0.15967081397E-02 -0.30499800686E-02  0.36058118257E-02  0.00000000000E+00 0. -1.
       22    1    1    2    0    0  0.18879847042E-02  0.18135837046E-02  0.34575396449E-01  0.34674365340E-01  0.00000000000E+00 0. -1.
</event>
<event>
 5   0  0.4143600E+04  0.9118800E+02  0.7546771E-02  0.1180000E+00
      -11   -1    0    0    0    0  0.00000000000E+00  0.00000000000E+00  0.34996269501E-01  0.35000000000E-01  0.51099999109E-03 0. -1.
       11   -1    0    0    0    0 -0.00000000000E+00 -0.00000000000E+00 -0.34996269501E-01  0.35000000000E-01  0.51099999109E-03 0.  1.
       22    1    1    2    0    0 -0.17161681359E-03 -0.54976380763E-03 -0.11711233376E-01  0.11725386124E-01  0.00000000000E+00 0.  1.
       22    1    1    2    0    0 -0.60342148121E-02 -0.12067316258E-01  0.31344977521E-01  0.34125349608E-01  0.00000000000E+00 0. -1.
       22    1    1    2    0    0  0.62058316256E-02  0.12617080066E-01 -0.19633744145E-01  0.24149264268E-01  0.00000000000E+00 0.  1.
</event>
<event>
 5   0  0.4143600E+04  0.9118800E+02  0.7546771E-02  0.1180000E+00
      -11   -1    0    0    0    0  0.00000000000E+00  0.00000000000E+00  0.34996269501E-01  0.35000000000E-01  0.51099999109E-03 0. -1.
       11   -1    0    0    0    0 -0.00000000000E+00 -0.00000000000E+00 -0.34996269501E-01  0.35000000000E-01  0.51099999109E-03 0.  1.
       22    1    1    2    0    0 -0.12515080977E-02  0.40348752242E-02  0.34686420992E-01  0.34942728740E-01  0.00000000000E+00 0. -1.
       22    1    1    2    0    0 -0.16008571727E-03  0.15505371210E-03 -0.23715324877E-03  0.32543932447E-03  0.00000000000E+00 0.  1.
       22    1    1    2    0    0  0.14115938150E-02 -0.41899289363E-02 -0.34449267743E-01  0.34731831936E-01  0.00000000000E+00 0.  1.
</event>
<event>
 5   0  0.4143600E+04  0.9118800E+02  0.7546771E-02  0.1180000E+00
      -11   -1    0    0    0    0  0.00000000000E+00  0.00000000000E+00  0.34996269501E-01  0.35000000000E-01  0.51099999109E-03 0. -1.
       11   -1    0    0    0    0 -0.00000000000E+00 -0.00000000000E+00 -0.34996269501E-01  0.35000000000E-01  0.51099999109E-03 0.  1.
       22    1    1    2    0    0 -0.66621361240E-03  0.13962622279E-02 -0.34177934275E-01  0.34212930013E-01  0.00000000000E+00 0.  1.
       22    1    1    2    0    0  0.33494179935E-03  0.14073347932E-03 -0.74494477280E-03  0.82881519996E-03  0.00000000000E+00 0. -1.
       22    1    1    2    0    0  0.33127181305E-03 -0.15369957072E-02  0.34922879047E-01  0.34958254787E-01  0.00000000000E+00 0. -1.
</event>
<event>
 5   0  0.4143600E+04  0.9118800E+02  0.7546771E-02  0.1180000E+00
      -11   -1    0    0    0    0  0.00000000000E+00  0.00000000000E+00  0.34996269501E-01  0.35000000000E-01  0.51099999109E-03 0. -1.
       11   -1    0    0    0    0 -0.00000000000E+00 -0.00000000000E+00 -0.34996269501E-01  0.35000000000E-01  0.51099999109E-03 0.  1.
       22    1    1    2    0    0  0.25183293765E-03  0.58817895340E-03  0.15829741349E-01  0.15842666615E-01  0.00000000000E+00 0.  1.
       22    1    1    2    0    0 -0.87419846366E-02  0.14183702197E-01  0.12684685794E-01  0.20940414444E-01  0.00000000000E+00 0. -1.
       22    1    1    2    0    0  0.84901516989E-02 -0.14771881150E-01 -0.28514427143E-01  0.33216918940E-01  0.00000000000E+00 0.  1.
</event>
<event>
 5   0  0.4143600E+04  0.9118800E+02  0.7546771E-02  0.1180000E+00
      -11   -1    0    0    0    0  0.00000000000E+00  0.00000000000E+00  0.34996269501E-01  0.35000000000E-01  0.51099999109E-03 0.  1.
       11   -1    0    0    0    0 -0.00000000000E+00 -0.00000000000E+00 -0.34996269501E-01  0.35000000000E-01  0.51099999109E-03 0. -1.
       22    1    1    2    0    0 -0.15465577331E-02 -0.30532442120E-02 -0.70813489374E-02  0.78650901974E-02  0.00000000000E+00 0. -1.
       22    1    1    2    0    0  0.94631206580E-03 -0.23389122825E-02 -0.27255519045E-01  0.27372053916E-01  0.00000000000E+00 0. -1.
       22    1    1    2    0    0  0.60024566732E-03  0.53921564945E-02  0.34336867982E-01  0.34762855886E-01  0.00000000000E+00 0.  1.
</event>
<event>
 5   0  0.4143600E+04  0.9118800E+02  0.7546771E-02  0.1180000E+00
      -11   -1    0    0    0    0  0.00000000000E+00  0.00000000000E+00  0.34996269501E-01  0.35000000000E-01  0.51099999109E-03 0. -1.
       11   -1    0    0    0    0 -0.00000000000E+00 -0.00000000000E+00 -0.34996269501E-01  0.35000000000E-01  0.51099999109E-03 0.  1.
       22    1    1    2    0    0 -0.21736020424E-03  0.15514478423E-03  0.89344463940E-03  0.93250130623E-03  0.00000000000E+00 0.  1.
       22    1    1    2    0    0  0.18493869533E-02  0.13232915173E-01  0.31370779409E-01  0.34097742987E-01  0.00000000000E+00 0. -1.
       22    1    1    2    0    0 -0.16320267490E-02 -0.13388059957E-01 -0.32264224049E-01  0.34969755707E-01  0.00000000000E+00 0.  1.
</event>
<event>
 5   0  0.4143600E+04  0.9118800E+02  0.7546771E-02  0.1180000E+00
      -11   -1    0    0    0    0  0.00000000000E+00  0.00000000000E+00  0.34996269501E-01  0.35000000000E-01  0.51099999109E-03 0. -1.
       11   -1    0    0    0    0 -0.00000000000E+00 -0.00000000000E+00 -0.34996269501E-01  0.35000000000E-01  0.51099999109E-03 0.  1.
       22    1    1    2    0    0  0.18011118736E-02  0.18068898119E-03 -0.30587793898E-01  0.30641308524E-01  0.00000000000E+00 0.  1.
       22    1    1    2    0    0 -0.72801665252E-03 -0.18578621906E-02 -0.41284559029E-02  0.45853907476E-02  0.00000000000E+00 0.  1.
       22    1    1    2    0    0 -0.10730952211E-02  0.16771732094E-02  0.34716249801E-01  0.34773300729E-01  0.00000000000E+00 0. -1.
</event>
<event>
 5   0  0.4143600E+04  0.9118800E+02  0.7546771E-02  0.1180000E+00
      -11   -1    0    0    0    0  0.00000000000E+00  0.00000000000E+00  0.34996269501E-01  0.35000000000E-01  0.51099999109E-03 0. -1.
       11   -1    0    0    0    0 -0.00000000000E+00 -0.00000000000E+00 -0.34996269501E-01  0.35000000000E-01  0.51099999109E-03 0.  1.
       22    1    1    2    0    0  0.19598380150E-02  0.44927137143E-03 -0.48428739392E-03  0.20681740957E-02  0.00000000000E+00 0.  1.
       22    1    1    2    0    0 -0.85691442180E-02 -0.96629671391E-02  0.31962689566E-01  0.34473420063E-01  0.00000000000E+00 0. -1.
       22    1    1    2    0    0  0.66093062030E-02  0.92136957676E-02 -0.31478402172E-01  0.33458405842E-01  0.00000000000E+00 0.  1.
</event>
<event>
 5   0  0.4143600E+04  0.9118800E+02  0.7546771E-02  0.1180000E+00
      -11   -1    0    0    0    0  0.00000000000E+00  0.00000000000E+00  0.34996269501E-01  0.35000000000E-01  0.51099999109E-03 0.  1.
       11   -1    0    0    0    0 -0.00000000000E+00 -0.00000000000E+00 -0.34996269501E-01  0.35000000000E-01  0.51099999109E-03 0. -1.
       22    1    1    2    0    0 -0.39003226574E-03  0.13042349514E-03  0.50595958642E-03  0.65202036739E-03  0.00000000000E+00 0. -1.
       22    1    1    2    0    0  0.13470510383E-01 -0.79168214893E-02  0.30800386679E-01  0.34536857588E-01  0.00000000000E+00 0.  1.
       22    1    1    2    0    0 -0.13080478117E-01  0.77863979942E-02 -0.31306346266E-01  0.34811122045E-01  0.00000000000E+00 0. -1.
</event>
<event>
 5   0  0.4143600E+04  0.9118800E+02  0.7546771E-02  0.1180000E+00
      -11   -1    0    0    0    0  0.00000000000E+00  0.00000000000E+00  0.34996269501E-01  0.35000000000E-01  0.51099999109E-03 0. -1.
       11   -1    0    0    0    0 -0.00000000000E+00 -0.00000000000E+00 -0.34996269501E-01  0.35000000000E-01  0.51099999109E-03 0.  1.
       22    1    1    2    0    0 -0.12860891677E-01 -0.17813642778E-01  0.26868260021E-01  0.34707806043E-01  0.00000000000E+00 0. -1.
       22    1    1    2    0    0 -0.10671008169E-03 -0.27971633968E-03 -0.15538906234E-02  0.15824678012E-02  0.00000000000E+00 0.  1.
       22    1    1    2    0    0  0.12967601759E-01  0.18093359117E-01 -0.25314369397E-01  0.33709726156E-01  0.00000000000E+00 0.  1.
</event>
<event>
 5   0  0.4143600E+04  0.9118800E+02  0.7546771E-02  0.1180000E+00
      -11   -1    0    0    0    0  0.00000000000E+00  0.00000000000E+00  0.34996269501E-01  0.35000000000E-01  0.51099999109E-03 0. -1.
       11   -1    0    0    0    0 -0.00000000000E+00 -0.00000000000E+00 -0.34996269501E-01  0.35000000000E-01  0.51099999109E-03 0.  1.
       22    1    1    2    0    0  0.12502378042E-01  0.15576018931E-01  0.26596649899E-01  0.33261142619E-01  0.00000000000E+00 0. -1.
       22    1    1    2    0    0 -0.61436315135E-02 -0.13918146180E-01 -0.83709075351E-02  0.17364650708E-01  0.00000000000E+00 0.  1.
       22    1    1    2    0    0 -0.63587465287E-02 -0.16578727516E-02 -0.18225742364E-01  0.19374206673E-01  0.00000000000E+00 0. -1.
</event>
<event>
 5   0  0.4143600E+04  0.9118800E+02  0.7546771E-02  0.1180000E+00
      -11   -1    0    0    0    0  0.00000000000E+00  0.00000000000E+00  0.34996269501E-01  0.35000000000E-01  0.51099999109E-03 0. -1.
       11   -1    0    0    0    0 -0.00000000000E+00 -0.00000000000E+00 -0.34996269501E-01  0.35000000000E-01  0.51099999109E-03 0.  1.
       22    1    1    2    0    0  0.15275001670E-02 -0.30765629512E-02 -0.31299854802E-01  0.31487765989E-01  0.00000000000E+00 0.  1.
       22    1    1    2    0    0 -0.57172228204E-03  0.42863483220E-02  0.34600274693E-01  0.34869451632E-01  0.00000000000E+00 0. -1.
       22    1    1    2    0    0 -0.95577788491E-03 -0.12097853708E-02 -0.33004198909E-02  0.36427823796E-02  0.00000000000E+00 0.  1.
</event>
<event>
 5   0  0.4143600E+04  0.9118800E+02  0.7546771E-02  0.1180000E+00
      -11   -1    0    0    0    0  0.00000000000E+00  0.00000000000E+00  0.34996269501E-01  0.35000000000E-01  0.51099999109E-03 0.  1.
       11   -1    0    0    0    0 -0.00000000000E+00 -0.00000000000E+00 -0.34996269501E-01  0.35000000000E-01  0.51099999109E-03 0. -1.
       22    1    1    2    0    0  0.33638191045E-02 -0.11086602050E-01 -0.15595937652E-01  0.19428363164E-01  0.00000000000E+00 0. -1.
       22    1    1    2    0    0 -0.17100416729E-03 -0.31567527961E-03 -0.16426348710E-01  0.16430271612E-01  0.00000000000E+00 0. -1.
       22    1    1    2    0    0 -0.31928149372E-02  0.11402277330E-01  0.32022286362E-01  0.34141365224E-01  0.00000000000E+00 0.  1.
</event>
<event>
 5   0  0.4143600E+04  0.9118800E+02  0.7546771E-02  0.1180000E+00
      -11   -1    0    0    0    0  0.00000000000E+00  0.00000000000E+00  0.34996269501E-01  0.35000000000E-01  0.51099999109E-03 0. -1.
       11   -1    0    0    0    0 -0.00000000000E+00 -0.00000000000E+00 -0.34996269501E-01  0.35000000000E-01  0.51099999109E-03 0.  1.
       22    1    1    2    0    0  0.97436379167E-02  0.10204294708E-02  0.33280347771E-01  0.34692381065E-01  0.00000000000E+00 0. -1.
       22    1    1    2    0    0  0.22797677517E-03 -0.47595585359E-03 -0.95108745327E-02  0.95255048035E-02  0.00000000000E+00 0. -1.
       22    1    1    2    0    0 -0.99716146919E-02 -0.54447361717E-03 -0.23769473238E-01  0.25782114132E-01  0.00000000000E+00 0.  1.
</event>
<event>
 5   0  0.4143600E+04  0.9118800E+02  0.7546771E-02  0.1180000E+00
      -11   -1    0    0    0    0  0.00000000000E+00  0.00000000000E+00  0.34996269501E-01  0.35000000000E-01  0.51099999109E-03 0. -1.
       11   -1    0    0    0    0 -0.00000000000E+00 -0.00000000000E+00 -0.34996269501E-01  0.35000000000E-01  0.51099999109E-03 0.  1.
       22    1    1    2    0    0  0.12714183388E-01  0.65649714250E-02 -0.30410471674E-01  0.33608720542E-01  0.00000000000E+00 0.  1.
       22    1    1    2    0    0 -0.12923151703E-01 -0.61127158883E-02  0.14120938976E-01  0.20094130064E-01  0.00000000000E+00 0. -1.
       22    1    1    2    0    0  0.20896831479E-03 -0.45225553675E-03  0.16289532698E-01  0.16297149394E-01  0.00000000000E+00 0. -1.
</event>
<event>
 5   0  0.4143600E+04  0.9118800E+02  0.7546771E-02  0.1180000E+00
      -11   -1    0    0    0    0  0.00000000000E+00  0.00000000000E+00  0.34996269501E-01  0.35000000000E-01  0.51099999109E-03 0.  1.
       11   -1    0    0    0    0 -0.00000000000E+00 -0.00000000000E+00 -0.34996269501E-01  0.35000000000E-01  0.51099999109E-03 0. -1.
       22    1    1    2    0    0  0.15933988232E-01  0.79881053378E-02 -0.26525096436E-01  0.31957511618E-01  0.00000000000E+00 0. -1.
       22    1    1    2    0    0 -0.70513011346E-03 -0.58319026747E-03 -0.34748340267E-02  0.35932980503E-02  0.00000000000E+00 0. -1.
       22    1    1    2    0    0 -0.15228858118E-01 -0.74049150703E-02  0.29999930462E-01  0.34449190332E-01  0.00000000000E+00 0.  1.
</event>
<event>
 5   0  0.4143600E+04  0.9118800E+02  0.7546771E-02  0.1180000E+00
      -11   -1    0    0    0    0  0.00000000000E+00  0.00000000000E+00  0.34996269501E-01  0.35000000000E-01  0.51099999109E-03 0. -1.
       11   -1    0    0    0    0 -0.00000000000E+00 -0.00000000000E+00 -0.34996269501E-01  0.35000000000E-01  0.51099999109E-03 0.  1.
       22    1    1    2    0    0  0.10118992171E-01 -0.11063487207E-01  0.31181329017E-01  0.34598699845E-01  0.00000000000E+00 0. -1.
       22    1    1    2    0    0 -0.31496354680E-05 -0.51235439852E-06  0.42228411642E-03  0.42229617296E-03  0.00000000000E+00 0.  1.
       22    1    1    2    0    0 -0.10115842535E-01  0.11063999562E-01 -0.31603613133E-01  0.34979003982E-01  0.00000000000E+00 0.  1.
</event>
<event>
 5   0  0.4143600E+04  0.9118800E+02  0.7546771E-02  0.1180000E+00
      -11   -1    0    0    0    0  0.00000000000E+00  0.00000000000E+00  0.34996269501E-01  0.35000000000E-01  0.51099999109E-03 0. -1.
       11   -1    0    0    0    0 -0.00000000000E+00 -0.00000000000E+00 -0.34996269501E-01  0.35000000000E-01  0.51099999109E-03 0.  1.
       22    1    1    2    0    0 -0.17852331220E-01  0.74856333163E-02 -0.27398732094E-01  0.33547443367E-01  0.00000000000E+00 0.  1.
       22    1    1    2    0    0  0.57097516226E-02 -0.53076385976E-02  0.21318608376E-01  0.22699236863E-01  0.00000000000E+00 0. -1.
       22    1    1    2    0    0  0.12142579597E-01 -0.21779947187E-02  0.60801237182E-02  0.13753319770E-01  0.00000000000E+00 0. -1.
</event>
<event>
 5   0  0.4143600E+04  0.9118800E+02  0.7546771E-02  0.1180000E+00
      -11   -1    0    0    0    0  0.00000000000E+00  0.00000000000E+00  0.34996269501E-01  0.35000000000E-01  0.51099999109E-03 0. -1.
       11   -1    0    0    0    0 -0.00000000000E+00 -0.00000000000E+00 -0.34996269501E-01  0.35000000000E-01  0.51099999109E-03 0.  1.
       22    1    1    2    0    0 -0.85993710014E-02 -0.18218401081E-01  0.28566682656E-01  0.34955896177E-01  0.00000000000E+00 0. -1.
       22    1    1    2    0    0  0.85570391819E-02  0.18158795026E-01 -0.27887440098E-01  0.34360938165E-01  0.00000000000E+00 0.  1.
       22    1    1    2    0    0  0.42331819573E-04  0.59606055344E-04 -0.67924255729E-03  0.68316565811E-03  0.00000000000E+00 0.  1.
</event>
<event>
 5   0  0.4143600E+04  0.9118800E+02  0.7546771E-02  0.1180000E+00
      -11   -1    0    0    0    0  0.00000000000E+00  0.00000000000E+00  0.34996269501E-01  0.35000000000E-01  0.51099999109E-03 0.  1.
       11   -1    0    0    0    0 -0.00000000000E+00 -0.00000000000E+00 -0.34996269501E-01  0.35000000000E-01  0.51099999109E-03 0. -1.
       22    1    1    2    0    0 -0.23118740747E-02  0.20512721511E-01  0.27956921925E-01  0.34752064529E-01  0.00000000000E+00 0.  1.
       22    1    1    2    0    0  0.24793316137E-02 -0.20880263815E-01 -0.27101446204E-01  0.34301907944E-01  0.00000000000E+00 0. -1.
       22    1    1    2    0    0 -0.16745753900E-03  0.36754230478E-03 -0.85547572055E-03  0.94602752689E-03  0.00000000000E+00 0. -1.
</event>
<event>
 5   0  0.4143600E+04  0.9118800E+02  0.7546771E-02  0.1180000E+00
      -11   -1    0    0    0    0  0.00000000000E+00  0.00000000000E+00  0.34996269501E-01  0.35000000000E-01  0.51099999109E-03 0.  1.
       11   -1    0    0    0    0 -0.00000000000E+00 -0.00000000000E+00 -0.34996269501E-01  0.35000000000E-01  0.51099999109E-03 0. -1.
       22    1    1    2    0    0 -0.22733700773E-04  0.11528657784E-03 -0.19806268814E-02  0.19841095382E-02  0.00000000000E+00 0. -1.
       22    1    1    2    0    0  0.16536598723E-01  0.49397520842E-02 -0.28305278648E-01  0.33151908653E-01  0.00000000000E+00 0. -1.
       22    1    1    2    0    0 -0.16513865022E-01 -0.50550386620E-02  0.30285905530E-01  0.34863981809E-01  0.00000000000E+00 0.  1.
</event>
<event>
 5   0  0.4143600E+04  0.9118800E+02  0.7546771E-02  0.1180000E+00
      -11   -1    0    0    0    0  0.00000000000E+00  0.00000000000E+00  0.34996269501E-01  0.35000000000E-01  0.51099999109E-03 0.  1.
       11   -1    0    0    0    0 -0.00000000000E+00 -0.00000000000E+00 -0.34996269501E-01  0.35000000000E-01  0.51099999109E-03 0. -1.
       22    1    1    2    0    0 -0.21343300455E-02 -0.18664168363E-02 -0.20662408184E-01  0.20856030027E-01  0.00000000000E+00 0. -1.
       22    1    1    2    0    0  0.12430975371E-01  0.37246445478E-04  0.31632718005E-01  0.33987635757E-01  0.00000000000E+00 0.  1.
       22    1    1    2    0    0 -0.10296645326E-01  0.18291703908E-02 -0.10970309821E-01  0.15156334216E-01  0.00000000000E+00 0. -1.
</event>
<event>
 5   0  0.4143600E+04  0.9118800E+02  0.7546771E-02  0.1180000E+00
      -11   -1    0    0    0    0  0.00000000000E+00  0.00000000000E+00  0.34996269501E-01  0.35000000000E-01  0.51099999109E-03 0. -1.
       11   -1    0    0    0    0 -0.00000000000E+00 -0.00000000000E+00 -0.34996269501E-01  0.35000000000E-01  0.51099999109E-03 0.  1.
       22    1    1    2    0    0 -0.71034959484E-02  0.12178314314E-01 -0.19814494265E-01  0.24318412308E-01  0.00000000000E+00 0.  1.
       22    1    1    2    0    0  0.11631246776E-02  0.45347270234E-04 -0.11492828760E-01  0.11551624487E-01  0.00000000000E+00 0. -1.
       22    1    1    2    0    0  0.59403712708E-02 -0.12223661584E-01  0.31307323025E-01  0.34129963205E-01  0.00000000000E+00 0. -1.
</event>
<event>
 5   0  0.4143600E+04  0.9118800E+02  0.7546771E-02  0.1180000E+00
      -11   -1    0    0    0    0  0.00000000000E+00  0.00000000000E+00  0.34996269501E-01  0.35000000000E-01  0.51099999109E-03 0.  1.
       11   -1    0    0    0    0 -0.00000000000E+00 -0.00000000000E+00 -0.34996269501E-01  0.35000000000E-01  0.51099999109E-03 0. -1.
       22    1    1    2    0    0 -0.63898674802E-02 -0.13625304118E-01 -0.31545251041E-01  0.34951139923E-01  0.00000000000E+00 0. -1.
       22    1    1    2    0    0  0.17070597810E-04  0.98071186291E-05  0.10436099972E-02  0.10437956750E-02  0.00000000000E+00 0.  1.
       22    1    1    2    0    0  0.63727968824E-02  0.13615496999E-01  0.30501641043E-01  0.34005064402E-01  0.00000000000E+00 0.  1.
</event>
<event>
 5   0  0.4143600E+04  0.9118800E+02  0.7546771E-02  0.1180000E+00
      -11   -1    0    0    0    0  0.00000000000E+00  0.00000000000E+00  0.34996269501E-01  0.35000000000E-01  0.51099999109E-03 0.  1.
       11   -1    0    0    0    0 -0.00000000000E+00 -0.00000000000E+00 -0.34996269501E-01  0.35000000000E-01  0.51099999109E-03 0. -1.
       22    1    1    2    0    0  0.13107668465E-01 -0.20009761162E-01 -0.25524741547E-01  0.34981622967E-01  0.00000000000E+00 0. -1.
       22    1    1    2    0    0 -0.72846806737E-03  0.79316722856E-03  0.77007141886E-03  0.13239297443E-02  0.00000000000E+00 0.  1.
       22    1    1    2    0    0 -0.12379200397E-01  0.19216593934E-01  0.24754670129E-01  0.33694447288E-01  0.00000000000E+00 0.  1.
</event>
<event>
 5   0  0.4143600E+04  0.9118800E+02  0.7546771E-02  0.1180000E+00
      -11   -1    0    0    0    0  0.00000000000E+00  0.00000000000E+00  0.34996269501E-01  0.35000000000E-01  0.51099999109E-03 0. -1.
       11   -1    0    0    0    0 -0.00000000000E+00 -0.00000000000E+00 -0.34996269501E-01  0.35000000000E-01  0.51099999109E-03 0.  1.
       22    1    1    2    0    0 -0.19315390307E-03  0.26946417157E-02  0.34864490523E-01  0.34969002013E-01  0.00000000000E+00 0. -1.
       22    1    1    2    0    0  0.18328124151E-03  0.14411891095E-03 -0.52592082803E-03  0.57528687743E-03  0.00000000000E+00 0.  1.
       22    1    1    2    0    0  0.98726615594E-05 -0.28387606267E-02 -0.34338569695E-01  0.34455711109E-01  0.00000000000E+00 0.  1.
</event>
<event>
 5   0  0.4143600E+04  0.9118800E+02  0.7546771E-02  0.1180000E+00
      -11   -1    0    0    0    0  0.00000000000E+00  0.00000000000E+00  0.34996269501E-01  0.35000000000E-01  0.51099999109E-03 0.  1.
       11   -1    0    0    0    0 -0.00000000000E+00 -0.00000000000E+00 -0.34996269501E-01  0.35000000000E-01  0.51099999109E-03 0. -1.
       22    1    1    2    0    0 -0.23117098797E-02 -0.13751399610E-02  0.33625768853E-01  0.33733178674E-01  0.00000000000E+00 0.  1.
       22    1    1    2    0    0  0.24575403265E-02  0.68297276965E-02 -0.12566396244E-01  0.14512029473E-01  0.00000000000E+00 0.  1.
       22    1    1    2    0    0 -0.14583044683E-03 -0.54545877355E-02 -0.21059372610E-01  0.21754791854E-01  0.00000000000E+00 0. -1.
</event>
<event>
 5   0  0.4143600E+04  0.9118800E+02  0.7546771E-02  0.1180000E+00
      -11   -1    0    0    0    0  0.00000000000E+00  0.00000000000E+00  0.34996269501E-01  0.35000000000E-01  0.51099999109E-03 0.  1.
       11   -1    0    0    0    0 -0.00000000000E+00 -0.00000000000E+00 -0.34996269501E-01  0.35000000000E-01  0.51099999109E-03 0. -1.
       22    1    1    2    0    0 -0.12253856640E-02 -0.14319459058E-02  0.33758318646E-01  0.33810887550E-01  0.00000000000E+00 0.  1.
       22    1    1    2    0    0  0.54050585422E-02 -0.83351534401E-03 -0.28819813766E-01  0.29334128096E-01  0.00000000000E+00 0. -1.
       22    1    1    2    0    0 -0.41796728782E-02  0.22654612498E-02 -0.49385048801E-02  0.68549843540E-02  0.00000000000E+00 0.  1.
</event>
<event>
 5   0  0.4143600E+04  0.9118800E+02  0.7546771E-02  0.1180000E+00
      -11   -1    0    0    0    0  0.00000000000E+00  0.00000000000E+00  0.34996269501E-01  0.35000000000E-01  0.51099999109E-03 0.  1.
       11   -1    0    0    0    0 -0.00000000000E+00 -0.00000000000E+00 -0.34996269501E-01  0.35000000000E-01  0.51099999109E-03 0. -1.
       22    1    1    2    0    0 -0.54210167285E-03 -0.14524182012E-03  0.12114027804E-02  0.13350902989E-02  0.00000000000E+00 0. -1.
       22    1    1    2    0    0  0.35145843157E-02 -0.23247355749E-01 -0.25587773450E-01  0.34749474850E-01  0.00000000000E+00 0. -1.
       22    1    1    2    0    0 -0.29724826429E-02  0.23392597569E-01  0.24376370669E-01  0.33915434851E-01  0.00000000000E+00 0.  1.
</event>
<event>
 5   0  0.4143600E+04  0.9118800E+02  0.7546771E-02  0.1180000E+00
      -11   -1    0    0    0    0  0.00000000000E+00  0.00000000000E+00  0.34996269501E-01  0.35000000000E-01  0.51099999109E-03 0. -1.
       11   -1    0    0    0    0 -0.00000000000E+00 -0.00000000000E+00 -0.34996269501E-01  0.35000000000E-01  0.51099999109E-03 0.  1.
       22    1    1    2    0    0  0.13213485154E-02 -0.10799441987E-01 -0.25956020945E-01  0.28144074553E-01  0.00000000000E+00 0.  1.
       22    1    1    2    0    0 -0.19050123072E-02  0.14688721528E-01  0.31645014867E-01  0.34939870892E-01  0.00000000000E+00 0. -1.
       22    1    1    2    0    0  0.58366379173E-03 -0.38892795409E-02 -0.56889939220E-02  0.69160545554E-02  0.00000000000E+00 0.  1.
</event>
<event>
 5   0  0.4143600E+04  0.9118800E+02  0.7546771E-02  0.1180000E+00
      -11   -1    0    0    0    0  0.00000000000E+00  0.00000000000E+00  0.34996269501E-01  0.35000000000E-01  0.51099999109E-03 0.  1.
       11   -1    0    0    0    0 -0.00000000000E+00 -0.00000000000E+00 -0.34996269501E-01  0.35000000000E-01  0.51099999109E-03 0. -1.
       22    1    1    2    0    0 -0.63038699986E-02 -0.12040874252E-01  0.31289418372E-01  0.34113767482E-01  0.00000000000E+00 0.  1.
       22    1    1    2    0    0 -0.11380774855E-02 -0.45627832827E-03  0.15964451225E-03  0.12364856029E-02  0.00000000000E+00 0. -1.
       22    1    1    2    0    0  0.74419474841E-02  0.12497152580E-01 -0.31449062885E-01  0.34649746915E-01  0.00000000000E+00 0. -1.
</event>
<event>
 5   0  0.4143600E+04  0.9118800E+02  0.7546771E-02  0.1180000E+00
      -11   -1    0    0    0    0  0.00000000000E+00  0.00000000000E+00  0.34996269501E-01  0.35000000000E-01  0.51099999109E-03 0. -1.
       11   -1    0    0    0    0 -0.00000000000E+00 -0.00000000000E+00 -0.34996269501E-01  0.35000000000E-01  0.51099999109E-03 0.  1.
       22    1    1    2    0    0 -0.15889695549E-03 -0.20218888161E-03 -0.11767260612E-02  0.12044969113E-02  0.00000000000E+00 0. -1.
       22    1    1    2    0    0  0.17639803865E-01 -0.15447375457E-01  0.25745914265E-01  0.34822926216E-01  0.00000000000E+00 0. -1.
       22    1    1    2    0    0 -0.17480906909E-01  0.15649564339E-01 -0.24569188204E-01  0.33972576873E-01  0.00000000000E+00 0.  1.
</event>
<event>
 5   0  0.4143600E+04  0.9118800E+02  0.7546771E-02  0.1180000E+00
      -11   -1    0    0    0    0  0.00000000000E+00  0.00000000000E+00  0.34996269501E-01  0.35000000000E-01  0.51099999109E-03 0.  1.
       11   -1    0    0    0    0 -0.00000000000E+00 -0.00000000000E+00 -0.34996269501E-01  0.35000000000E-01  0.51099999109E-03 0. -1.
       22    1    1    2    0    0 -0.72312152031E-03  0.28771563024E-02 -0.34491919939E-01  0.34619264495E-01  0.00000000000E+00 0. -1.
       22    1    1    2    0    0  0.22747240650E-03  0.85832382492E-05 -0.34917650435E-03  0.41682322258E-03  0.00000000000E+00 0.  1.
       22    1    1    2    0    0  0.49564911381E-03 -0.28857395406E-02  0.34841096443E-01  0.34963912282E-01  0.00000000000E+00 0.  1.
</event>
<event>
 5   0  0.4143600E+04  0.9118800E+02  0.7546771E-02  0.1180000E+00
      -11   -1    0    0    0    0  0.00000000000E+00  0.00000000000E+00  0.34996269501E-01  0.35000000000E-01  0.51099999109E-03 0.  1.
       11   -1    0    0    0    0 -0.00000000000E+00 -0.00000000000E+00 -0.34996269501E-01  0.35000000000E-01  0.51099999109E-03 0. -1.
       22    1    1    2    0    0 -0.18431881825E-01  0.13049926822E-01 -0.26570691005E-01  0.34871714586E-01  0.00000000000E+00 0. -1.
       22    1    1    2    0    0  0.17652853399E-01 -0.13356651882E-01  0.25727014020E-01  0.33939691115E-01  0.00000000000E+00 0.  1.
       22    1    1    2    0    0  0.77902842619E-03  0.30672505939E-03  0.84367698548E-03  0.11885942986E-02  0.00000000000E+00 0. -1.
</event>
<event>
 5   0  0.4143600E+04  0.9118800E+02  0.7546771E-02  0.1180000E+00
      -11   -1    0    0    0    0  0.00000000000E+00  0.00000000000E+00  0.34996269501E-01  0.35000000000E-01  0.51099999109E-03 0. -1.
       11   -1    0    0    0    0 -0.00000000000E+00 -0.00000000000E+00 -0.34996269501E-01  0.35000000000E-01  0.51099999109E-03 0.  1.
       22    1    1    2    0    0  0.94391974769E-03  0.77996055934E-03 -0.22872981368E-02  0.25944278234E-02  0.00000000000E+00 0.  1.
       22    1    1    2    0    0  0.34412193666E-03  0.47710078350E-03 -0.32533236800E-01  0.32538554697E-01  0.00000000000E+00 0.  1.
       22    1    1    2    0    0 -0.12880416844E-02 -0.12570613428E-02  0.34820534937E-01  0.34867017479E-01  0.00000000000E+00 0. -1.
</event>
<event>
 5   0  0.4143600E+04  0.9118800E+02  0.7546771E-02  0.1180000E+00
      -11   -1    0    0    0    0  0.00000000000E+00  0.00000000000E+00  0.34996269501E-01  0.35000000000E-01  0.51099999109E-03 0.  1.
       11   -1    0    0    0    0 -0.00000000000E+00 -0.00000000000E+00 -0.34996269501E-01  0.35000000000E-01  0.51099999109E-03 0. -1.
       22    1    1    2    0    0  0.51385714967E-03  0.44892064533E-03 -0.54072198944E-03  0.87060851474E-03  0.00000000000E+00 0. -1.
       22    1    1    2    0    0 -0.28197596236E-03 -0.23173864185E-01  0.26115600444E-01  0.34916071919E-01  0.00000000000E+00 0.  1.
       22    1    1    2    0    0 -0.23188118731E-03  0.22724943540E-01 -0.25574878454E-01  0.34213319566E-01  0.00000000000E+00 0. -1.
</event>
<event>
 5   0  0.4143600E+04  0.9118800E+02  0.7546771E-02  0.1180000E+00
      -11   -1    0    0    0    0  0.00000000000E+00  0.00000000000E+00  0.34996269501E-01  0.35000000000E-01  0.51099999109E-03 0. -1.
       11   -1    0    0    0    0 -0.00000000000E+00 -0.00000000000E+00 -0.34996269501E-01  0.35000000000E-01  0.51099999109E-03 0.  1.
       22    1    1    2    0    0 -0.13491477974E-02  0.13917617108E-02 -0.21024525392E-01  0.21113689124E-01  0.00000000000E+00 0.  1.
       22    1    1    2    0    0  0.62656775558E-02  0.11719822425E-02 -0.12965115239E-01  0.14447368991E-01  0.00000000000E+00 0.  1.
       22    1    1    2    0    0 -0.49165297583E-02 -0.25637439533E-02  0.33989640631E-01  0.34438941885E-01  0.00000000000E+00 0. -1.
</event>
<event>
 5   0  0.4143600E+04  0.9118800E+02  0.7546771E-02  0.1180000E+00
      -11   -1    0    0    0    0  0.00000000000E+00  0.00000000000E+00  0.34996269501E-01  0.35000000000E-01  0.51099999109E-03 0.  1.
       11   -1    0    0    0    0 -0.00000000000E+00 -0.00000000000E+00 -0.34996269501E-01  0.35000000000E-01  0.51099999109E-03 0.  1.
       22    1    1    2    0    0  0.49601923418E-03 -0.11483669914E-02 -0.30147021197E-01  0.30172962547E-01  0.00000000000E+00 0.  1.
       22    1    1    2    0    0 -0.76756437348E-03 -0.22837213374E-02 -0.44493588108E-02  0.50597758885E-02  0.00000000000E+00 0. -1.
       22    1    1    2    0    0  0.27154513930E-03  0.34320883288E-02  0.34596380008E-01  0.34767261564E-01  0.00000000000E+00 0.  1.
</event>
<event>
 5   0  0.4143600E+04  0.9118800E+02  0.7546771E-02  0.1180000E+00
      -11   -1    0    0    0    0  0.00000000000E+00  0.00000000000E+00  0.34996269501E-01  0.35000000000E-01  0.51099999109E-03 0. -1.
       11   -1    0    0    0    0 -0.00000000000E+00 -0.00000000000E+00 -0.34996269501E-01  0.35000000000E-01  0.51099999109E-03 0.  1.
       22    1    1    2    0    0 -0.76586987102E-04  0.55958431370E-02 -0.52981996507E-02  0.77065067001E-02  0.00000000000E+00 0.  1.
       22    1    1    2    0    0 -0.57639103161E-02  0.13544864806E-01  0.28242305946E-01  0.31848294615E-01  0.00000000000E+00 0. -1.
       22    1    1    2    0    0  0.58404973032E-02 -0.19140707943E-01 -0.22944106295E-01  0.30445198685E-01  0.00000000000E+00 0.  1.
</event>
<event>
 5   0  0.4143600E+04  0.9118800E+02  0.7546771E-02  0.1180000E+00
      -11   -1    0    0    0    0  0.00000000000E+00  0.00000000000E+00  0.34996269501E-01  0.35000000000E-01  0.51099999109E-03 0. -1.
       11   -1    0    0    0    0 -0.00000000000E+00 -0.00000000000E+00 -0.34996269501E-01  0.35000000000E-01  0.51099999109E-03 0.  1.
       22    1    1    2    0    0  0.16947564027E-01 -0.92672021779E-02 -0.28673645167E-01  0.34572805640E-01  0.00000000000E+00 0.  1.
       22    1    1    2    0    0  0.44989795162E-03  0.33383472302E-04 -0.18522792876E-03  0.48768023200E-03  0.00000000000E+00 0.  1.
       22    1    1    2    0    0 -0.17397461979E-01  0.92338187056E-02  0.28858873095E-01  0.34939514128E-01  0.00000000000E+00 0. -1.
</event>
<event>
 5   0  0.4143600E+04  0.9118800E+02  0.7546771E-02  0.1180000E+00
      -11   -1    0    0    0    0  0.00000000000E+00  0.00000000000E+00  0.34996269501E-01  0.35000000000E-01  0.51099999109E-03 0. -1.
       11   -1    0    0    0    0 -0.00000000000E+00 -0.00000000000E+00 -0.34996269501E-01  0.35000000000E-01  0.51099999109E-03 0.  1.
       22    1    1    2    0    0  0.22853428050E-06  0.11390266352E-04  0.38708241275E-03  0.38725002861E-03  0.00000000000E+00 0.  1.
       22    1    1    2    0    0  0.11977230095E-01 -0.45316561392E-02 -0.32559229674E-01  0.34987045961E-01  0.00000000000E+00 0.  1.
       22    1    1    2    0    0 -0.11977458629E-01  0.45202658728E-02  0.32172147262E-01  0.34625704010E-01  0.00000000000E+00 0. -1.
</event>
<event>
 5   0  0.4143600E+04  0.9118800E+02  0.7546771E-02  0.1180000E+00
      -11   -1    0    0    0    0  0.00000000000E+00  0.00000000000E+00  0.34996269501E-01  0.35000000000E-01  0.51099999109E-03 0.  1.
       11   -1    0    0    0    0 -0.00000000000E+00 -0.00000000000E+00 -0.34996269501E-01  0.35000000000E-01  0.51099999109E-03 0. -1.
       22    1    1    2    0    0 -0.11522953657E-01  0.76191981231E-02  0.29192057690E-01  0.32295616935E-01  0.00000000000E+00 0.  1.
       22    1    1    2    0    0  0.12983555661E-01 -0.45308005661E-02 -0.30946222173E-01  0.33863985857E-01  0.00000000000E+00 0. -1.
       22    1    1    2    0    0 -0.14606020032E-02 -0.30883975570E-02  0.17541644830E-02  0.38403972080E-02  0.00000000000E+00 0. -1.
</event>
<event>
 5   0  0.4143600E+04  0.9118800E+02  0.7546771E-02  0.1180000E+00
      -11   -1    0    0    0    0  0.00000000000E+00  0.00000000000E+00  0.34996269501E-01  0.35000000000E-01  0.51099999109E-03 0.  1.
       11   -1    0    0    0    0 -0.00000000000E+00 -0.00000000000E+00 -0.34996269501E-01  0.35000000000E-01  0.51099999109E-03 0.  1.
       22    1    1    2    0    0  0.80180379743E-03  0.18771380242E-01  0.82077889796E-02  0.20503058442E-01  0.00000000000E+00 0. -1.
       22    1    1    2    0    0 -0.80180379743E-03 -0.18771380242E-01 -0.25794563152E-01  0.31911864466E-01  0.00000000000E+00 0.  1.
       22    1    1    2    0    0 -0.00000000000E+00  0.00000000000E+00  0.17586774172E-01  0.17585077092E-01  0.00000000000E+00 0.  1.
</event>
<event>
 5   0  0.4143600E+04  0.9118800E+02  0.7546771E-02  0.1180000E+00
      -11   -1    0    0    0    0  0.00000000000E+00  0.00000000000E+00  0.34996269501E-01  0.35000000000E-01  0.51099999109E-03 0. -1.
       11   -1    0    0    0    0 -0.00000000000E+00 -0.00000000000E+00 -0.34996269501E-01  0.35000000000E-01  0.51099999109E-03 0.  1.
       22    1    1    2    0    0  0.11897935942E-04  0.14867805987E-03 -0.39295429028E-03  0.42030917265E-03  0.00000000000E+00 0.  1.
       22    1    1    2    0    0 -0.21064165237E-02 -0.31118586376E-02 -0.34396675763E-01  0.34601328852E-01  0.00000000000E+00 0.  1.
       22    1    1    2    0    0  0.20945185878E-02  0.29631805777E-02  0.34789630053E-01  0.34978361976E-01  0.00000000000E+00 0. -1.
</event>
<event>
 5   0  0.4143600E+04  0.9118800E+02  0.7546771E-02  0.1180000E+00
      -11   -1    0    0    0    0  0.00000000000E+00  0.00000000000E+00  0.34996269501E-01  0.35000000000E-01  0.51099999109E-03 0.  1.
       11   -1    0    0    0    0 -0.00000000000E+00 -0.00000000000E+00 -0.34996269501E-01  0.35000000000E-01  0.51099999109E-03 0. -1.
       22    1    1    2    0    0 -0.24729956421E-03  0.32829009130E-03  0.89889327197E-02  0.89983244495E-02  0.00000000000E+00 0.  1.
       22    1    1    2    0    0  0.74621194912E-02 -0.20812020667E-01  0.16446965311E-01  0.27555872323E-01  0.00000000000E+00 0.  1.
       22    1    1    2    0    0 -0.72148199270E-02  0.20483730576E-01 -0.25435898031E-01  0.33445803227E-01  0.00000000000E+00 0. -1.
</event>
<event>
 5   0  0.4143600E+04  0.9118800E+02  0.7546771E-02  0.1180000E+00
      -11   -1    0    0    0    0  0.00000000000E+00  0.00000000000E+00  0.34996269501E-01  0.35000000000E-01  0.51099999109E-03 0. -1.
       11   -1    0    0    0    0 -0.00000000000E+00 -0.00000000000E+00 -0.34996269501E-01  0.35000000000E-01  0.51099999109E-03 0.  1.
       22    1    1    2    0    0  0.13120895068E-01 -0.10506969429E-01 -0.23176778429E-01  0.28630706459E-01  0.00000000000E+00 0.  1.
       22    1    1    2    0    0 -0.13028786728E-01  0.11266485168E-01  0.29951744049E-01  0.34551265436E-01  0.00000000000E+00 0. -1.
       22    1    1    2    0    0 -0.92108339770E-04 -0.75951573841E-03 -0.67749656198E-02  0.68180281059E-02  0.00000000000E+00 0. -1.
</event>
<event>
 5   0  0.4143600E+04  0.9118800E+02  0.7546771E-02  0.1180000E+00
      -11   -1    0    0    0    0  0.00000000000E+00  0.00000000000E+00  0.34996269501E-01  0.35000000000E-01  0.51099999109E-03 0. -1.
       11   -1    0    0    0    0 -0.00000000000E+00 -0.00000000000E+00 -0.34996269501E-01  0.35000000000E-01  0.51099999109E-03 0.  1.
       22    1    1    2    0    0 -0.14695296705E-01  0.77026211320E-02 -0.30752328837E-01  0.34942636513E-01  0.00000000000E+00 0.  1.
       22    1    1    2    0    0  0.14823023355E-01 -0.76977949119E-02  0.30476114165E-01  0.34753008539E-01  0.00000000000E+00 0. -1.
       22    1    1    2    0    0 -0.12772664989E-03 -0.48262200905E-05  0.27621467225E-03  0.30435494847E-03  0.00000000000E+00 0.  1.
</event>
<event>
 5   0  0.4143600E+04  0.9118800E+02  0.7546771E-02  0.1180000E+00
      -11   -1    0    0    0    0  0.00000000000E+00  0.00000000000E+00  0.34996269501E-01  0.35000000000E-01  0.51099999109E-03 0. -1.
       11   -1    0    0    0    0 -0.00000000000E+00 -0.00000000000E+00 -0.34996269501E-01  0.35000000000E-01  0.51099999109E-03 0.  1.
       22    1    1    2    0    0 -0.25741271535E-03 -0.19109969989E-02  0.49621463287E-03  0.19910800581E-02  0.00000000000E+00 0. -1.
       22    1    1    2    0    0  0.50257655544E-02 -0.14334512148E-01  0.29717592367E-01  0.33374718786E-01  0.00000000000E+00 0. -1.
       22    1    1    2    0    0 -0.47683528391E-02  0.16245509147E-01 -0.30213807000E-01  0.34634201156E-01  0.00000000000E+00 0.  1.
</event>
<event>
 5   0  0.4143600E+04  0.9118800E+02  0.7546771E-02  0.1180000E+00
      -11   -1    0    0    0    0  0.00000000000E+00  0.00000000000E+00  0.34996269501E-01  0.35000000000E-01  0.51099999109E-03 0.  1.
       11   -1    0    0    0    0 -0.00000000000E+00 -0.00000000000E+00 -0.34996269501E-01  0.35000000000E-01  0.51099999109E-03 0. -1.
       22    1    1    2    0    0  0.53160196022E-03 -0.23106540765E-03 -0.97578540714E-03  0.11349665315E-02  0.00000000000E+00 0. -1.
       22    1    1    2    0    0 -0.58658766809E-03  0.26229725946E-02 -0.33850311550E-01  0.33956850006E-01  0.00000000000E+00 0. -1.
       22    1    1    2    0    0  0.54985707866E-04 -0.23919071869E-02  0.34826096957E-01  0.34908183463E-01  0.00000000000E+00 0.  1.
</event>
<event>
 5   0  0.4143600E+04  0.9118800E+02  0.7546771E-02  0.1180000E+00
      -11   -1    0    0    0    0  0.00000000000E+00  0.00000000000E+00  0.34996269501E-01  0.35000000000E-01  0.51099999109E-03 0. -1.
       11   -1    0    0    0    0 -0.00000000000E+00 -0.00000000000E+00 -0.34996269501E-01  0.35000000000E-01  0.51099999109E-03 0.  1.
       22    1    1    2    0    0  0.34182494985E-02  0.92198929519E-02 -0.32467939905E-01  0.33924297743E-01  0.00000000000E+00 0.  1.
       22    1    1    2    0    0  0.31752242537E-04  0.49575008597E-03 -0.96706435448E-03  0.10871935515E-02  0.00000000000E+00 0. -1.
       22    1    1    2    0    0 -0.34500017410E-02 -0.97156430379E-02  0.33435004259E-01  0.34988508706E-01  0.00000000000E+00 0. -1.
</event>
<event>
 5   0  0.4143600E+04  0.9118800E+02  0.7546771E-02  0.1180000E+00
      -11   -1    0    0    0    0  0.00000000000E+00  0.00000000000E+00  0.34996269501E-01  0.35000000000E-01  0.51099999109E-03 0.  1.
       11   -1    0    0    0    0 -0.00000000000E+00 -0.00000000000E+00 -0.34996269501E-01  0.35000000000E-01  0.51099999109E-03 0. -1.
       22    1    1    2    0    0 -0.16515245664E-01  0.56621725231E-02 -0.26900187936E-01  0.32069200926E-01  0.00000000000E+00 0. -1.
       22    1    1    2    0    0  0.46228508611E-03 -0.28886867000E-04 -0.32656372688E-02  0.32983221072E-02  0.00000000000E+00 0.  1.
       22    1    1    2    0    0  0.16052960577E-01 -0.56332856561E-02  0.30165825205E-01  0.34632476967E-01  0.00000000000E+00 0.  1.
</event>
<event>
 5   0  0.4143600E+04  0.9118800E+02  0.7546771E-02  0.1180000E+00
      -11   -1    0    0    0    0  0.00000000000E+00  0.00000000000E+00  0.34996269501E-01  0.35000000000E-01  0.51099999109E-03 0.  1.
       11   -1    0    0    0    0 -0.00000000000E+00 -0.00000000000E+00 -0.34996269501E-01  0.35000000000E-01  0.51099999109E-03 0. -1.
       22    1    1    2    0    0  0.82206755460E-03  0.58986979394E-02  0.34429710307E-01  0.34941027235E-01  0.00000000000E+00 0.  1.
       22    1    1    2    0    0 -0.20187400574E-03  0.19456176248E-03 -0.43918569547E-03  0.52104843222E-03  0.00000000000E+00 0. -1.
       22    1    1    2    0    0 -0.62019354885E-03 -0.60932597018E-02 -0.33990524611E-01  0.34537924332E-01  0.00000000000E+00 0. -1.
</event>
<event>
 5   0  0.4143600E+04  0.9118800E+02  0.7546771E-02  0.1180000E+00
      -11   -1    0    0    0    0  0.00000000000E+00  0.00000000000E+00  0.34996269501E-01  0.35000000000E-01  0.51099999109E-03 0.  1.
       11   -1    0    0    0    0 -0.00000000000E+00 -0.00000000000E+00 -0.34996269501E-01  0.35000000000E-01  0.51099999109E-03 0.  1.
       22    1    1    2    0    0 -0.12347580145E-01 -0.19062143490E-02 -0.31194809847E-01  0.33603757974E-01  0.00000000000E+00 0.  1.
       22    1    1    2    0    0 -0.00000000000E+00  0.00000000000E+00  0.18791219750E-01  0.18790974749E-01  0.00000000000E+00 0.  1.
       22    1    1    2    0    0  0.12347580145E-01  0.19062143490E-02  0.12403590097E-01  0.17605267277E-01  0.00000000000E+00 0. -1.
</event>
<event>
 5   0  0.4143600E+04  0.9118800E+02  0.7546771E-02  0.1180000E+00
      -11   -1    0    0    0    0  0.00000000000E+00  0.00000000000E+00  0.34996269501E-01  0.35000000000E-01  0.51099999109E-03 0.  1.
       11   -1    0    0    0    0 -0.00000000000E+00 -0.00000000000E+00 -0.34996269501E-01  0.35000000000E-01  0.51099999109E-03 0.  1.
       22    1    1    2    0    0 -0.26357477119E-03  0.46999423193E-03  0.34940447864E-01  0.34944602776E-01  0.00000000000E+00 0.  1.
       22    1    1    2    0    0  0.26289071050E-03  0.17674986458E-03 -0.33153489284E-01  0.33155002695E-01  0.00000000000E+00 0.  1.
       22    1    1    2    0    0  0.68406068289E-06 -0.64674409651E-03 -0.17869585807E-02  0.19003945283E-02  0.00000000000E+00 0. -1.
</event>
<event>
 5   0  0.4143600E+04  0.9118800E+02  0.7546771E-02  0.1180000E+00
      -11   -1    0    0    0    0  0.00000000000E+00  0.00000000000E+00  0.34996269501E-01  0.35000000000E-01  0.51099999109E-03 0. -1.
       11   -1    0    0    0    0 -0.00000000000E+00 -0.00000000000E+00 -0.34996269501E-01  0.35000000000E-01  0.51099999109E-03 0. -1.
       22    1    1    2    0    0 -0.48783674781E-04 -0.61742530291E-03 -0.29930347770E-01  0.29936755193E-01  0.00000000000E+00 0. -1.
       22    1    1    2    0    0  0.12120570154E-02  0.17089813750E-02 -0.48307656015E-02  0.52655480100E-02  0.00000000000E+00 0.  1.
       22    1    1    2    0    0 -0.11632733406E-02 -0.10915560721E-02  0.34761113372E-01  0.34797696797E-01  0.00000000000E+00 0. -1.
</event>
<event>
 5   0  0.4143600E+04  0.9118800E+02  0.7546771E-02  0.1180000E+00
      -11   -1    0    0    0    0  0.00000000000E+00  0.00000000000E+00  0.34996269501E-01  0.35000000000E-01  0.51099999109E-03 0. -1.
       11   -1    0    0    0    0 -0.00000000000E+00 -0.00000000000E+00 -0.34996269501E-01  0.35000000000E-01  0.51099999109E-03 0.  1.
       22    1    1    2    0    0 -0.15738259005E-01  0.24465907570E-02  0.30970310987E-01  0.34825834742E-01  0.00000000000E+00 0. -1.
       22    1    1    2    0    0  0.16004110568E-01 -0.22441662495E-02 -0.30835732551E-01  0.34813937427E-01  0.00000000000E+00 0.  1.
       22    1    1    2    0    0 -0.26585156221E-03 -0.20242450741E-03 -0.13457843588E-03  0.36022783031E-03  0.00000000000E+00 0.  1.
</event>
<event>
 5   0  0.4143600E+04  0.9118800E+02  0.7546771E-02  0.1180000E+00
      -11   -1    0    0    0    0  0.00000000000E+00  0.00000000000E+00  0.34996269501E-01  0.35000000000E-01  0.51099999109E-03 0. -1.
       11   -1    0    0    0    0 -0.00000000000E+00 -0.00000000000E+00 -0.34996269501E-01  0.35000000000E-01  0.51099999109E-03 0.  1.
       22    1    1    2    0    0  0.16813382450E-02 -0.13526767442E-01 -0.82443874375E-03  0.13655769293E-01  0.00000000000E+00 0. -1.
       22    1    1    2    0    0 -0.10703040440E-02  0.13682641504E-01 -0.26059638543E-01  0.29452758619E-01  0.00000000000E+00 0.  1.
       22    1    1    2    0    0 -0.61103420100E-03 -0.15587406128E-03  0.26884077287E-01  0.26891472088E-01  0.00000000000E+00 0. -1.
</event>
<event>
 5   0  0.4143600E+04  0.9118800E+02  0.7546771E-02  0.1180000E+00
      -11   -1    0    0    0    0  0.00000000000E+00  0.00000000000E+00  0.34996269501E-01  0.35000000000E-01  0.51099999109E-03 0.  1.
       11   -1    0    0    0    0 -0.00000000000E+00 -0.00000000000E+00 -0.34996269501E-01  0.35000000000E-01  0.51099999109E-03 0. -1.
       22    1    1    2    0    0 -0.17144366277E-02  0.79696140631E-03  0.23526410813E-02  0.30181717133E-02  0.00000000000E+00 0. -1.
       22    1    1    2    0    0  0.21918911925E-01  0.12823632139E-02 -0.27156954671E-01  0.34922533448E-01  0.00000000000E+00 0. -1.
       22    1    1    2    0    0 -0.20204475298E-01 -0.20793246202E-02  0.24804313590E-01  0.32059294839E-01  0.00000000000E+00 0.  1.
</event>
<event>
 5   0  0.4143600E+04  0.9118800E+02  0.7546771E-02  0.1180000E+00
      -11   -1    0    0    0    0  0.00000000000E+00  0.00000000000E+00  0.34996269501E-01  0.35000000000E-01  0.51099999109E-03 0. -1.
       11   -1    0    0    0    0 -0.00000000000E+00 -0.00000000000E+00 -0.34996269501E-01  0.35000000000E-01  0.51099999109E-03 0. -1.
       22    1    1    2    0    0  0.99994681386E-03  0.42098209117E-03 -0.24517443699E-02  0.26810762777E-02  0.00000000000E+00 0.  1.
       22    1    1    2    0    0 -0.87295812857E-03 -0.80017166166E-03  0.34874051136E-01  0.34894150988E-01  0.00000000000E+00 0. -1.
       22    1    1    2    0    0 -0.12698868529E-03  0.37918957049E-03 -0.32422306766E-01  0.32424772734E-01  0.00000000000E+00 0. -1.
</event>
<event>
 5   0  0.4143600E+04  0.9118800E+02  0.7546771E-02  0.1180000E+00
      -11   -1    0    0    0    0  0.00000000000E+00  0.00000000000E+00  0.34996269501E-01  0.35000000000E-01  0.51099999109E-03 0. -1.
       11   -1    0    0    0    0 -0.00000000000E+00 -0.00000000000E+00 -0.34996269501E-01  0.35000000000E-01  0.51099999109E-03 0.  1.
       22    1    1    2    0    0 -0.67402989854E-02 -0.11429063509E-01 -0.29752062020E-01  0.32576683648E-01  0.00000000000E+00 0.  1.
       22    1    1    2    0    0  0.74168663407E-02  0.11561103905E-01  0.32132438528E-01  0.34945137510E-01  0.00000000000E+00 0. -1.
       22    1    1    2    0    0 -0.67656735532E-03 -0.13204039606E-03 -0.23803765081E-02  0.24781788420E-02  0.00000000000E+00 0.  1.
</event>
<event>
 5   0  0.4143600E+04  0.9118800E+02  0.7546771E-02  0.1180000E+00
      -11   -1    0    0    0    0  0.00000000000E+00  0.00000000000E+00  0.34996269501E-01  0.35000000000E-01  0.51099999109E-03 0. -1.
       11   -1    0    0    0    0 -0.00000000000E+00 -0.00000000000E+00 -0.34996269501E-01  0.35000000000E-01  0.51099999109E-03 0.  1.
       22    1    1    2    0    0  0.20042511514E-01  0.79605154605E-02  0.26855450831E-01  0.34442521881E-01  0.00000000000E+00 0. -1.
       22    1    1    2    0    0  0.71341510102E-03 -0.61195341114E-03 -0.16041913721E-03  0.95351055755E-03  0.00000000000E+00 0.  1.
       22    1    1    2    0    0 -0.20755926615E-01 -0.73485620493E-02 -0.26695031694E-01  0.34603967561E-01  0.00000000000E+00 0.  1.
</event>
<event>
 5   0  0.4143600E+04  0.9118800E+02  0.7546771E-02  0.1180000E+00
      -11   -1    0    0    0    0  0.00000000000E+00  0.00000000000E+00  0.34996269501E-01  0.35000000000E-01  0.51099999109E-03 0. -1.
       11   -1    0    0    0    0 -0.00000000000E+00 -0.00000000000E+00 -0.34996269501E-01  0.35000000000E-01  0.51099999109E-03 0.  1.
       22    1    1    2    0    0  0.14024293490E-02  0.57152953826E-02  0.32298757628E-01  0.32830491219E-01  0.00000000000E+00 0. -1.
       22    1    1    2    0    0 -0.60650791478E-02 -0.97410705535E-02 -0.25682840248E-01  0.28129733803E-01  0.00000000000E+00 0.  1.
       22    1    1    2    0    0  0.46626497988E-02  0.40257751709E-02 -0.66159173796E-02  0.90397749776E-02  0.00000000000E+00 0.  1.
</event>
<event>
 5   0  0.4143600E+04  0.9118800E+02  0.7546771E-02  0.1180000E+00
      -11   -1    0    0    0    0  0.00000000000E+00  0.00000000000E+00  0.34996269501E-01  0.35000000000E-01  0.51099999109E-03 0.  1.
       11   -1    0    0    0    0 -0.00000000000E+00 -0.00000000000E+00 -0.34996269501E-01  0.35000000000E-01  0.51099999109E-03 0. -1.
       22    1    1    2    0    0  0.12206589861E-01 -0.46339206602E-02 -0.32438840692E-01  0.34967877290E-01  0.00000000000E+00 0. -1.
       22    1    1    2    0    0 -0.14193511563E-03  0.31879184761E-04  0.14968713458E-02  0.15039234307E-02  0.00000000000E+00 0. -1.
       22    1    1    2    0    0 -0.12064654745E-01  0.46020414755E-02  0.30941969346E-01  0.33528199279E-01  0.00000000000E+00 0.  1.
</event>
<event>
 5   0  0.4143600E+04  0.9118800E+02  0.7546771E-02  0.1180000E+00
      -11   -1    0    0    0    0  0.00000000000E+00  0.00000000000E+00  0.34996269501E-01  0.35000000000E-01  0.51099999109E-03 0. -1.
       11   -1    0    0    0    0 -0.00000000000E+00 -0.00000000000E+00 -0.34996269501E-01  0.35000000000E-01  0.51099999109E-03 0.  1.
       22    1    1    2    0    0 -0.25794340905E-02  0.65444940003E-03  0.34774239638E-01  0.34875916141E-01  0.00000000000E+00 0. -1.
       22    1    1    2    0    0  0.11551045065E-02 -0.58349533065E-03 -0.24708900237E-02  0.27892706450E-02  0.00000000000E+00 0.  1.
       22    1    1    2    0    0  0.14243295841E-02 -0.70954069377E-04 -0.32303349615E-01  0.32334813214E-01  0.00000000000E+00 0.  1.
</event>
<event>
 5   0  0.4143600E+04  0.9118800E+02  0.7546771E-02  0.1180000E+00
      -11   -1    0    0    0    0  0.00000000000E+00  0.00000000000E+00  0.34996269501E-01  0.35000000000E-01  0.51099999109E-03 0.  1.
       11   -1    0    0    0    0 -0.00000000000E+00 -0.00000000000E+00 -0.34996269501E-01  0.35000000000E-01  0.51099999109E-03 0. -1.
       22    1    1    2    0    0  0.63599637193E-02 -0.13073167967E-01 -0.12319163681E-01  0.19055672463E-01  0.00000000000E+00 0. -1.
       22    1    1    2    0    0 -0.63745483416E-02  0.20256306219E-01  0.27148247684E-01  0.34467088077E-01  0.00000000000E+00 0.  1.
       22    1    1    2    0    0  0.14584622270E-04 -0.71831382517E-02 -0.14829084003E-01  0.16477239460E-01  0.00000000000E+00 0. -1.
</event>
<event>
 5   0  0.4143600E+04  0.9118800E+02  0.7546771E-02  0.1180000E+00
      -11   -1    0    0    0    0  0.00000000000E+00  0.00000000000E+00  0.34996269501E-01  0.35000000000E-01  0.51099999109E-03 0. -1.
       11   -1    0    0    0    0 -0.00000000000E+00 -0.00000000000E+00 -0.34996269501E-01  0.35000000000E-01  0.51099999109E-03 0.  1.
       22    1    1    2    0    0 -0.18195692755E-01  0.12145415308E-03 -0.29543050812E-01  0.34697115690E-01  0.00000000000E+00 0.  1.
       22    1    1    2    0    0  0.11583719057E-03  0.25087731244E-04 -0.34874993844E-03  0.36833974608E-03  0.00000000000E+00 0. -1.
       22    1    1    2    0    0  0.18079855565E-01 -0.14654188433E-03  0.29891800750E-01  0.34934544564E-01  0.00000000000E+00 0. -1.
</event>
<event>
 5   0  0.4143600E+04  0.9118800E+02  0.7546771E-02  0.1180000E+00
      -11   -1    0    0    0    0  0.00000000000E+00  0.00000000000E+00  0.34996269501E-01  0.35000000000E-01  0.51099999109E-03 0. -1.
       11   -1    0    0    0    0 -0.00000000000E+00 -0.00000000000E+00 -0.34996269501E-01  0.35000000000E-01  0.51099999109E-03 0.  1.
       22    1    1    2    0    0  0.55776098855E-02 -0.91034017604E-02  0.13822217988E-01  0.17465261686E-01  0.00000000000E+00 0. -1.
       22    1    1    2    0    0 -0.71836314620E-02  0.12429580791E-01 -0.31424823642E-01  0.34548785515E-01  0.00000000000E+00 0.  1.
       22    1    1    2    0    0  0.16060215765E-02 -0.33261790311E-02  0.17602605654E-01  0.17985952799E-01  0.00000000000E+00 0. -1.
</event>
<event>
 5   0  0.4143600E+04  0.9118800E+02  0.7546771E-02  0.1180000E+00
      -11   -1    0    0    0    0  0.00000000000E+00  0.00000000000E+00  0.34996269501E-01  0.35000000000E-01  0.51099999109E-03 0. -1.
       11   -1    0    0    0    0 -0.00000000000E+00 -0.00000000000E+00 -0.34996269501E-01  0.35000000000E-01  0.51099999109E-03 0.  1.
       22    1    1    2    0    0 -0.18432517425E-03  0.35171329982E-04 -0.22164385884E-02  0.22243679571E-02  0.00000000000E+00 0. -1.
       22    1    1    2    0    0  0.63294212143E-02 -0.99243818757E-02 -0.30690129718E-01  0.32870031801E-01  0.00000000000E+00 0.  1.
       22    1    1    2    0    0 -0.61450960401E-02  0.98892105457E-02  0.32906568306E-01  0.34905600242E-01  0.00000000000E+00 0. -1.
</event>
<event>
 5   0  0.4143600E+04  0.9118800E+02  0.7546771E-02  0.1180000E+00
      -11   -1    0    0    0    0  0.00000000000E+00  0.00000000000E+00  0.34996269501E-01  0.35000000000E-01  0.51099999109E-03 0.  1.
       11   -1    0    0    0    0 -0.00000000000E+00 -0.00000000000E+00 -0.34996269501E-01  0.35000000000E-01  0.51099999109E-03 0. -1.
       22    1    1    2    0    0  0.27033371464E-02 -0.42488208995E-02 -0.34029844849E-01  0.34400448416E-01  0.00000000000E+00 0. -1.
       22    1    1    2    0    0  0.78601396914E-04 -0.33144357622E-03 -0.52817724204E-03  0.62849361399E-03  0.00000000000E+00 0. -1.
       22    1    1    2    0    0 -0.27819385434E-02  0.45802644757E-02  0.34558022091E-01  0.34971057970E-01  0.00000000000E+00 0.  1.
</event>
<event>
 5   0  0.4143600E+04  0.9118800E+02  0.7546771E-02  0.1180000E+00
      -11   -1    0    0    0    0  0.00000000000E+00  0.00000000000E+00  0.34996269501E-01  0.35000000000E-01  0.51099999109E-03 0.  1.
       11   -1    0    0    0    0 -0.00000000000E+00 -0.00000000000E+00 -0.34996269501E-01  0.35000000000E-01  0.51099999109E-03 0. -1.
       22    1    1    2    0    0  0.13291934056E-02 -0.55082354957E-02  0.25032689960E-01  0.25665988779E-01  0.00000000000E+00 0.  1.
       22    1    1    2    0    0 -0.42147259632E-02  0.10977217167E-01 -0.32545038880E-01  0.34604085992E-01  0.00000000000E+00 0. -1.
       22    1    1    2    0    0  0.28855325576E-02 -0.54689816708E-02  0.75123489204E-02  0.97299252288E-02  0.00000000000E+00 0.  1.
</event>
<event>
 5   0  0.4143600E+04  0.9118800E+02  0.7546771E-02  0.1180000E+00
      -11   -1    0    0    0    0  0.00000000000E+00  0.00000000000E+00  0.34996269501E-01  0.35000000000E-01  0.51099999109E-03 0.  1.
       11   -1    0    0    0    0 -0.00000000000E+00 -0.00000000000E+00 -0.34996269501E-01  0.35000000000E-01  0.51099999109E-03 0. -1.
       22    1    1    2    0    0  0.81517663478E-03 -0.92739287039E-03  0.89099454681E-02  0.89950930360E-02  0.00000000000E+00 0.  1.
       22    1    1    2    0    0  0.29024052076E-02 -0.10409186098E-01  0.23826336730E-01  0.26162366735E-01  0.00000000000E+00 0.  1.
       22    1    1    2    0    0 -0.37175818424E-02  0.11336578969E-01 -0.32736282198E-01  0.34842540229E-01  0.00000000000E+00 0. -1.
</event>
<event>
 5   0  0.4143600E+04  0.9118800E+02  0.7546771E-02  0.1180000E+00
      -11   -1    0    0    0    0  0.00000000000E+00  0.00000000000E+00  0.34996269501E-01  0.35000000000E-01  0.51099999109E-03 0. -1.
       11   -1    0    0    0    0 -0.00000000000E+00 -0.00000000000E+00 -0.34996269501E-01  0.35000000000E-01  0.51099999109E-03 0.  1.
       22    1    1    2    0    0 -0.98778448287E-02 -0.84150535269E-02 -0.32484423118E-01  0.34980318604E-01  0.00000000000E+00 0.  1.
       22    1    1    2    0    0  0.98853604156E-02  0.84023521972E-02  0.31930848699E-01  0.34465910283E-01  0.00000000000E+00 0. -1.
       22    1    1    2    0    0 -0.75155869127E-05  0.12701329728E-04  0.55357441904E-03  0.55377111268E-03  0.00000000000E+00 0.  1.
</event>
<event>
 5   0  0.4143600E+04  0.9118800E+02  0.7546771E-02  0.1180000E+00
      -11   -1    0    0    0    0  0.00000000000E+00  0.00000000000E+00  0.34996269501E-01  0.35000000000E-01  0.51099999109E-03 0. -1.
       11   -1    0    0    0    0 -0.00000000000E+00 -0.00000000000E+00 -0.34996269501E-01  0.35000000000E-01  0.51099999109E-03 0.  1.
       22    1    1    2    0    0  0.40985324601E-02 -0.61728135687E-02 -0.21005833257E-01  0.22274349070E-01  0.00000000000E+00 0.  1.
       22    1    1    2    0    0 -0.76262019261E-03  0.50840472293E-02  0.33938350569E-01  0.34325511870E-01  0.00000000000E+00 0. -1.
       22    1    1    2    0    0 -0.33359122675E-02  0.10887663394E-02 -0.12932517312E-01  0.13400139060E-01  0.00000000000E+00 0. -1.
</event>
<event>
 5   0  0.4143600E+04  0.9118800E+02  0.7546771E-02  0.1180000E+00
      -11   -1    0    0    0    0  0.00000000000E+00  0.00000000000E+00  0.34996269501E-01  0.35000000000E-01  0.51099999109E-03 0.  1.
       11   -1    0    0    0    0 -0.00000000000E+00 -0.00000000000E+00 -0.34996269501E-01  0.35000000000E-01  0.51099999109E-03 0.  1.
       22    1    1    2    0    0 -0.33299354017E-02 -0.35991147288E-02 -0.20956215465E-01  0.21522199312E-01  0.00000000000E+00 0.  1.
       22    1    1    2    0    0  0.46128539993E-02  0.57921502497E-02 -0.12713372385E-01  0.14712486667E-01  0.00000000000E+00 0. -1.
       22    1    1    2    0    0 -0.12829185976E-02 -0.21930355209E-02  0.33669587850E-01  0.33765314021E-01  0.00000000000E+00 0.  1.
</event>
<event>
 5   0  0.4143600E+04  0.9118800E+02  0.7546771E-02  0.1180000E+00
      -11   -1    0    0    0    0  0.00000000000E+00  0.00000000000E+00  0.34996269501E-01  0.35000000000E-01  0.51099999109E-03 0.  1.
       11   -1    0    0    0    0 -0.00000000000E+00 -0.00000000000E+00 -0.34996269501E-01  0.35000000000E-01  0.51099999109E-03 0. -1.
       22    1    1    2    0    0 -0.16338678621E-01  0.63659312333E-02 -0.30088006436E-01  0.34824784720E-01  0.00000000000E+00 0. -1.
       22    1    1    2    0    0  0.16497323031E-01 -0.60275322883E-02  0.27991662915E-01  0.33045816762E-01  0.00000000000E+00 0.  1.
       22    1    1    2    0    0 -0.15864441004E-03 -0.33839894494E-03  0.20963435202E-02  0.21293985182E-02  0.00000000000E+00 0. -1.
</event>
<event>
 5   0  0.4143600E+04  0.9118800E+02  0.7546771E-02  0.1180000E+00
      -11   -1    0    0    0    0  0.00000000000E+00  0.00000000000E+00  0.34996269501E-01  0.35000000000E-01  0.51099999109E-03 0. -1.
       11   -1    0    0    0    0 -0.00000000000E+00 -0.00000000000E+00 -0.34996269501E-01  0.35000000000E-01  0.51099999109E-03 0.  1.
       22    1    1    2    0    0 -0.29333271730E-02  0.95860891782E-02  0.32880347361E-01  0.34374623731E-01  0.00000000000E+00 0. -1.
       22    1    1    2    0    0 -0.41083349251E-03 -0.13038375298E-05 -0.15442120158E-01  0.15447584304E-01  0.00000000000E+00 0.  1.
       22    1    1    2    0    0  0.33441606655E-02 -0.95847853407E-02 -0.17438227203E-01  0.20177791965E-01  0.00000000000E+00 0.  1.
</event>
<event>
 5   0  0.4143600E+04  0.9118800E+02  0.7546771E-02  0.1180000E+00
      -11   -1    0    0    0    0  0.00000000000E+00  0.00000000000E+00  0.34996269501E-01  0.35000000000E-01  0.51099999109E-03 0.  1.
       11   -1    0    0    0    0 -0.00000000000E+00 -0.00000000000E+00 -0.34996269501E-01  0.35000000000E-01  0.51099999109E-03 0. -1.
       22    1    1    2    0    0 -0.17565185101E-03 -0.24401399477E-03 -0.40674966550E-02  0.40785935616E-02  0.00000000000E+00 0.  1.
       22    1    1    2    0    0 -0.75875931636E-02 -0.19928748927E-01  0.27001627429E-01  0.34406605290E-01  0.00000000000E+00 0.  1.
       22    1    1    2    0    0  0.77632450146E-02  0.20172762922E-01 -0.22934130774E-01  0.31514801148E-01  0.00000000000E+00 0. -1.
</event>
<event>
 5   0  0.4143600E+04  0.9118800E+02  0.7546771E-02  0.1180000E+00
      -11   -1    0    0    0    0  0.00000000000E+00  0.00000000000E+00  0.34996269501E-01  0.35000000000E-01  0.51099999109E-03 0.  1.
       11   -1    0    0    0    0 -0.00000000000E+00 -0.00000000000E+00 -0.34996269501E-01  0.35000000000E-01  0.51099999109E-03 0. -1.
       22    1    1    2    0    0  0.74648785838E-02 -0.97396184122E-02  0.26845199569E-01  0.29516932750E-01  0.00000000000E+00 0.  1.
       22    1    1    2    0    0 -0.14445279772E-03  0.77175234383E-03  0.57964755947E-02  0.58494100224E-02  0.00000000000E+00 0. -1.
       22    1    1    2    0    0 -0.73204257861E-02  0.89678660683E-02 -0.32641675163E-01  0.34633657228E-01  0.00000000000E+00 0. -1.
</event>
<event>
 5   0  0.4143600E+04  0.9118800E+02  0.7546771E-02  0.1180000E+00
      -11   -1    0    0    0    0  0.00000000000E+00  0.00000000000E+00  0.34996269501E-01  0.35000000000E-01  0.51099999109E-03 0. -1.
       11   -1    0    0    0    0 -0.00000000000E+00 -0.00000000000E+00 -0.34996269501E-01  0.35000000000E-01  0.51099999109E-03 0. -1.
       22    1    1    2    0    0 -0.53511154882E-03  0.32102092288E-04 -0.84049811898E-03  0.99690119973E-03  0.00000000000E+00 0.  1.
       22    1    1    2    0    0  0.00000000000E+00  0.00000000000E+00  0.34920554190E-01  0.34918826816E-01  0.00000000000E+00 0. -1.
       22    1    1    2    0    0  0.53511154882E-03 -0.32102092288E-04 -0.34080056071E-01  0.34084271984E-01  0.00000000000E+00 0. -1.
</event>
<event>
 5   0  0.4143600E+04  0.9118800E+02  0.7546771E-02  0.1180000E+00
      -11   -1    0    0    0    0  0.00000000000E+00  0.00000000000E+00  0.34996269501E-01  0.35000000000E-01  0.51099999109E-03 0.  1.
       11   -1    0    0    0    0 -0.00000000000E+00 -0.00000000000E+00 -0.34996269501E-01  0.35000000000E-01  0.51099999109E-03 0. -1.
       22    1    1    2    0    0 -0.82075332639E-03 -0.26930283171E-03  0.34966121540E-01  0.34976789669E-01  0.00000000000E+00 0.  1.
       22    1    1    2    0    0  0.67665183284E-03  0.42494503444E-03 -0.34519858526E-01  0.34529104661E-01  0.00000000000E+00 0. -1.
       22    1    1    2    0    0  0.14410149355E-03 -0.15564220273E-03 -0.44626301356E-03  0.49410566986E-03  0.00000000000E+00 0.  1.
</event>
<event>
 5   0  0.4143600E+04  0.9118800E+02  0.7546771E-02  0.1180000E+00
      -11   -1    0    0    0    0  0.00000000000E+00  0.00000000000E+00  0.34996269501E-01  0.35000000000E-01  0.51099999109E-03 0. -1.
       11   -1    0    0    0    0 -0.00000000000E+00 -0.00000000000E+00 -0.34996269501E-01  0.35000000000E-01  0.51099999109E-03 0.  1.
       22    1    1    2    0    0  0.19060903568E-01  0.56491436710E-02 -0.28629545613E-01  0.34855153867E-01  0.00000000000E+00 0.  1.
       22    1    1    2    0    0  0.23446645327E-03 -0.16327513284E-03  0.19297173725E-03  0.34477728767E-03  0.00000000000E+00 0.  1.
       22    1    1    2    0    0 -0.19295370022E-01 -0.54858685382E-02  0.28436573876E-01  0.34800068846E-01  0.00000000000E+00 0. -1.
</event>
<event>
 5   0  0.4143600E+04  0.9118800E+02  0.7546771E-02  0.1180000E+00
      -11   -1    0    0    0    0  0.00000000000E+00  0.00000000000E+00  0.34996269501E-01  0.35000000000E-01  0.51099999109E-03 0. -1.
       11   -1    0    0    0    0 -0.00000000000E+00 -0.00000000000E+00 -0.34996269501E-01  0.35000000000E-01  0.51099999109E-03 0.  1.
       22    1    1    2    0    0 -0.23700810359E-01 -0.37169641240E-03 -0.24050042092E-01  0.33767900357E-01  0.00000000000E+00 0.  1.
       22    1    1    2    0    0  0.11310822382E-03  0.16982897521E-03 -0.14677551388E-02  0.14818706079E-02  0.00000000000E+00 0.  1.
       22    1    1    2    0    0  0.23587702135E-01  0.20186743720E-03  0.25517797231E-01  0.34750229035E-01  0.00000000000E+00 0. -1.
</event>
<event>
 5   0  0.4143600E+04  0.9118800E+02  0.7546771E-02  0.1180000E+00
      -11   -1    0    0    0    0  0.00000000000E+00  0.00000000000E+00  0.34996269501E-01  0.35000000000E-01  0.51099999109E-03 0.  1.
       11   -1    0    0    0    0 -0.00000000000E+00 -0.00000000000E+00 -0.34996269501E-01  0.35000000000E-01  0.51099999109E-03 0. -1.
       22    1    1    2    0    0  0.18750251835E-02  0.18901499924E-02 -0.74095915507E-02  0.78734003697E-02  0.00000000000E+00 0. -1.
       22    1    1    2    0    0 -0.14371076015E-01  0.13067306888E-01  0.27803860966E-01  0.33916618636E-01  0.00000000000E+00 0.  1.
       22    1    1    2    0    0  0.12496050831E-01 -0.14957456880E-01 -0.20394269415E-01  0.28209980994E-01  0.00000000000E+00 0. -1.
</event>
<event>
 5   0  0.4143600E+04  0.9118800E+02  0.7546771E-02  0.1180000E+00
      -11   -1    0    0    0    0  0.00000000000E+00  0.00000000000E+00  0.34996269501E-01  0.35000000000E-01  0.51099999109E-03 0. -1.
       11   -1    0    0    0    0 -0.00000000000E+00 -0.00000000000E+00 -0.34996269501E-01  0.35000000000E-01  0.51099999109E-03 0.  1.
       22    1    1    2    0    0 -0.19635243749E-03 -0.15769932708E-02 -0.34072017798E-02  0.37595858846E-02  0.00000000000E+00 0.  1.
       22    1    1    2    0    0 -0.22628034479E-02  0.25810934413E-02 -0.31271906070E-01  0.31459727145E-01  0.00000000000E+00 0.  1.
       22    1    1    2    0    0  0.24591558854E-02 -0.10041001706E-02  0.34679107850E-01  0.34780686970E-01  0.00000000000E+00 0. -1.
</event>
<event>
 5   0  0.4143600E+04  0.9118800E+02  0.7546771E-02  0.1180000E+00
      -11   -1    0    0    0    0  0.00000000000E+00  0.00000000000E+00  0.34996269501E-01  0.35000000000E-01  0.51099999109E-03 0. -1.
       11   -1    0    0    0    0 -0.00000000000E+00 -0.00000000000E+00 -0.34996269501E-01  0.35000000000E-01  0.51099999109E-03 0.  1.
       22    1    1    2    0    0 -0.60953468136E-03 -0.76623546418E-03  0.52916706432E-04  0.98053530899E-03  0.00000000000E+00 0.  1.
       22    1    1    2    0    0 -0.70044950179E-03 -0.17945898492E-01  0.29192937285E-01  0.34274968847E-01  0.00000000000E+00 0. -1.
       22    1    1    2    0    0  0.13099841831E-02  0.18712133956E-01 -0.29245853991E-01  0.34744495844E-01  0.00000000000E+00 0.  1.
</event>
<event>
 5   0  0.4143600E+04  0.9118800E+02  0.7546771E-02  0.1180000E+00
      -11   -1    0    0    0    0  0.00000000000E+00  0.00000000000E+00  0.34996269501E-01  0.35000000000E-01  0.51099999109E-03 0.  1.
       11   -1    0    0    0    0 -0.00000000000E+00 -0.00000000000E+00 -0.34996269501E-01  0.35000000000E-01  0.51099999109E-03 0. -1.
       22    1    1    2    0    0 -0.91061036441E-02  0.96214474304E-02  0.30794452639E-01  0.33523002365E-01  0.00000000000E+00 0.  1.
       22    1    1    2    0    0  0.93772232652E-02 -0.92532835035E-02 -0.32310748658E-01  0.34893266551E-01  0.00000000000E+00 0. -1.
       22    1    1    2    0    0 -0.27111962115E-03 -0.36816392686E-03  0.15162960194E-02  0.15837310833E-02  0.00000000000E+00 0.  1.
</event>
<event>
 5   0  0.4143600E+04  0.9118800E+02  0.7546771E-02  0.1180000E+00
      -11   -1    0    0    0    0  0.00000000000E+00  0.00000000000E+00  0.34996269501E-01  0.35000000000E-01  0.51099999109E-03 0.  1.
       11   -1    0    0    0    0 -0.00000000000E+00 -0.00000000000E+00 -0.34996269501E-01  0.35000000000E-01  0.51099999109E-03 0. -1.
       22    1    1    2    0    0  0.63897892528E-02  0.34024394789E-01  0.44786605879E-02  0.34907696116E-01  0.00000000000E+00 0. -1.
       22    1    1    2    0    0 -0.63441440670E-02 -0.33921808608E-01 -0.41665036109E-02  0.34760566962E-01  0.00000000000E+00 0.  1.
       22    1    1    2    0    0 -0.45645185827E-04 -0.10258618086E-03 -0.31215697695E-03  0.33173692250E-03  0.00000000000E+00 0.  1.
</event>
<event>
 5   0  0.4143600E+04  0.9118800E+02  0.7546771E-02  0.1180000E+00
      -11   -1    0    0    0    0  0.00000000000E+00  0.00000000000E+00  0.34996269501E-01  0.35000000000E-01  0.51099999109E-03 0.  1.
       11   -1    0    0    0    0 -0.00000000000E+00 -0.00000000000E+00 -0.34996269501E-01  0.35000000000E-01  0.51099999109E-03 0. -1.
       22    1    1    2    0    0  0.32294075093E-03  0.15941798004E-03  0.17052026131E-02  0.17428197763E-02  0.00000000000E+00 0.  1.
       22    1    1    2    0    0 -0.13582605457E-02  0.12337107622E-01  0.30913087836E-01  0.33311681071E-01  0.00000000000E+00 0.  1.
       22    1    1    2    0    0  0.10353197948E-02 -0.12496525602E-01 -0.32618290450E-01  0.34945499153E-01  0.00000000000E+00 0. -1.
</event>
<event>
 5   0  0.4143600E+04  0.9118800E+02  0.7546771E-02  0.1180000E+00
      -11   -1    0    0    0    0  0.00000000000E+00  0.00000000000E+00  0.34996269501E-01  0.35000000000E-01  0.51099999109E-03 0. -1.
       11   -1    0    0    0    0 -0.00000000000E+00 -0.00000000000E+00 -0.34996269501E-01  0.35000000000E-01  0.51099999109E-03 0.  1.
       22    1    1    2    0    0 -0.10240854253E-01  0.99656017485E-02  0.30442991173E-01  0.33629808587E-01  0.00000000000E+00 0. -1.
       22    1    1    2    0    0 -0.17385360593E-04 -0.24637148766E-04  0.14363837831E-02  0.14367002513E-02  0.00000000000E+00 0.  1.
       22    1    1    2    0    0  0.10258239613E-01 -0.99409645997E-02 -0.31879374956E-01  0.34933491162E-01  0.00000000000E+00 0.  1.
</event>
<event>
 5   0  0.4143600E+04  0.9118800E+02  0.7546771E-02  0.1180000E+00
      -11   -1    0    0    0    0  0.00000000000E+00  0.00000000000E+00  0.34996269501E-01  0.35000000000E-01  0.51099999109E-03 0.  1.
       11   -1    0    0    0    0 -0.00000000000E+00 -0.00000000000E+00 -0.34996269501E-01  0.35000000000E-01  0.51099999109E-03 0. -1.
       22    1    1    2    0    0 -0.53433289113E-05  0.76253991854E-04 -0.35369896414E-03  0.36186486383E-03  0.00000000000E+00 0.  1.
       22    1    1    2    0    0 -0.60702006668E-02 -0.95955028101E-02 -0.32749374750E-01  0.34661831412E-01  0.00000000000E+00 0. -1.
       22    1    1    2    0    0  0.60755439957E-02  0.95192488183E-02  0.33103073714E-01  0.34976303724E-01  0.00000000000E+00 0.  1.
</event>
<event>
 5   0  0.4143600E+04  0.9118800E+02  0.7546771E-02  0.1180000E+00
      -11   -1    0    0    0    0  0.00000000000E+00  0.00000000000E+00  0.34996269501E-01  0.35000000000E-01  0.51099999109E-03 0.  1.
       11   -1    0    0    0    0 -0.00000000000E+00 -0.00000000000E+00 -0.34996269501E-01  0.35000000000E-01  0.51099999109E-03 0. -1.
       22    1    1    2    0    0 -0.40960039413E-02 -0.21550998109E-01  0.27232349084E-01  0.34968894812E-01  0.00000000000E+00 0.  1.
       22    1    1    2    0    0  0.39009403162E-02  0.21442759293E-01 -0.26789952366E-01  0.34535645487E-01  0.00000000000E+00 0. -1.
       22    1    1    2    0    0  0.19506362507E-03  0.10823881554E-03 -0.44239671791E-03  0.49545970071E-03  0.00000000000E+00 0. -1.
</event>
<event>
 5   0  0.4143600E+04  0.9118800E+02  0.7546771E-02  0.1180000E+00
      -11   -1    0    0    0    0  0.00000000000E+00  0.00000000000E+00  0.34996269501E-01  0.35000000000E-01  0.51099999109E-03 0. -1.
       11   -1    0    0    0    0 -0.00000000000E+00 -0.00000000000E+00 -0.34996269501E-01  0.35000000000E-01  0.51099999109E-03 0.  1.
       22    1    1    2    0    0  0.10686938335E-03 -0.30258949324E-01 -0.16790941622E-01  0.34605652079E-01  0.00000000000E+00 0.  1.
       22    1    1    2    0    0 -0.49605004232E-04 -0.24798380891E-03 -0.32663962880E-03  0.41309813971E-03  0.00000000000E+00 0. -1.
       22    1    1    2    0    0 -0.57264379121E-04  0.30506933133E-01  0.17117581251E-01  0.34981249781E-01  0.00000000000E+00 0. -1.
</event>
<event>
 5   0  0.4143600E+04  0.9118800E+02  0.7546771E-02  0.1180000E+00
      -11   -1    0    0    0    0  0.00000000000E+00  0.00000000000E+00  0.34996269501E-01  0.35000000000E-01  0.51099999109E-03 0.  1.
       11   -1    0    0    0    0 -0.00000000000E+00 -0.00000000000E+00 -0.34996269501E-01  0.35000000000E-01  0.51099999109E-03 0. -1.
       22    1    1    2    0    0 -0.11959141640E-04 -0.36179302181E-02 -0.30728649561E-01  0.30940902797E-01  0.00000000000E+00 0. -1.
       22    1    1    2    0    0  0.27825860346E-03  0.17078301801E-02 -0.39575649099E-02  0.43193091798E-02  0.00000000000E+00 0.  1.
       22    1    1    2    0    0 -0.26629946182E-03  0.19101000381E-02  0.34686214471E-01  0.34739788023E-01  0.00000000000E+00 0.  1.
</event>
<event>
 5   0  0.4143600E+04  0.9118800E+02  0.7546771E-02  0.1180000E+00
      -11   -1    0    0    0    0  0.00000000000E+00  0.00000000000E+00  0.34996269501E-01  0.35000000000E-01  0.51099999109E-03 0. -1.
       11   -1    0    0    0    0 -0.00000000000E+00 -0.00000000000E+00 -0.34996269501E-01  0.35000000000E-01  0.51099999109E-03 0.  1.
       22    1    1    2    0    0 -0.15539983845E-03 -0.79916042007E-04 -0.51400568009E-02  0.51430263076E-02  0.00000000000E+00 0.  1.
       22    1    1    2    0    0 -0.14127953615E-02 -0.20813099927E-01  0.27301593825E-01  0.34359251224E-01  0.00000000000E+00 0. -1.
       22    1    1    2    0    0  0.15681951999E-02  0.20893015969E-01 -0.22161537024E-01  0.30497722468E-01  0.00000000000E+00 0.  1.
</event>
<event>
 5   0  0.4143600E+04  0.9118800E+02  0.7546771E-02  0.1180000E+00
      -11   -1    0    0    0    0  0.00000000000E+00  0.00000000000E+00  0.34996269501E-01  0.35000000000E-01  0.51099999109E-03 0.  1.
       11   -1    0    0    0    0 -0.00000000000E+00 -0.00000000000E+00 -0.34996269501E-01  0.35000000000E-01  0.51099999109E-03 0. -1.
       22    1    1    2    0    0  0.44919546952E-02  0.31075453735E-02  0.34362399886E-01  0.34793807225E-01  0.00000000000E+00 0.  1.
       22    1    1    2    0    0 -0.55313830436E-02 -0.30682679652E-02 -0.32084029882E-01  0.32701612195E-01  0.00000000000E+00 0. -1.
       22    1    1    2    0    0  0.10394283484E-02 -0.39277408313E-04 -0.22783700044E-02  0.25045805803E-02  0.00000000000E+00 0. -1.
</event>
<event>
 5   0  0.4143600E+04  0.9118800E+02  0.7546771E-02  0.1180000E+00
      -11   -1    0    0    0    0  0.00000000000E+00  0.00000000000E+00  0.34996269501E-01  0.35000000000E-01  0.51099999109E-03 0. -1.
       11   -1    0    0    0    0 -0.00000000000E+00 -0.00000000000E+00 -0.34996269501E-01  0.35000000000E-01  0.51099999109E-03 0.  1.
       22    1    1    2    0    0 -0.32693023922E-02 -0.64349938995E-02  0.34031784717E-01  0.34788789223E-01  0.00000000000E+00 0. -1.
       22    1    1    2    0    0  0.39000825768E-02  0.68595086976E-02 -0.32995611436E-01  0.33926005921E-01  0.00000000000E+00 0.  1.
       22    1    1    2    0    0 -0.63078018466E-03 -0.42451479811E-03 -0.10361732804E-02  0.12852048561E-02  0.00000000000E+00 0.  1.
</event>
<event>
 5   0  0.4143600E+04  0.9118800E+02  0.7546771E-02  0.1180000E+00
      -11   -1    0    0    0    0  0.00000000000E+00  0.00000000000E+00  0.34996269501E-01  0.35000000000E-01  0.51099999109E-03 0.  1.
       11   -1    0    0    0    0 -0.00000000000E+00 -0.00000000000E+00 -0.34996269501E-01  0.35000000000E-01  0.51099999109E-03 0. -1.
       22    1    1    2    0    0  0.21360979182E-01  0.32095521178E-02  0.27275901074E-01  0.34793209622E-01  0.00000000000E+00 0.  1.
       22    1    1    2    0    0  0.15307061872E-03  0.26130008821E-03 -0.11301699079E-02  0.11700394741E-02  0.00000000000E+00 0. -1.
       22    1    1    2    0    0 -0.21514049801E-01 -0.34708522061E-02 -0.26145731166E-01  0.34036750904E-01  0.00000000000E+00 0. -1.
</event>
<event>
 5   0  0.4143600E+04  0.9118800E+02  0.7546771E-02  0.1180000E+00
      -11   -1    0    0    0    0  0.00000000000E+00  0.00000000000E+00  0.34996269501E-01  0.35000000000E-01  0.51099999109E-03 0. -1.
       11   -1    0    0    0    0 -0.00000000000E+00 -0.00000000000E+00 -0.34996269501E-01  0.35000000000E-01  0.51099999109E-03 0. -1.
       22    1    1    2    0    0 -0.11089455641E-01  0.62414031579E-02  0.23431923137E-01  0.26664323762E-01  0.00000000000E+00 0.  1.
       22    1    1    2    0    0  0.00000000000E+00  0.00000000000E+00  0.87394447069E-02  0.87390282968E-02  0.00000000000E+00 0. -1.
       22    1    1    2    0    0  0.11089455641E-01 -0.62414031579E-02 -0.32171367844E-01  0.34596647941E-01  0.00000000000E+00 0. -1.
</event>
<event>
 5   0  0.4143600E+04  0.9118800E+02  0.7546771E-02  0.1180000E+00
      -11   -1    0    0    0    0  0.00000000000E+00  0.00000000000E+00  0.34996269501E-01  0.35000000000E-01  0.51099999109E-03 0.  1.
       11   -1    0    0    0    0 -0.00000000000E+00 -0.00000000000E+00 -0.34996269501E-01  0.35000000000E-01  0.51099999109E-03 0. -1.
       22    1    1    2    0    0 -0.18432277863E-02 -0.11383118950E-01 -0.27041067088E-01  0.29397146034E-01  0.00000000000E+00 0. -1.
       22    1    1    2    0    0  0.22519265966E-02  0.11130655398E-01  0.32858534526E-01  0.34765585773E-01  0.00000000000E+00 0.  1.
       22    1    1    2    0    0 -0.40869881037E-03  0.25246355173E-03 -0.58174674380E-02  0.58372681928E-02  0.00000000000E+00 0. -1.
</event>
<event>
 5   0  0.4143600E+04  0.9118800E+02  0.7546771E-02  0.1180000E+00
      -11   -1    0    0    0    0  0.00000000000E+00  0.00000000000E+00  0.34996269501E-01  0.35000000000E-01  0.51099999109E-03 0.  1.
       11   -1    0    0    0    0 -0.00000000000E+00 -0.00000000000E+00 -0.34996269501E-01  0.35000000000E-01  0.51099999109E-03 0. -1.
       22    1    1    2    0    0 -0.71122922459E-02  0.21078880199E-01 -0.26516163652E-01  0.34612292993E-01  0.00000000000E+00 0. -1.
       22    1    1    2    0    0 -0.67200184723E-04 -0.26671474942E-04 -0.43637387407E-03  0.44232272197E-03  0.00000000000E+00 0.  1.
       22    1    1    2    0    0  0.71794924306E-02 -0.21052208724E-01  0.26952537526E-01  0.34945384285E-01  0.00000000000E+00 0.  1.
</event>
<event>
 5   0  0.4143600E+04  0.9118800E+02  0.7546771E-02  0.1180000E+00
      -11   -1    0    0    0    0  0.00000000000E+00  0.00000000000E+00  0.34996269501E-01  0.35000000000E-01  0.51099999109E-03 0.  1.
       11   -1    0    0    0    0 -0.00000000000E+00 -0.00000000000E+00 -0.34996269501E-01  0.35000000000E-01  0.51099999109E-03 0. -1.
       22    1    1    2    0    0 -0.11375834822E-01  0.79625723882E-02  0.31134699966E-01  0.34090786422E-01  0.00000000000E+00 0.  1.
       22    1    1    2    0    0  0.98699559424E-02 -0.46711312115E-02 -0.11175894176E-01  0.15624855447E-01  0.00000000000E+00 0. -1.
       22    1    1    2    0    0  0.15058788796E-02 -0.32914411766E-02 -0.19958805790E-01  0.20284358130E-01  0.00000000000E+00 0. -1.
</event>
<event>
 5   0  0.4143600E+04  0.9118800E+02  0.7546771E-02  0.1180000E+00
      -11   -1    0    0    0    0  0.00000000000E+00  0.00000000000E+00  0.34996269501E-01  0.35000000000E-01  0.51099999109E-03 0.  1.
       11   -1    0    0    0    0 -0.00000000000E+00 -0.00000000000E+00 -0.34996269501E-01  0.35000000000E-01  0.51099999109E-03 0. -1.
       22    1    1    2    0    0 -0.15934658222E-03 -0.21873931976E-03  0.60768246922E-02  0.60828477346E-02  0.00000000000E+00 0. -1.
       22    1    1    2    0    0  0.15732100147E-01  0.19792278658E-02  0.24716422174E-01  0.29365248902E-01  0.00000000000E+00 0.  1.
       22    1    1    2    0    0 -0.15572753565E-01 -0.17604885460E-02 -0.30793246866E-01  0.34551903364E-01  0.00000000000E+00 0. -1.
</event>
<event>
 5   0  0.4143600E+04  0.9118800E+02  0.7546771E-02  0.1180000E+00
      -11   -1    0    0    0    0  0.00000000000E+00  0.00000000000E+00  0.34996269501E-01  0.35000000000E-01  0.51099999109E-03 0. -1.
       11   -1    0    0    0    0 -0.00000000000E+00 -0.00000000000E+00 -0.34996269501E-01  0.35000000000E-01  0.51099999109E-03 0.  1.
       22    1    1    2    0    0  0.10036805270E-01 -0.59759682438E-02 -0.21026564354E-01  0.24053400280E-01  0.00000000000E+00 0.  1.
       22    1    1    2    0    0 -0.13201063775E-01  0.12814104063E-01 -0.48247020027E-02  0.19019650290E-01  0.00000000000E+00 0. -1.
       22    1    1    2    0    0  0.31642585056E-02 -0.68381358190E-02  0.25851266357E-01  0.26926949430E-01  0.00000000000E+00 0. -1.
</event>
<event>
 5   0  0.4143600E+04  0.9118800E+02  0.7546771E-02  0.1180000E+00
      -11   -1    0    0    0    0  0.00000000000E+00  0.00000000000E+00  0.34996269501E-01  0.35000000000E-01  0.51099999109E-03 0. -1.
       11   -1    0    0    0    0 -0.00000000000E+00 -0.00000000000E+00 -0.34996269501E-01  0.35000000000E-01  0.51099999109E-03 0.  1.
       22    1    1    2    0    0  0.21705707218E-02  0.98484444845E-03  0.34761106548E-01  0.34842729863E-01  0.00000000000E+00 0. -1.
       22    1    1    2    0    0  0.93620268003E-03  0.39758615281E-03 -0.22548946732E-02  0.24736815062E-02  0.00000000000E+00 0. -1.
       22    1    1    2    0    0 -0.31067734018E-02 -0.13824306013E-02 -0.32506211875E-01  0.32683588631E-01  0.00000000000E+00 0.  1.
</event>
<event>
 5   0  0.4143600E+04  0.9118800E+02  0.7546771E-02  0.1180000E+00
      -11   -1    0    0    0    0  0.00000000000E+00  0.00000000000E+00  0.34996269501E-01  0.35000000000E-01  0.51099999109E-03 0. -1.
       11   -1    0    0    0    0 -0.00000000000E+00 -0.00000000000E+00 -0.34996269501E-01  0.35000000000E-01  0.51099999109E-03 0.  1.
       22    1    1    2    0    0 -0.23615677301E-05  0.19505678483E-04  0.46361760606E-03  0.46403376294E-03  0.00000000000E+00 0. -1.
       22    1    1    2    0    0 -0.20733227962E-02  0.18026635293E-01  0.29419246715E-01  0.34565160562E-01  0.00000000000E+00 0. -1.
       22    1    1    2    0    0  0.20756843639E-02 -0.18046140972E-01 -0.29882864321E-01  0.34970805675E-01  0.00000000000E+00 0.  1.
</event>
<event>
 5   0  0.4143600E+04  0.9118800E+02  0.7546771E-02  0.1180000E+00
      -11   -1    0    0    0    0  0.00000000000E+00  0.00000000000E+00  0.34996269501E-01  0.35000000000E-01  0.51099999109E-03 0.  1.
       11   -1    0    0    0    0 -0.00000000000E+00 -0.00000000000E+00 -0.34996269501E-01  0.35000000000E-01  0.51099999109E-03 0. -1.
       22    1    1    2    0    0  0.14949081329E-01 -0.23635855503E-02  0.29825877239E-01  0.33446143608E-01  0.00000000000E+00 0.  1.
       22    1    1    2    0    0 -0.14975928189E-01  0.29148800305E-02 -0.31386642219E-01  0.34898370456E-01  0.00000000000E+00 0. -1.
       22    1    1    2    0    0  0.26846860633E-04 -0.55129448013E-03  0.15607649805E-02  0.16554859353E-02  0.00000000000E+00 0.  1.
</event>
<event>
 5   0  0.4143600E+04  0.9118800E+02  0.7546771E-02  0.1180000E+00
      -11   -1    0    0    0    0  0.00000000000E+00  0.00000000000E+00  0.34996269501E-01  0.35000000000E-01  0.51099999109E-03 0.  1.
       11   -1    0    0    0    0 -0.00000000000E+00 -0.00000000000E+00 -0.34996269501E-01  0.35000000000E-01  0.51099999109E-03 0. -1.
       22    1    1    2    0    0 -0.66550839504E-03 -0.12646953303E-01 -0.32462493588E-01  0.34845398824E-01  0.00000000000E+00 0. -1.
       22    1    1    2    0    0  0.39142100836E-03  0.59317674443E-04  0.71068736348E-04  0.40221854454E-03  0.00000000000E+00 0.  1.
       22    1    1    2    0    0  0.27408738668E-03  0.12587635628E-01  0.32391424852E-01  0.34752382631E-01  0.00000000000E+00 0.  1.
</event>
<event>
 5   0  0.4143600E+04  0.9118800E+02  0.7546771E-02  0.1180000E+00
      -11   -1    0    0    0    0  0.00000000000E+00  0.00000000000E+00  0.34996269501E-01  0.35000000000E-01  0.51099999109E-03 0.  1.
       11   -1    0    0    0    0 -0.00000000000E+00 -0.00000000000E+00 -0.34996269501E-01  0.35000000000E-01  0.51099999109E-03 0. -1.
       22    1    1    2    0    0 -0.49116810082E-03  0.28731645079E-02  0.39597827661E-02  0.49169299311E-02  0.00000000000E+00 0. -1.
       22    1    1    2    0    0 -0.13207490255E-01 -0.10731286624E-01 -0.30079799955E-01  0.34559986643E-01  0.00000000000E+00 0. -1.
       22    1    1    2    0    0  0.13698658355E-01  0.78581221158E-02  0.26120017188E-01  0.30523083426E-01  0.00000000000E+00 0.  1.
</event>
<event>
 5   0  0.4143600E+04  0.9118800E+02  0.7546771E-02  0.1180000E+00
      -11   -1    0    0    0    0  0.00000000000E+00  0.00000000000E+00  0.34996269501E-01  0.35000000000E-01  0.51099999109E-03 0. -1.
       11   -1    0    0    0    0 -0.00000000000E+00 -0.00000000000E+00 -0.34996269501E-01  0.35000000000E-01  0.51099999109E-03 0.  1.
       22    1    1    2    0    0 -0.72855248125E-04  0.51255089780E-05 -0.47763339066E-03  0.48318507210E-03  0.00000000000E+00 0. -1.
       22    1    1    2    0    0  0.83068677675E-02 -0.95614236691E-02  0.32617363127E-01  0.34990245098E-01  0.00000000000E+00 0. -1.
       22    1    1    2    0    0 -0.82340125194E-02  0.95562981601E-02 -0.32139729736E-01  0.34526569830E-01  0.00000000000E+00 0.  1.
</event>
<event>
 5   0  0.4143600E+04  0.9118800E+02  0.7546771E-02  0.1180000E+00
      -11   -1    0    0    0    0  0.00000000000E+00  0.00000000000E+00  0.34996269501E-01  0.35000000000E-01  0.51099999109E-03 0. -1.
       11   -1    0    0    0    0 -0.00000000000E+00 -0.00000000000E+00 -0.34996269501E-01  0.35000000000E-01  0.51099999109E-03 0.  1.
       22    1    1    2    0    0 -0.38664437519E-02 -0.92447909409E-02 -0.20020561431E-01  0.22388354715E-01  0.00000000000E+00 0.  1.
       22    1    1    2    0    0  0.39294839736E-02  0.10435369875E-01  0.32868532455E-01  0.34708474678E-01  0.00000000000E+00 0. -1.
       22    1    1    2    0    0 -0.63040221674E-04 -0.11905789338E-02 -0.12847971025E-01  0.12903170607E-01  0.00000000000E+00 0.  1.
</event>
<event>
 5   0  0.4143600E+04  0.9118800E+02  0.7546771E-02  0.1180000E+00
      -11   -1    0    0    0    0  0.00000000000E+00  0.00000000000E+00  0.34996269501E-01  0.35000000000E-01  0.51099999109E-03 0.  1.
       11   -1    0    0    0    0 -0.00000000000E+00 -0.00000000000E+00 -0.34996269501E-01  0.35000000000E-01  0.51099999109E-03 0. -1.
       22    1    1    2    0    0  0.31374453044E-02 -0.59266660438E-03  0.33982964639E-01  0.34132633980E-01  0.00000000000E+00 0.  1.
       22    1    1    2    0    0  0.33387432376E-02  0.28909682079E-03 -0.21899925622E-01  0.22154853320E-01  0.00000000000E+00 0. -1.
       22    1    1    2    0    0 -0.64761885420E-02  0.30356978358E-03 -0.12083039017E-01  0.13712512700E-01  0.00000000000E+00 0. -1.
</event>
<event>
 5   0  0.4143600E+04  0.9118800E+02  0.7546771E-02  0.1180000E+00
      -11   -1    0    0    0    0  0.00000000000E+00  0.00000000000E+00  0.34996269501E-01  0.35000000000E-01  0.51099999109E-03 0.  1.
       11   -1    0    0    0    0 -0.00000000000E+00 -0.00000000000E+00 -0.34996269501E-01  0.35000000000E-01  0.51099999109E-03 0. -1.
       22    1    1    2    0    0  0.98678316459E-02  0.66655357303E-02 -0.31579115802E-01  0.33749726262E-01  0.00000000000E+00 0. -1.
       22    1    1    2    0    0 -0.98815692221E-02 -0.65600312601E-02  0.32875439373E-01  0.34949591334E-01  0.00000000000E+00 0.  1.
       22    1    1    2    0    0  0.13737576216E-04 -0.10550447021E-03 -0.12963235715E-02  0.13006824041E-02  0.00000000000E+00 0.  1.
</event>
<event>
 5   0  0.4143600E+04  0.9118800E+02  0.7546771E-02  0.1180000E+00
      -11   -1    0    0    0    0  0.00000000000E+00  0.00000000000E+00  0.34996269501E-01  0.35000000000E-01  0.51099999109E-03 0.  1.
       11   -1    0    0    0    0 -0.00000000000E+00 -0.00000000000E+00 -0.34996269501E-01  0.35000000000E-01  0.51099999109E-03 0. -1.
       22    1    1    2    0    0  0.30606044573E-05 -0.16794600633E-04  0.62089443904E-03  0.62112907704E-03  0.00000000000E+00 0. -1.
       22    1    1    2    0    0 -0.87216361450E-02  0.10245565047E-01 -0.32287066373E-01  0.34978467593E-01  0.00000000000E+00 0. -1.
       22    1    1    2    0    0  0.87185755405E-02 -0.10228770447E-01  0.31666171934E-01  0.34400403330E-01  0.00000000000E+00 0.  1.
</event>
<event>
 5   0  0.4143600E+04  0.9118800E+02  0.7546771E-02  0.1180000E+00
      -11   -1    0    0    0    0  0.00000000000E+00  0.00000000000E+00  0.34996269501E-01  0.35000000000E-01  0.51099999109E-03 0. -1.
       11   -1    0    0    0    0 -0.00000000000E+00 -0.00000000000E+00 -0.34996269501E-01  0.35000000000E-01  0.51099999109E-03 0.  1.
       22    1    1    2    0    0 -0.18381199606E-03 -0.52063233174E-04 -0.36808936797E-03  0.41471341063E-03  0.00000000000E+00 0. -1.
       22    1    1    2    0    0  0.36935744963E-02 -0.23309517627E-02  0.34709309185E-01  0.34983024065E-01  0.00000000000E+00 0. -1.
       22    1    1    2    0    0 -0.35097625002E-02  0.23830149959E-02 -0.34341219817E-01  0.34602262524E-01  0.00000000000E+00 0.  1.
</event>
<event>
 5   0  0.4143600E+04  0.9118800E+02  0.7546771E-02  0.1180000E+00
      -11   -1    0    0    0    0  0.00000000000E+00  0.00000000000E+00  0.34996269501E-01  0.35000000000E-01  0.51099999109E-03 0. -1.
       11   -1    0    0    0    0 -0.00000000000E+00 -0.00000000000E+00 -0.34996269501E-01  0.35000000000E-01  0.51099999109E-03 0.  1.
       22    1    1    2    0    0  0.83461508745E-02  0.80030238377E-02  0.25846384840E-02  0.11848501216E-01  0.00000000000E+00 0. -1.
       22    1    1    2    0    0 -0.37178141389E-02  0.71828226390E-02  0.25026932239E-01  0.26301376776E-01  0.00000000000E+00 0. -1.
       22    1    1    2    0    0 -0.46283367356E-02 -0.15185846477E-01 -0.27611570723E-01  0.31850122008E-01  0.00000000000E+00 0.  1.
</event>
<event>
 5   0  0.4143600E+04  0.9118800E+02  0.7546771E-02  0.1180000E+00
      -11   -1    0    0    0    0  0.00000000000E+00  0.00000000000E+00  0.34996269501E-01  0.35000000000E-01  0.51099999109E-03 0.  1.
       11   -1    0    0    0    0 -0.00000000000E+00 -0.00000000000E+00 -0.34996269501E-01  0.35000000000E-01  0.51099999109E-03 0. -1.
       22    1    1    2    0    0  0.13814374720E-02 -0.21621218764E-02  0.34849570172E-01  0.34943893339E-01  0.00000000000E+00 0.  1.
       22    1    1    2    0    0 -0.67327321948E-03  0.15116317899E-03 -0.16543324854E-02  0.17924740185E-02  0.00000000000E+00 0. -1.
       22    1    1    2    0    0 -0.70816425256E-03  0.20109586974E-02 -0.33195237687E-01  0.33263632642E-01  0.00000000000E+00 0. -1.
</event>
<event>
 5   0  0.4143600E+04  0.9118800E+02  0.7546771E-02  0.1180000E+00
      -11   -1    0    0    0    0  0.00000000000E+00  0.00000000000E+00  0.34996269501E-01  0.35000000000E-01  0.51099999109E-03 0. -1.
       11   -1    0    0    0    0 -0.00000000000E+00 -0.00000000000E+00 -0.34996269501E-01  0.35000000000E-01  0.51099999109E-03 0.  1.
       22    1    1    2    0    0 -0.89195615714E-02 -0.13520042400E-01 -0.30009558794E-01  0.34101667762E-01  0.00000000000E+00 0.  1.
       22    1    1    2    0    0 -0.58893709794E-03 -0.13955528539E-02  0.52853264170E-02  0.54980987630E-02  0.00000000000E+00 0.  1.
       22    1    1    2    0    0  0.95084986693E-02  0.14915595254E-01  0.24724232377E-01  0.30400233475E-01  0.00000000000E+00 0. -1.
</event>
<event>
 5   0  0.4143600E+04  0.9118800E+02  0.7546771E-02  0.1180000E+00
      -11   -1    0    0    0    0  0.00000000000E+00  0.00000000000E+00  0.34996269501E-01  0.35000000000E-01  0.51099999109E-03 0. -1.
       11   -1    0    0    0    0 -0.00000000000E+00 -0.00000000000E+00 -0.34996269501E-01  0.35000000000E-01  0.51099999109E-03 0.  1.
       22    1    1    2    0    0  0.31200194195E-02 -0.77948272353E-02 -0.12318896993E-01  0.14908020524E-01  0.00000000000E+00 0.  1.
       22    1    1    2    0    0 -0.64638915611E-02  0.13218026295E-01  0.31561099635E-01  0.34822422711E-01  0.00000000000E+00 0. -1.
       22    1    1    2    0    0  0.33438721416E-02 -0.54231990600E-02 -0.19242202642E-01  0.20269556765E-01  0.00000000000E+00 0.  1.
</event>
<event>
 5   0  0.4143600E+04  0.9118800E+02  0.7546771E-02  0.1180000E+00
      -11   -1    0    0    0    0  0.00000000000E+00  0.00000000000E+00  0.34996269501E-01  0.35000000000E-01  0.51099999109E-03 0.  1.
       11   -1    0    0    0    0 -0.00000000000E+00 -0.00000000000E+00 -0.34996269501E-01  0.35000000000E-01  0.51099999109E-03 0. -1.
       22    1    1    2    0    0 -0.16455718164E-03 -0.16316140085E-01  0.23052949787E-01  0.28243264688E-01  0.00000000000E+00 0.  1.
       22    1    1    2    0    0  0.13588030272E-03  0.16077617717E-01 -0.30408396336E-01  0.34397366507E-01  0.00000000000E+00 0. -1.
       22    1    1    2    0    0  0.28676878919E-04  0.23852236762E-03  0.73554465484E-02  0.73593688051E-02  0.00000000000E+00 0.  1.
</event>
<event>
 5   0  0.4143600E+04  0.9118800E+02  0.7546771E-02  0.1180000E+00
      -11   -1    0    0    0    0  0.00000000000E+00  0.00000000000E+00  0.34996269501E-01  0.35000000000E-01  0.51099999109E-03 0.  1.
       11   -1    0    0    0    0 -0.00000000000E+00 -0.00000000000E+00 -0.34996269501E-01  0.35000000000E-01  0.51099999109E-03 0. -1.
       22    1    1    2    0    0 -0.17106269380E-02  0.10142129214E-02 -0.30718379834E-02  0.36593798609E-02  0.00000000000E+00 0. -1.
       22    1    1    2    0    0  0.75994648889E-03 -0.54955823828E-02  0.34316418427E-01  0.34761983805E-01  0.00000000000E+00 0.  1.
       22    1    1    2    0    0  0.95068044906E-03  0.44813694614E-02 -0.31244580444E-01  0.31578636334E-01  0.00000000000E+00 0. -1.
</event>
<event>
 5   0  0.4143600E+04  0.9118800E+02  0.7546771E-02  0.1180000E+00
      -11   -1    0    0    0    0  0.00000000000E+00  0.00000000000E+00  0.34996269501E-01  0.35000000000E-01  0.51099999109E-03 0.  1.
       11   -1    0    0    0    0 -0.00000000000E+00 -0.00000000000E+00 -0.34996269501E-01  0.35000000000E-01  0.51099999109E-03 0. -1.
       22    1    1    2    0    0  0.56383172035E-03 -0.19080836837E-02 -0.12523175852E-01  0.12680245383E-01  0.00000000000E+00 0.  1.
       22    1    1    2    0    0 -0.11453832395E-04 -0.14071534653E-01 -0.18008830671E-01  0.22854456913E-01  0.00000000000E+00 0. -1.
       22    1    1    2    0    0 -0.55237788796E-03  0.15979618336E-01  0.30532006523E-01  0.34465297704E-01  0.00000000000E+00 0.  1.
</event>
<event>
 5   0  0.4143600E+04  0.9118800E+02  0.7546771E-02  0.1180000E+00
      -11   -1    0    0    0    0  0.00000000000E+00  0.00000000000E+00  0.34996269501E-01  0.35000000000E-01  0.51099999109E-03 0. -1.
       11   -1    0    0    0    0 -0.00000000000E+00 -0.00000000000E+00 -0.34996269501E-01  0.35000000000E-01  0.51099999109E-03 0.  1.
       22    1    1    2    0    0  0.19353668578E-01  0.14912490642E-02  0.21127337796E-01  0.28690638082E-01  0.00000000000E+00 0. -1.
       22    1    1    2    0    0 -0.57741066505E-04 -0.88230174605E-04  0.70931365078E-02  0.70939202218E-02  0.00000000000E+00 0.  1.
       22    1    1    2    0    0 -0.19295927511E-01 -0.14030188896E-02 -0.28220474304E-01  0.34215441696E-01  0.00000000000E+00 0.  1.
</event>
<event>
 5   0  0.4143600E+04  0.9118800E+02  0.7546771E-02  0.1180000E+00
      -11   -1    0    0    0    0  0.00000000000E+00  0.00000000000E+00  0.34996269501E-01  0.35000000000E-01  0.51099999109E-03 0.  1.
       11   -1    0    0    0    0 -0.00000000000E+00 -0.00000000000E+00 -0.34996269501E-01  0.35000000000E-01  0.51099999109E-03 0. -1.
       22    1    1    2    0    0 -0.14716803286E-02 -0.82115197112E-02 -0.18641314164E-01  0.20422866907E-01  0.00000000000E+00 0. -1.
       22    1    1    2    0    0  0.18387188124E-02  0.81965465525E-02  0.33589739562E-01  0.34624194808E-01  0.00000000000E+00 0.  1.
       22    1    1    2    0    0 -0.36703848378E-03  0.14973158668E-04 -0.14948425399E-01  0.14952938285E-01  0.00000000000E+00 0. -1.
</event>
<event>
 5   0  0.4143600E+04  0.9118800E+02  0.7546771E-02  0.1180000E+00
      -11   -1    0    0    0    0  0.00000000000E+00  0.00000000000E+00  0.34996269501E-01  0.35000000000E-01  0.51099999109E-03 0.  1.
       11   -1    0    0    0    0 -0.00000000000E+00 -0.00000000000E+00 -0.34996269501E-01  0.35000000000E-01  0.51099999109E-03 0. -1.
       22    1    1    2    0    0  0.15880935260E-03 -0.22836436346E-03 -0.34665701839E-01  0.34666817776E-01  0.00000000000E+00 0. -1.
       22    1    1    2    0    0 -0.00000000000E+00 -0.00000000000E+00  0.34941741761E-01  0.34941303759E-01  0.00000000000E+00 0.  1.
       22    1    1    2    0    0 -0.15880935260E-03  0.22836436346E-03 -0.27603992211E-03  0.39187846531E-03  0.00000000000E+00 0.  1.
</event>
<event>
 5   0  0.4143600E+04  0.9118800E+02  0.7546771E-02  0.1180000E+00
      -11   -1    0    0    0    0  0.00000000000E+00  0.00000000000E+00  0.34996269501E-01  0.35000000000E-01  0.51099999109E-03 0.  1.
       11   -1    0    0    0    0 -0.00000000000E+00 -0.00000000000E+00 -0.34996269501E-01  0.35000000000E-01  0.51099999109E-03 0. -1.
       22    1    1    2    0    0 -0.15156119455E-01  0.94234883554E-03 -0.31528313318E-01  0.34994721301E-01  0.00000000000E+00 0. -1.
       22    1    1    2    0    0  0.13636836915E-01 -0.74477933681E-03  0.28862322826E-01  0.31930419606E-01  0.00000000000E+00 0.  1.
       22    1    1    2    0    0  0.15192825395E-02 -0.19756949874E-03  0.26659904916E-02  0.30748590932E-02  0.00000000000E+00 0. -1.
</event>
<event>
 5   0  0.4143600E+04  0.9118800E+02  0.7546771E-02  0.1180000E+00
      -11   -1    0    0    0    0  0.00000000000E+00  0.00000000000E+00  0.34996269501E-01  0.35000000000E-01  0.51099999109E-03 0.  1.
       11   -1    0    0    0    0 -0.00000000000E+00 -0.00000000000E+00 -0.34996269501E-01  0.35000000000E-01  0.51099999109E-03 0. -1.
       22    1    1    2    0    0  0.16086090439E-03  0.12549938294E-03  0.11131321961E-01  0.11133191587E-01  0.00000000000E+00 0.  1.
       22    1    1    2    0    0  0.14725568380E-01  0.59538233743E-02  0.18968845718E-01  0.24740806065E-01  0.00000000000E+00 0.  1.
       22    1    1    2    0    0 -0.14886429284E-01 -0.60793227572E-02 -0.30100167678E-01  0.34126002348E-01  0.00000000000E+00 0. -1.
</event>
<event>
 5   0  0.4143600E+04  0.9118800E+02  0.7546771E-02  0.1180000E+00
      -11   -1    0    0    0    0  0.00000000000E+00  0.00000000000E+00  0.34996269501E-01  0.35000000000E-01  0.51099999109E-03 0.  1.
       11   -1    0    0    0    0 -0.00000000000E+00 -0.00000000000E+00 -0.34996269501E-01  0.35000000000E-01  0.51099999109E-03 0. -1.
       22    1    1    2    0    0 -0.21815839331E-01 -0.13634921472E-02 -0.27001187581E-01  0.34739805516E-01  0.00000000000E+00 0. -1.
       22    1    1    2    0    0  0.22159084356E-01  0.12976356329E-02  0.25928673652E-01  0.34132169504E-01  0.00000000000E+00 0.  1.
       22    1    1    2    0    0 -0.34324502450E-03  0.65856514290E-04  0.10725139283E-02  0.11280249792E-02  0.00000000000E+00 0. -1.
</event>
<event>
 5   0  0.4143600E+04  0.9118800E+02  0.7546771E-02  0.1180000E+00
      -11   -1    0    0    0    0  0.00000000000E+00  0.00000000000E+00  0.34996269501E-01  0.35000000000E-01  0.51099999109E-03 0. -1.
       11   -1    0    0    0    0 -0.00000000000E+00 -0.00000000000E+00 -0.34996269501E-01  0.35000000000E-01  0.51099999109E-03 0.  1.
       22    1    1    2    0    0 -0.40384013763E-02 -0.66575169794E-03 -0.77759200876E-02  0.87873115461E-02  0.00000000000E+00 0.  1.
       22    1    1    2    0    0  0.79153943452E-02  0.12442796584E-02 -0.26001752087E-01  0.27208322460E-01  0.00000000000E+00 0.  1.
       22    1    1    2    0    0 -0.38769929690E-02 -0.57852796050E-03  0.33777672175E-01  0.34004365994E-01  0.00000000000E+00 0. -1.
</event>
<event>
 5   0  0.4143600E+04  0.9118800E+02  0.7546771E-02  0.1180000E+00
      -11   -1    0    0    0    0  0.00000000000E+00  0.00000000000E+00  0.34996269501E-01  0.35000000000E-01  0.51099999109E-03 0. -1.
       11   -1    0    0    0    0 -0.00000000000E+00 -0.00000000000E+00 -0.34996269501E-01  0.35000000000E-01  0.51099999109E-03 0.  1.
       22    1    1    2    0    0  0.27134415708E-02 -0.11867832749E-01  0.11300976465E-01  0.16610848514E-01  0.00000000000E+00 0. -1.
       22    1    1    2    0    0 -0.13065032362E-01  0.24583856063E-01  0.71117370823E-02  0.28733914698E-01  0.00000000000E+00 0.  1.
       22    1    1    2    0    0  0.10351590792E-01 -0.12716023315E-01 -0.18412713547E-01  0.24655236787E-01  0.00000000000E+00 0. -1.
</event>
<event>
 5   0  0.4143600E+04  0.9118800E+02  0.7546771E-02  0.1180000E+00
      -11   -1    0    0    0    0  0.00000000000E+00  0.00000000000E+00  0.34996269501E-01  0.35000000000E-01  0.51099999109E-03 0. -1.
       11   -1    0    0    0    0 -0.00000000000E+00 -0.00000000000E+00 -0.34996269501E-01  0.35000000000E-01  0.51099999109E-03 0. -1.
       22    1    1    2    0    0 -0.41051199078E-02  0.40569199449E-02 -0.61444306574E-02  0.84299844009E-02  0.00000000000E+00 0.  1.
       22    1    1    2    0    0  0.41051199078E-02 -0.40569199449E-02 -0.27413469122E-01  0.28014440887E-01  0.00000000000E+00 0. -1.
       22    1    1    2    0    0 -0.00000000000E+00 -0.00000000000E+00  0.33557899780E-01  0.33555574712E-01  0.00000000000E+00 0. -1.
</event>
<event>
 5   0  0.4143600E+04  0.9118800E+02  0.7546771E-02  0.1180000E+00
      -11   -1    0    0    0    0  0.00000000000E+00  0.00000000000E+00  0.34996269501E-01  0.35000000000E-01  0.51099999109E-03 0.  1.
       11   -1    0    0    0    0 -0.00000000000E+00 -0.00000000000E+00 -0.34996269501E-01  0.35000000000E-01  0.51099999109E-03 0.  1.
       22    1    1    2    0    0 -0.43914606454E-02  0.17986666737E-01 -0.41401363110E-02  0.18972238550E-01  0.00000000000E+00 0. -1.
       22    1    1    2    0    0  0.43914606454E-02 -0.17986666737E-01 -0.19789479424E-01  0.27100343223E-01  0.00000000000E+00 0.  1.
       22    1    1    2    0    0  0.00000000000E+00  0.00000000000E+00  0.23929615735E-01  0.23927418227E-01  0.00000000000E+00 0.  1.
</event>
<event>
 5   0  0.4143600E+04  0.9118800E+02  0.7546771E-02  0.1180000E+00
      -11   -1    0    0    0    0  0.00000000000E+00  0.00000000000E+00  0.34996269501E-01  0.35000000000E-01  0.51099999109E-03 0.  1.
       11   -1    0    0    0    0 -0.00000000000E+00 -0.00000000000E+00 -0.34996269501E-01  0.35000000000E-01  0.51099999109E-03 0. -1.
       22    1    1    2    0    0  0.70286767706E-02 -0.17424485920E-01  0.15085874154E-01  0.24095613827E-01  0.00000000000E+00 0.  1.
       22    1    1    2    0    0 -0.69555090135E-02 -0.15504042135E-02  0.11326996490E-01  0.13382216123E-01  0.00000000000E+00 0.  1.
       22    1    1    2    0    0 -0.73167757136E-04  0.18974890133E-01 -0.26412870644E-01  0.32522170050E-01  0.00000000000E+00 0. -1.
</event>
<event>
 5   0  0.4143600E+04  0.9118800E+02  0.7546771E-02  0.1180000E+00
      -11   -1    0    0    0    0  0.00000000000E+00  0.00000000000E+00  0.34996269501E-01  0.35000000000E-01  0.51099999109E-03 0. -1.
       11   -1    0    0    0    0 -0.00000000000E+00 -0.00000000000E+00 -0.34996269501E-01  0.35000000000E-01  0.51099999109E-03 0.  1.
       22    1    1    2    0    0  0.10249656178E-02 -0.10523654342E-02  0.40073758813E-02  0.42681481908E-02  0.00000000000E+00 0.  1.
       22    1    1    2    0    0 -0.16828251680E-01 -0.16493318043E-02 -0.30437684254E-01  0.34819003041E-01  0.00000000000E+00 0.  1.
       22    1    1    2    0    0  0.15803286062E-01  0.27016972385E-02  0.26430308372E-01  0.30912848769E-01  0.00000000000E+00 0. -1.
</event>
<event>
 5   0  0.4143600E+04  0.9118800E+02  0.7546771E-02  0.1180000E+00
      -11   -1    0    0    0    0  0.00000000000E+00  0.00000000000E+00  0.34996269501E-01  0.35000000000E-01  0.51099999109E-03 0. -1.
       11   -1    0    0    0    0 -0.00000000000E+00 -0.00000000000E+00 -0.34996269501E-01  0.35000000000E-01  0.51099999109E-03 0.  1.
       22    1    1    2    0    0 -0.53791717111E-02 -0.13195166998E-01 -0.30098080916E-01  0.33300786706E-01  0.00000000000E+00 0.  1.
       22    1    1    2    0    0  0.75124856496E-02  0.12581330139E-01  0.13407735800E-01  0.19861890343E-01  0.00000000000E+00 0. -1.
       22    1    1    2    0    0 -0.21333139385E-02  0.61383685915E-03  0.16690345116E-01  0.16837322951E-01  0.00000000000E+00 0.  1.
</event>
<event>
 5   0  0.4143600E+04  0.9118800E+02  0.7546771E-02  0.1180000E+00
      -11   -1    0    0    0    0  0.00000000000E+00  0.00000000000E+00  0.34996269501E-01  0.35000000000E-01  0.51099999109E-03 0. -1.
       11   -1    0    0    0    0 -0.00000000000E+00 -0.00000000000E+00 -0.34996269501E-01  0.35000000000E-01  0.51099999109E-03 0.  1.
       22    1    1    2    0    0 -0.30055685023E-02  0.15211007152E-02 -0.29419617084E-01  0.29611839841E-01  0.00000000000E+00 0.  1.
       22    1    1    2    0    0  0.34024976125E-02 -0.18180738349E-02 -0.48038423528E-02  0.61611105997E-02  0.00000000000E+00 0. -1.
       22    1    1    2    0    0 -0.39692911016E-03  0.29697311968E-03  0.34223459436E-01  0.34227049559E-01  0.00000000000E+00 0. -1.
</event>
<event>
 5   0  0.4143600E+04  0.9118800E+02  0.7546771E-02  0.1180000E+00
      -11   -1    0    0    0    0  0.00000000000E+00  0.00000000000E+00  0.34996269501E-01  0.35000000000E-01  0.51099999109E-03 0.  1.
       11   -1    0    0    0    0 -0.00000000000E+00 -0.00000000000E+00 -0.34996269501E-01  0.35000000000E-01  0.51099999109E-03 0. -1.
       22    1    1    2    0    0  0.12319745244E-01 -0.30665550826E-01 -0.34127121332E-02  0.33223466623E-01  0.00000000000E+00 0. -1.
       22    1    1    2    0    0  0.76135922508E-03 -0.48933038337E-03 -0.23324848359E-02  0.25019187844E-02  0.00000000000E+00 0. -1.
       22    1    1    2    0    0 -0.13081104469E-01  0.31154881209E-01  0.57451969692E-02  0.34274614593E-01  0.00000000000E+00 0.  1.
</event>
<event>
 5   0  0.4143600E+04  0.9118800E+02  0.7546771E-02  0.1180000E+00
      -11   -1    0    0    0    0  0.00000000000E+00  0.00000000000E+00  0.34996269501E-01  0.35000000000E-01  0.51099999109E-03 0. -1.
       11   -1    0    0    0    0 -0.00000000000E+00 -0.00000000000E+00 -0.34996269501E-01  0.35000000000E-01  0.51099999109E-03 0.  1.
       22    1    1    2    0    0 -0.74768859771E-02 -0.16166687939E-01  0.15409030559E-01  0.23552151613E-01  0.00000000000E+00 0. -1.
       22    1    1    2    0    0 -0.69492508924E-03  0.62974986062E-03  0.13010138161E-01  0.13043895152E-01  0.00000000000E+00 0.  1.
       22    1    1    2    0    0  0.81718110663E-02  0.15536938078E-01 -0.28419168721E-01  0.33403953235E-01  0.00000000000E+00 0.  1.
</event>
<event>
 5   0  0.4143600E+04  0.9118800E+02  0.7546771E-02  0.1180000E+00
      -11   -1    0    0    0    0  0.00000000000E+00  0.00000000000E+00  0.34996269501E-01  0.35000000000E-01  0.51099999109E-03 0.  1.
       11   -1    0    0    0    0 -0.00000000000E+00 -0.00000000000E+00 -0.34996269501E-01  0.35000000000E-01  0.51099999109E-03 0. -1.
       22    1    1    2    0    0 -0.69240384639E-02  0.93010395850E-02 -0.32922641311E-01  0.34904898753E-01  0.00000000000E+00 0. -1.
       22    1    1    2    0    0  0.23931075804E-03 -0.68339516579E-03  0.48111473210E-03  0.86935031891E-03  0.00000000000E+00 0.  1.
       22    1    1    2    0    0  0.66847277059E-02 -0.86176444193E-02  0.32441526579E-01  0.34225750929E-01  0.00000000000E+00 0.  1.
</event>
<event>
 5   0  0.4143600E+04  0.9118800E+02  0.7546771E-02  0.1180000E+00
      -11   -1    0    0    0    0  0.00000000000E+00  0.00000000000E+00  0.34996269501E-01  0.35000000000E-01  0.51099999109E-03 0. -1.
       11   -1    0    0    0    0 -0.00000000000E+00 -0.00000000000E+00 -0.34996269501E-01  0.35000000000E-01  0.51099999109E-03 0.  1.
       22    1    1    2    0    0  0.48273761396E-03  0.80260221470E-03 -0.34593562267E-01  0.34606238690E-01  0.00000000000E+00 0.  1.
       22    1    1    2    0    0 -0.19933290296E-04  0.15252983428E-03 -0.37695927779E-03  0.40713754865E-03  0.00000000000E+00 0.  1.
       22    1    1    2    0    0 -0.46280432366E-03 -0.95513204898E-03  0.34970521545E-01  0.34986623761E-01  0.00000000000E+00 0. -1.
</event>
<event>
 5   0  0.4143600E+04  0.9118800E+02  0.7546771E-02  0.1180000E+00
      -11   -1    0    0    0    0  0.00000000000E+00  0.00000000000E+00  0.34996269501E-01  0.35000000000E-01  0.51099999109E-03 0.  1.
       11   -1    0    0    0    0 -0.00000000000E+00 -0.00000000000E+00 -0.34996269501E-01  0.35000000000E-01  0.51099999109E-03 0.  1.
       22    1    1    2    0    0 -0.96794588356E-03  0.61987378350E-05 -0.10549838390E-02  0.14317641420E-02  0.00000000000E+00 0. -1.
       22    1    1    2    0    0  0.45935977701E-03 -0.60744657085E-03  0.34802850568E-01  0.34811182261E-01  0.00000000000E+00 0.  1.
       22    1    1    2    0    0  0.50858610655E-03  0.60124783301E-03 -0.33747866729E-01  0.33757053597E-01  0.00000000000E+00 0.  1.
</event>
<event>
 5   0  0.4143600E+04  0.9118800E+02  0.7546771E-02  0.1180000E+00
      -11   -1    0    0    0    0  0.00000000000E+00  0.00000000000E+00  0.34996269501E-01  0.35000000000E-01  0.51099999109E-03 0.  1.
       11   -1    0    0    0    0 -0.00000000000E+00 -0.00000000000E+00 -0.34996269501E-01  0.35000000000E-01  0.51099999109E-03 0. -1.
       22    1    1    2    0    0 -0.30129674047E-02  0.86943398482E-03 -0.52541265204E-02  0.61188016416E-02  0.00000000000E+00 0. -1.
       22    1    1    2    0    0  0.93826528556E-02 -0.34453257366E-02 -0.28101048698E-01  0.29825716789E-01  0.00000000000E+00 0. -1.
       22    1    1    2    0    0 -0.63696854509E-02  0.25758917518E-02  0.33355175219E-01  0.34055481569E-01  0.00000000000E+00 0.  1.
</event>
<event>
 5   0  0.4143600E+04  0.9118800E+02  0.7546771E-02  0.1180000E+00
      -11   -1    0    0    0    0  0.00000000000E+00  0.00000000000E+00  0.34996269501E-01  0.35000000000E-01  0.51099999109E-03 0.  1.
       11   -1    0    0    0    0 -0.00000000000E+00 -0.00000000000E+00 -0.34996269501E-01  0.35000000000E-01  0.51099999109E-03 0. -1.
       22    1    1    2    0    0 -0.16370851406E-01 -0.14748925631E-01  0.19660680796E-01  0.29530965991E-01  0.00000000000E+00 0.  1.
       22    1    1    2    0    0  0.16590209276E-01  0.95496490720E-02 -0.25987740219E-01  0.32276825787E-01  0.00000000000E+00 0. -1.
       22    1    1    2    0    0 -0.21935786983E-03  0.51992765585E-02  0.63270594227E-02  0.81922082216E-02  0.00000000000E+00 0. -1.
</event>
<event>
 5   0  0.4143600E+04  0.9118800E+02  0.7546771E-02  0.1180000E+00
      -11   -1    0    0    0    0  0.00000000000E+00  0.00000000000E+00  0.34996269501E-01  0.35000000000E-01  0.51099999109E-03 0. -1.
       11   -1    0    0    0    0 -0.00000000000E+00 -0.00000000000E+00 -0.34996269501E-01  0.35000000000E-01  0.51099999109E-03 0.  1.
       22    1    1    2    0    0  0.10785607538E-03  0.20201099440E-03 -0.47262644201E-03  0.52518294769E-03  0.00000000000E+00 0.  1.
       22    1    1    2    0    0 -0.36696340717E-02 -0.80723939617E-03  0.34777670716E-01  0.34980054747E-01  0.00000000000E+00 0. -1.
       22    1    1    2    0    0  0.35617779963E-02  0.60522840176E-03 -0.34305044274E-01  0.34494762306E-01  0.00000000000E+00 0.  1.
</event>
<event>
 5   0  0.4143600E+04  0.9118800E+02  0.7546771E-02  0.1180000E+00
      -11   -1    0    0    0    0  0.00000000000E+00  0.00000000000E+00  0.34996269501E-01  0.35000000000E-01  0.51099999109E-03 0.  1.
       11   -1    0    0    0    0 -0.00000000000E+00 -0.00000000000E+00 -0.34996269501E-01  0.35000000000E-01  0.51099999109E-03 0. -1.
       22    1    1    2    0    0  0.13929286198E-01 -0.10810615733E-03  0.31616583105E-01  0.34549168270E-01  0.00000000000E+00 0.  1.
       22    1    1    2    0    0  0.53565510497E-05 -0.17660538910E-04  0.46921202580E-03  0.46957482091E-03  0.00000000000E+00 0. -1.
       22    1    1    2    0    0 -0.13934642749E-01  0.12576669624E-03 -0.32085795130E-01  0.34981256909E-01  0.00000000000E+00 0. -1.
</event>
<event>
 5   0  0.4143600E+04  0.9118800E+02  0.7546771E-02  0.1180000E+00
      -11   -1    0    0    0    0  0.00000000000E+00  0.00000000000E+00  0.34996269501E-01  0.35000000000E-01  0.51099999109E-03 0. -1.
       11   -1    0    0    0    0 -0.00000000000E+00 -0.00000000000E+00 -0.34996269501E-01  0.35000000000E-01  0.51099999109E-03 0.  1.
       22    1    1    2    0    0 -0.54994976668E-03  0.26327297620E-03  0.46995084541E-02  0.47388961917E-02  0.00000000000E+00 0. -1.
       22    1    1    2    0    0  0.44590466692E-02  0.14554394402E-01  0.26466190583E-01  0.30531504018E-01  0.00000000000E+00 0. -1.
       22    1    1    2    0    0 -0.39090969025E-02 -0.14817667378E-01 -0.31165699037E-01  0.34729599790E-01  0.00000000000E+00 0.  1.
</event>
<event>
 5   0  0.4143600E+04  0.9118800E+02  0.7546771E-02  0.1180000E+00
      -11   -1    0    0    0    0  0.00000000000E+00  0.00000000000E+00  0.34996269501E-01  0.35000000000E-01  0.51099999109E-03 0.  1.
       11   -1    0    0    0    0 -0.00000000000E+00 -0.00000000000E+00 -0.34996269501E-01  0.35000000000E-01  0.51099999109E-03 0.  1.
       22    1    1    2    0    0 -0.43106424927E-03 -0.56995441051E-03  0.34914000031E-01  0.34921312441E-01  0.00000000000E+00 0.  1.
       22    1    1    2    0    0 -0.35596315088E-03  0.40984033821E-03 -0.87165518122E-03  0.10268698177E-02  0.00000000000E+00 0. -1.
       22    1    1    2    0    0  0.78702740016E-03  0.16011407230E-03 -0.34042344850E-01  0.34051817742E-01  0.00000000000E+00 0.  1.
</event>
<event>
 5   0  0.4143600E+04  0.9118800E+02  0.7546771E-02  0.1180000E+00
      -11   -1    0    0    0    0  0.00000000000E+00  0.00000000000E+00  0.34996269501E-01  0.35000000000E-01  0.51099999109E-03 0.  1.
       11   -1    0    0    0    0 -0.00000000000E+00 -0.00000000000E+00 -0.34996269501E-01  0.35000000000E-01  0.51099999109E-03 0. -1.
       22    1    1    2    0    0  0.89159097609E-04 -0.19735150939E-03 -0.54689730670E-03  0.58821222957E-03  0.00000000000E+00 0. -1.
       22    1    1    2    0    0  0.37488737991E-02  0.77930265108E-04  0.34771174325E-01  0.34972770720E-01  0.00000000000E+00 0.  1.
       22    1    1    2    0    0 -0.38380328967E-02  0.11942124429E-03 -0.34224277019E-01  0.34439017050E-01  0.00000000000E+00 0. -1.
</event>
<event>
 5   0  0.4143600E+04  0.9118800E+02  0.7546771E-02  0.1180000E+00
      -11   -1    0    0    0    0  0.00000000000E+00  0.00000000000E+00  0.34996269501E-01  0.35000000000E-01  0.51099999109E-03 0. -1.
       11   -1    0    0    0    0 -0.00000000000E+00 -0.00000000000E+00 -0.34996269501E-01  0.35000000000E-01  0.51099999109E-03 0.  1.
       22    1    1    2    0    0 -0.21896679491E-04 -0.79661175017E-04 -0.16196530097E-02  0.16217586871E-02  0.00000000000E+00 0. -1.
       22    1    1    2    0    0 -0.90169734624E-02 -0.14499815276E-01  0.30403706588E-01  0.34870271404E-01  0.00000000000E+00 0. -1.
       22    1    1    2    0    0  0.90388701418E-02  0.14579476451E-01 -0.28784053579E-01  0.33507969909E-01  0.00000000000E+00 0.  1.
</event>
<event>
 5   0  0.4143600E+04  0.9118800E+02  0.7546771E-02  0.1180000E+00
      -11   -1    0    0    0    0  0.00000000000E+00  0.00000000000E+00  0.34996269501E-01  0.35000000000E-01  0.51099999109E-03 0. -1.
       11   -1    0    0    0    0 -0.00000000000E+00 -0.00000000000E+00 -0.34996269501E-01  0.35000000000E-01  0.51099999109E-03 0.  1.
       22    1    1    2    0    0 -0.11812003095E-01  0.89371406298E-02 -0.30841218350E-01  0.34213690959E-01  0.00000000000E+00 0.  1.
       22    1    1    2    0    0 -0.47169008073E-03  0.17378453169E-02  0.21845702541E-02  0.28310678326E-02  0.00000000000E+00 0.  1.
       22    1    1    2    0    0  0.12283693176E-01 -0.10674985947E-01  0.28656648096E-01  0.32955241208E-01  0.00000000000E+00 0. -1.
</event>
<event>
 5   0  0.4143600E+04  0.9118800E+02  0.7546771E-02  0.1180000E+00
      -11   -1    0    0    0    0  0.00000000000E+00  0.00000000000E+00  0.34996269501E-01  0.35000000000E-01  0.51099999109E-03 0.  1.
       11   -1    0    0    0    0 -0.00000000000E+00 -0.00000000000E+00 -0.34996269501E-01  0.35000000000E-01  0.51099999109E-03 0. -1.
       22    1    1    2    0    0  0.35596517046E-02  0.13945179196E-02  0.34764900463E-01  0.34974477904E-01  0.00000000000E+00 0.  1.
       22    1    1    2    0    0 -0.36871559216E-02 -0.15126962347E-02 -0.34270287996E-01  0.34501246470E-01  0.00000000000E+00 0. -1.
       22    1    1    2    0    0  0.12750421693E-03  0.11817831509E-03 -0.49461246651E-03  0.52427562553E-03  0.00000000000E+00 0.  1.
</event>
<event>
 5   0  0.4143600E+04  0.9118800E+02  0.7546771E-02  0.1180000E+00
      -11   -1    0    0    0    0  0.00000000000E+00  0.00000000000E+00  0.34996269501E-01  0.35000000000E-01  0.51099999109E-03 0. -1.
       11   -1    0    0    0    0 -0.00000000000E+00 -0.00000000000E+00 -0.34996269501E-01  0.35000000000E-01  0.51099999109E-03 0.  1.
       22    1    1    2    0    0 -0.72379803967E-03 -0.84946176018E-03 -0.19029827583E-01  0.19062523619E-01  0.00000000000E+00 0.  1.
       22    1    1    2    0    0  0.55035217049E-02 -0.52265944383E-03 -0.15290276409E-01  0.16258981417E-01  0.00000000000E+00 0.  1.
       22    1    1    2    0    0 -0.47797236652E-02  0.13721212040E-02  0.34320103992E-01  0.34678494964E-01  0.00000000000E+00 0. -1.
</event>
<event>
 5   0  0.4143600E+04  0.9118800E+02  0.7546771E-02  0.1180000E+00
      -11   -1    0    0    0    0  0.00000000000E+00  0.00000000000E+00  0.34996269501E-01  0.35000000000E-01  0.51099999109E-03 0.  1.
       11   -1    0    0    0    0 -0.00000000000E+00 -0.00000000000E+00 -0.34996269501E-01  0.35000000000E-01  0.51099999109E-03 0. -1.
       22    1    1    2    0    0  0.18192461703E-01  0.13196043804E-01  0.26375625546E-01  0.34652198455E-01  0.00000000000E+00 0.  1.
       22    1    1    2    0    0 -0.18094241253E-01 -0.13602651813E-01 -0.24219359161E-01  0.33151335735E-01  0.00000000000E+00 0. -1.
       22    1    1    2    0    0 -0.98220449908E-04  0.40660800920E-03 -0.21562663847E-02  0.21964658094E-02  0.00000000000E+00 0.  1.
</event>
<event>
 5   0  0.4143600E+04  0.9118800E+02  0.7546771E-02  0.1180000E+00
      -11   -1    0    0    0    0  0.00000000000E+00  0.00000000000E+00  0.34996269501E-01  0.35000000000E-01  0.51099999109E-03 0. -1.
       11   -1    0    0    0    0 -0.00000000000E+00 -0.00000000000E+00 -0.34996269501E-01  0.35000000000E-01  0.51099999109E-03 0.  1.
       22    1    1    2    0    0 -0.56734418582E-02 -0.72491022904E-02 -0.12977771664E-02  0.92963246559E-02  0.00000000000E+00 0.  1.
       22    1    1    2    0    0  0.10836454721E-01  0.24351922416E-01  0.21128385404E-01  0.34012549831E-01  0.00000000000E+00 0. -1.
       22    1    1    2    0    0 -0.51630128626E-02 -0.17102820125E-01 -0.19830608238E-01  0.26691125513E-01  0.00000000000E+00 0.  1.
</event>
<event>
 5   0  0.4143600E+04  0.9118800E+02  0.7546771E-02  0.1180000E+00
      -11   -1    0    0    0    0  0.00000000000E+00  0.00000000000E+00  0.34996269501E-01  0.35000000000E-01  0.51099999109E-03 0. -1.
       11   -1    0    0    0    0 -0.00000000000E+00 -0.00000000000E+00 -0.34996269501E-01  0.35000000000E-01  0.51099999109E-03 0.  1.
       22    1    1    2    0    0 -0.17920022076E-02 -0.12291224191E-02 -0.33987298187E-01  0.34056694671E-01  0.00000000000E+00 0.  1.
       22    1    1    2    0    0  0.11759583093E-02  0.13845876834E-02  0.34835887006E-01  0.34883219240E-01  0.00000000000E+00 0. -1.
       22    1    1    2    0    0  0.61604389829E-03 -0.15546526435E-03 -0.84858881956E-03  0.10600860898E-02  0.00000000000E+00 0. -1.
</event>
<event>
 5   0  0.4143600E+04  0.9118800E+02  0.7546771E-02  0.1180000E+00
      -11   -1    0    0    0    0  0.00000000000E+00  0.00000000000E+00  0.34996269501E-01  0.35000000000E-01  0.51099999109E-03 0. -1.
       11   -1    0    0    0    0 -0.00000000000E+00 -0.00000000000E+00 -0.34996269501E-01  0.35000000000E-01  0.51099999109E-03 0.  1.
       22    1    1    2    0    0  0.12454781375E-01 -0.21476742222E-01  0.78929109682E-02  0.26051297071E-01  0.00000000000E+00 0. -1.
       22    1    1    2    0    0 -0.89468365134E-02  0.80135752158E-02  0.13726507764E-01  0.18239525398E-01  0.00000000000E+00 0.  1.
       22    1    1    2    0    0 -0.35079448616E-02  0.13463167006E-01 -0.21619418732E-01  0.25709177531E-01  0.00000000000E+00 0.  1.
</event>
<event>
 5   0  0.4143600E+04  0.9118800E+02  0.7546771E-02  0.1180000E+00
      -11   -1    0    0    0    0  0.00000000000E+00  0.00000000000E+00  0.34996269501E-01  0.35000000000E-01  0.51099999109E-03 0.  1.
       11   -1    0    0    0    0 -0.00000000000E+00 -0.00000000000E+00 -0.34996269501E-01  0.35000000000E-01  0.51099999109E-03 0. -1.
       22    1    1    2    0    0  0.46986244613E-04 -0.20000702028E-03 -0.62768284356E-03  0.66045156328E-03  0.00000000000E+00 0. -1.
       22    1    1    2    0    0 -0.15782140588E-01  0.15659085391E-01  0.26988781381E-01  0.34966801931E-01  0.00000000000E+00 0.  1.
       22    1    1    2    0    0  0.15735154344E-01 -0.15459078371E-01 -0.26361098537E-01  0.34372746506E-01  0.00000000000E+00 0. -1.
</event>
<event>
 5   0  0.4143600E+04  0.9118800E+02  0.7546771E-02  0.1180000E+00
      -11   -1    0    0    0    0  0.00000000000E+00  0.00000000000E+00  0.34996269501E-01  0.35000000000E-01  0.51099999109E-03 0. -1.
       11   -1    0    0    0    0 -0.00000000000E+00 -0.00000000000E+00 -0.34996269501E-01  0.35000000000E-01  0.51099999109E-03 0.  1.
       22    1    1    2    0    0 -0.47939267559E-03  0.88978500866E-04  0.34916807786E-01  0.34920211919E-01  0.00000000000E+00 0. -1.
       22    1    1    2    0    0  0.72438233085E-03 -0.61225537190E-03 -0.33876676259E-01  0.33889951029E-01  0.00000000000E+00 0.  1.
       22    1    1    2    0    0 -0.24498965526E-03  0.52327687104E-03 -0.10401315274E-02  0.11898370516E-02  0.00000000000E+00 0. -1.
</event>
<event>
 5   0  0.4143600E+04  0.9118800E+02  0.7546771E-02  0.1180000E+00
      -11   -1    0    0    0    0  0.00000000000E+00  0.00000000000E+00  0.34996269501E-01  0.35000000000E-01  0.51099999109E-03 0. -1.
       11   -1    0    0    0    0 -0.00000000000E+00 -0.00000000000E+00 -0.34996269501E-01  0.35000000000E-01  0.51099999109E-03 0.  1.
       22    1    1    2    0    0 -0.11308960207E-01 -0.68773324652E-02  0.31266427163E-01  0.33952610362E-01  0.00000000000E+00 0. -1.
       22    1    1    2    0    0  0.58567576090E-02 -0.22707250138E-02 -0.17818978805E-01  0.18893750486E-01  0.00000000000E+00 0.  1.
       22    1    1    2    0    0  0.54522025985E-02  0.91480574789E-02 -0.13447448359E-01  0.17153639153E-01  0.00000000000E+00 0.  1.
</event>
<event>
 5   0  0.4143600E+04  0.9118800E+02  0.7546771E-02  0.1180000E+00
      -11   -1    0    0    0    0  0.00000000000E+00  0.00000000000E+00  0.34996269501E-01  0.35000000000E-01  0.51099999109E-03 0.  1.
       11   -1    0    0    0    0 -0.00000000000E+00 -0.00000000000E+00 -0.34996269501E-01  0.35000000000E-01  0.51099999109E-03 0. -1.
       22    1    1    2    0    0 -0.40521860109E-02 -0.10698962555E-01  0.32754724116E-01  0.34695244099E-01  0.00000000000E+00 0.  1.
       22    1    1    2    0    0 -0.93527133464E-05  0.10872425945E-04  0.31442785751E-03  0.31475476243E-03  0.00000000000E+00 0.  1.
       22    1    1    2    0    0  0.40615387242E-02  0.10688090129E-01 -0.33069151973E-01  0.34990001138E-01  0.00000000000E+00 0. -1.
</event>
<event>
 5   0  0.4143600E+04  0.9118800E+02  0.7546771E-02  0.1180000E+00
      -11   -1    0    0    0    0  0.00000000000E+00  0.00000000000E+00  0.34996269501E-01  0.35000000000E-01  0.51099999109E-03 0. -1.
       11   -1    0    0    0    0 -0.00000000000E+00 -0.00000000000E+00 -0.34996269501E-01  0.35000000000E-01  0.51099999109E-03 0.  1.
       22    1    1    2    0    0  0.19089120451E-02 -0.85576400589E-02 -0.15755525482E-01  0.18030910454E-01  0.00000000000E+00 0.  1.
       22    1    1    2    0    0 -0.11884483030E-01  0.15680008090E-02 -0.14817283128E-01  0.19059156401E-01  0.00000000000E+00 0.  1.
       22    1    1    2    0    0  0.99755709848E-02  0.69896392498E-02  0.30572808610E-01  0.32909933145E-01  0.00000000000E+00 0. -1.
</event>
<event>
 5   0  0.4143600E+04  0.9118800E+02  0.7546771E-02  0.1180000E+00
      -11   -1    0    0    0    0  0.00000000000E+00  0.00000000000E+00  0.34996269501E-01  0.35000000000E-01  0.51099999109E-03 0. -1.
       11   -1    0    0    0    0 -0.00000000000E+00 -0.00000000000E+00 -0.34996269501E-01  0.35000000000E-01  0.51099999109E-03 0.  1.
       22    1    1    2    0    0  0.11459168984E-02  0.46562180849E-03  0.75815392766E-02  0.76817749908E-02  0.00000000000E+00 0.  1.
       22    1    1    2    0    0  0.19528946428E-01 -0.26067013422E-02  0.19805867554E-01  0.27936482063E-01  0.00000000000E+00 0. -1.
       22    1    1    2    0    0 -0.20674863327E-01  0.21410795337E-02 -0.27387406830E-01  0.34381742946E-01  0.00000000000E+00 0.  1.
</event>
<event>
 5   0  0.4143600E+04  0.9118800E+02  0.7546771E-02  0.1180000E+00
      -11   -1    0    0    0    0  0.00000000000E+00  0.00000000000E+00  0.34996269501E-01  0.35000000000E-01  0.51099999109E-03 0. -1.
       11   -1    0    0    0    0 -0.00000000000E+00 -0.00000000000E+00 -0.34996269501E-01  0.35000000000E-01  0.51099999109E-03 0.  1.
       22    1    1    2    0    0 -0.71016282220E-02  0.29458870362E-02  0.67831041153E-02  0.10252895946E-01  0.00000000000E+00 0. -1.
       22    1    1    2    0    0 -0.62477942025E-02  0.16724926502E-01 -0.24345642880E-01  0.30190535373E-01  0.00000000000E+00 0.  1.
       22    1    1    2    0    0  0.13349422424E-01 -0.19670813538E-01  0.17562538765E-01  0.29556568681E-01  0.00000000000E+00 0. -1.
</event>
<event>
 5   0  0.4143600E+04  0.9118800E+02  0.7546771E-02  0.1180000E+00
      -11   -1    0    0    0    0  0.00000000000E+00  0.00000000000E+00  0.34996269501E-01  0.35000000000E-01  0.51099999109E-03 0.  1.
       11   -1    0    0    0    0 -0.00000000000E+00 -0.00000000000E+00 -0.34996269501E-01  0.35000000000E-01  0.51099999109E-03 0. -1.
       22    1    1    2    0    0 -0.54523291141E-03 -0.22384144750E-02  0.31273149629E-01  0.31357896390E-01  0.00000000000E+00 0.  1.
       22    1    1    2    0    0  0.50141396792E-02 -0.84626411932E-02 -0.81511899638E-02  0.12774967339E-01  0.00000000000E+00 0.  1.
       22    1    1    2    0    0 -0.44689067678E-02  0.10701055668E-01 -0.23121959665E-01  0.25867136271E-01  0.00000000000E+00 0. -1.
</event>
<event>
 5   0  0.4143600E+04  0.9118800E+02  0.7546771E-02  0.1180000E+00
      -11   -1    0    0    0    0  0.00000000000E+00  0.00000000000E+00  0.34996269501E-01  0.35000000000E-01  0.51099999109E-03 0. -1.
       11   -1    0    0    0    0 -0.00000000000E+00 -0.00000000000E+00 -0.34996269501E-01  0.35000000000E-01  0.51099999109E-03 0.  1.
       22    1    1    2    0    0  0.15159007704E-03 -0.90693857739E-04 -0.13673413893E-01  0.13674554925E-01  0.00000000000E+00 0.  1.
       22    1    1    2    0    0 -0.43525655807E-02 -0.56006300628E-02  0.34036986366E-01  0.34768208540E-01  0.00000000000E+00 0. -1.
       22    1    1    2    0    0  0.42009755036E-02  0.56913239205E-02 -0.20363572473E-01  0.21557236535E-01  0.00000000000E+00 0.  1.
</event>
<event>
 5   0  0.4143600E+04  0.9118800E+02  0.7546771E-02  0.1180000E+00
      -11   -1    0    0    0    0  0.00000000000E+00  0.00000000000E+00  0.34996269501E-01  0.35000000000E-01  0.51099999109E-03 0.  1.
       11   -1    0    0    0    0 -0.00000000000E+00 -0.00000000000E+00 -0.34996269501E-01  0.35000000000E-01  0.51099999109E-03 0. -1.
       22    1    1    2    0    0  0.27732321938E-02 -0.64314256390E-03 -0.49954429225E-02  0.57496868741E-02  0.00000000000E+00 0. -1.
       22    1    1    2    0    0 -0.24158117128E-02  0.91155031998E-03  0.34573046420E-01  0.34669332399E-01  0.00000000000E+00 0.  1.
       22    1    1    2    0    0 -0.35742048095E-03 -0.26840775608E-03 -0.29577603498E-01  0.29580980727E-01  0.00000000000E+00 0. -1.
</event>
<event>
 5   0  0.4143600E+04  0.9118800E+02  0.7546771E-02  0.1180000E+00
      -11   -1    0    0    0    0  0.00000000000E+00  0.00000000000E+00  0.34996269501E-01  0.35000000000E-01  0.51099999109E-03 0.  1.
       11   -1    0    0    0    0 -0.00000000000E+00 -0.00000000000E+00 -0.34996269501E-01  0.35000000000E-01  0.51099999109E-03 0. -1.
       22    1    1    2    0    0  0.38615126209E-03 -0.17396558535E-02 -0.34652535067E-01  0.34698324194E-01  0.00000000000E+00 0. -1.
       22    1    1    2    0    0 -0.51703599523E-03  0.15442444638E-02  0.34912871774E-01  0.34950831645E-01  0.00000000000E+00 0.  1.
       22    1    1    2    0    0  0.13088473313E-03  0.19541138971E-03 -0.26033670652E-03  0.35084416107E-03  0.00000000000E+00 0. -1.
</event>
<event>
 5   0  0.4143600E+04  0.9118800E+02  0.7546771E-02  0.1180000E+00
      -11   -1    0    0    0    0  0.00000000000E+00  0.00000000000E+00  0.34996269501E-01  0.35000000000E-01  0.51099999109E-03 0. -1.
       11   -1    0    0    0    0 -0.00000000000E+00 -0.00000000000E+00 -0.34996269501E-01  0.35000000000E-01  0.51099999109E-03 0.  1.
       22    1    1    2    0    0 -0.13561381934E-01 -0.13149993700E-01 -0.26743263955E-01  0.32741954451E-01  0.00000000000E+00 0.  1.
       22    1    1    2    0    0  0.14488500897E-01  0.13140016357E-01  0.13004791455E-01  0.23488322394E-01  0.00000000000E+00 0. -1.
       22    1    1    2    0    0 -0.92711896309E-03  0.99773432026E-05  0.13738472501E-01  0.13769723155E-01  0.00000000000E+00 0. -1.
</event>
<event>
 5   0  0.4143600E+04  0.9118800E+02  0.7546771E-02  0.1180000E+00
      -11   -1    0    0    0    0  0.00000000000E+00  0.00000000000E+00  0.34996269501E-01  0.35000000000E-01  0.51099999109E-03 0. -1.
       11   -1    0    0    0    0 -0.00000000000E+00 -0.00000000000E+00 -0.34996269501E-01  0.35000000000E-01  0.51099999109E-03 0.  1.
       22    1    1    2    0    0 -0.60062427077E-02 -0.53996010086E-02 -0.15800716038E-01  0.17745232313E-01  0.00000000000E+00 0. -1.
       22    1    1    2    0    0  0.23757452741E-01  0.12850354937E-01 -0.52157961903E-03  0.27015185138E-01  0.00000000000E+00 0. -1.
       22    1    1    2    0    0 -0.17751210034E-01 -0.74507539280E-02  0.16322295657E-01  0.25239582549E-01  0.00000000000E+00 0.  1.
</event>
<event>
 5   0  0.4143600E+04  0.9118800E+02  0.7546771E-02  0.1180000E+00
      -11   -1    0    0    0    0  0.00000000000E+00  0.00000000000E+00  0.34996269501E-01  0.35000000000E-01  0.51099999109E-03 0. -1.
       11   -1    0    0    0    0 -0.00000000000E+00 -0.00000000000E+00 -0.34996269501E-01  0.35000000000E-01  0.51099999109E-03 0.  1.
       22    1    1    2    0    0  0.18505871872E-01 -0.14162503235E-01  0.25976003489E-01  0.34896941827E-01  0.00000000000E+00 0. -1.
       22    1    1    2    0    0  0.54541332433E-04 -0.20746405146E-04 -0.63737349109E-03  0.64003916865E-03  0.00000000000E+00 0. -1.
       22    1    1    2    0    0 -0.18560413205E-01  0.14183249640E-01 -0.25338629998E-01  0.34463019004E-01  0.00000000000E+00 0.  1.
</event>
<event>
 5   0  0.4143600E+04  0.9118800E+02  0.7546771E-02  0.1180000E+00
      -11   -1    0    0    0    0  0.00000000000E+00  0.00000000000E+00  0.34996269501E-01  0.35000000000E-01  0.51099999109E-03 0.  1.
       11   -1    0    0    0    0 -0.00000000000E+00 -0.00000000000E+00 -0.34996269501E-01  0.35000000000E-01  0.51099999109E-03 0. -1.
       22    1    1    2    0    0  0.14291211565E-02 -0.15854751422E-02  0.34582139582E-01  0.34647950831E-01  0.00000000000E+00 0.  1.
       22    1    1    2    0    0  0.11359018004E-02  0.29308675805E-02 -0.77374051734E-02  0.83515086357E-02  0.00000000000E+00 0.  1.
       22    1    1    2    0    0 -0.25650229569E-02 -0.13453924383E-02 -0.26844734409E-01  0.27000540533E-01  0.00000000000E+00 0. -1.
</event>
<event>
 5   0  0.4143600E+04  0.9118800E+02  0.7546771E-02  0.1180000E+00
      -11   -1    0    0    0    0  0.00000000000E+00  0.00000000000E+00  0.34996269501E-01  0.35000000000E-01  0.51099999109E-03 0. -1.
       11   -1    0    0    0    0 -0.00000000000E+00 -0.00000000000E+00 -0.34996269501E-01  0.35000000000E-01  0.51099999109E-03 0.  1.
       22    1    1    2    0    0  0.47922569792E-02 -0.22252792377E-01 -0.25507784589E-01  0.34187710806E-01  0.00000000000E+00 0.  1.
       22    1    1    2    0    0 -0.44688572262E-02  0.22256187783E-01  0.19878981352E-01  0.30174202212E-01  0.00000000000E+00 0. -1.
       22    1    1    2    0    0 -0.32339975297E-03 -0.33954060407E-05  0.56288032370E-02  0.56380869814E-02  0.00000000000E+00 0.  1.
</event>
<event>
 5   0  0.4143600E+04  0.9118800E+02  0.7546771E-02  0.1180000E+00
      -11   -1    0    0    0    0  0.00000000000E+00  0.00000000000E+00  0.34996269501E-01  0.35000000000E-01  0.51099999109E-03 0.  1.
       11   -1    0    0    0    0 -0.00000000000E+00 -0.00000000000E+00 -0.34996269501E-01  0.35000000000E-01  0.51099999109E-03 0. -1.
       22    1    1    2    0    0  0.12726404025E-01  0.10578093953E-02  0.53462340745E-02  0.13844224026E-01  0.00000000000E+00 0.  1.
       22    1    1    2    0    0  0.64538859490E-03 -0.23468720252E-02  0.23872772791E-01  0.23996533406E-01  0.00000000000E+00 0.  1.
       22    1    1    2    0    0 -0.13371792619E-01  0.12890626299E-02 -0.29219006866E-01  0.32159242568E-01  0.00000000000E+00 0. -1.
</event>
<event>
 5   0  0.4143600E+04  0.9118800E+02  0.7546771E-02  0.1180000E+00
      -11   -1    0    0    0    0  0.00000000000E+00  0.00000000000E+00  0.34996269501E-01  0.35000000000E-01  0.51099999109E-03 0. -1.
       11   -1    0    0    0    0 -0.00000000000E+00 -0.00000000000E+00 -0.34996269501E-01  0.35000000000E-01  0.51099999109E-03 0.  1.
       22    1    1    2    0    0  0.39417338450E-02 -0.31912699390E-01  0.11358548105E-01  0.34102408465E-01  0.00000000000E+00 0. -1.
       22    1    1    2    0    0 -0.15787150678E-03 -0.70428063079E-03 -0.14164145098E-02  0.15897058480E-02  0.00000000000E+00 0. -1.
       22    1    1    2    0    0 -0.37838623382E-02  0.32616980021E-01 -0.99421335956E-02  0.34307885687E-01  0.00000000000E+00 0.  1.
</event>
<event>
 5   0  0.4143600E+04  0.9118800E+02  0.7546771E-02  0.1180000E+00
      -11   -1    0    0    0    0  0.00000000000E+00  0.00000000000E+00  0.34996269501E-01  0.35000000000E-01  0.51099999109E-03 0. -1.
       11   -1    0    0    0    0 -0.00000000000E+00 -0.00000000000E+00 -0.34996269501E-01  0.35000000000E-01  0.51099999109E-03 0.  1.
       22    1    1    2    0    0 -0.26799210442E-01 -0.62663366936E-02  0.20041913820E-01  0.34046188706E-01  0.00000000000E+00 0.  1.
       22    1    1    2    0    0  0.25322001300E-01  0.29165157781E-02 -0.14539192400E-01  0.29344470174E-01  0.00000000000E+00 0. -1.
       22    1    1    2    0    0  0.14772091413E-02  0.33498209155E-02 -0.55027214200E-02  0.66093411199E-02  0.00000000000E+00 0. -1.
</event>
<event>
 5   0  0.4143600E+04  0.9118800E+02  0.7546771E-02  0.1180000E+00
      -11   -1    0    0    0    0  0.00000000000E+00  0.00000000000E+00  0.34996269501E-01  0.35000000000E-01  0.51099999109E-03 0. -1.
       11   -1    0    0    0    0 -0.00000000000E+00 -0.00000000000E+00 -0.34996269501E-01  0.35000000000E-01  0.51099999109E-03 0.  1.
       22    1    1    2    0    0  0.70239195487E-03  0.10737782506E-02  0.29958147753E-01  0.29985612733E-01  0.00000000000E+00 0. -1.
       22    1    1    2    0    0 -0.10578225221E-01  0.41155051950E-02 -0.25660878178E-01  0.28059167855E-01  0.00000000000E+00 0.  1.
       22    1    1    2    0    0  0.98758332666E-02 -0.51892834456E-02 -0.42972695749E-02  0.11955219412E-01  0.00000000000E+00 0. -1.
</event>
<event>
 5   0  0.4143600E+04  0.9118800E+02  0.7546771E-02  0.1180000E+00
      -11   -1    0    0    0    0  0.00000000000E+00  0.00000000000E+00  0.34996269501E-01  0.35000000000E-01  0.51099999109E-03 0.  1.
       11   -1    0    0    0    0 -0.00000000000E+00 -0.00000000000E+00 -0.34996269501E-01  0.35000000000E-01  0.51099999109E-03 0. -1.
       22    1    1    2    0    0 -0.12331432967E-01 -0.21294273306E-01 -0.24680558357E-01  0.34851689708E-01  0.00000000000E+00 0. -1.
       22    1    1    2    0    0 -0.25984865330E-03 -0.17484021979E-04  0.37803100706E-03  0.45905822718E-03  0.00000000000E+00 0.  1.
       22    1    1    2    0    0  0.12591281620E-01  0.21311757328E-01  0.24302527350E-01  0.34689252065E-01  0.00000000000E+00 0.  1.
</event>
<event>
 5   0  0.4143600E+04  0.9118800E+02  0.7546771E-02  0.1180000E+00
      -11   -1    0    0    0    0  0.00000000000E+00  0.00000000000E+00  0.34996269501E-01  0.35000000000E-01  0.51099999109E-03 0. -1.
       11   -1    0    0    0    0 -0.00000000000E+00 -0.00000000000E+00 -0.34996269501E-01  0.35000000000E-01  0.51099999109E-03 0.  1.
       22    1    1    2    0    0  0.54190464577E-02  0.28398080776E-02  0.19562372824E-01  0.20496755961E-01  0.00000000000E+00 0. -1.
       22    1    1    2    0    0  0.85711863482E-02  0.45148428546E-02  0.11266523085E-01  0.14858788101E-01  0.00000000000E+00 0. -1.
       22    1    1    2    0    0 -0.13990232806E-01 -0.73546509323E-02 -0.30828895908E-01  0.34644455938E-01  0.00000000000E+00 0.  1.
</event>
<event>
 5   0  0.4143600E+04  0.9118800E+02  0.7546771E-02  0.1180000E+00
      -11   -1    0    0    0    0  0.00000000000E+00  0.00000000000E+00  0.34996269501E-01  0.35000000000E-01  0.51099999109E-03 0.  1.
       11   -1    0    0    0    0 -0.00000000000E+00 -0.00000000000E+00 -0.34996269501E-01  0.35000000000E-01  0.51099999109E-03 0. -1.
       22    1    1    2    0    0 -0.16223512925E-04 -0.17303793742E-05  0.54290108695E-03  0.54314619284E-03  0.00000000000E+00 0. -1.
       22    1    1    2    0    0 -0.14746264636E-01 -0.71578240809E-02  0.30340808923E-01  0.34485525259E-01  0.00000000000E+00 0.  1.
       22    1    1    2    0    0  0.14762488149E-01  0.71595544603E-02 -0.30883710010E-01  0.34971328548E-01  0.00000000000E+00 0. -1.
</event>
<event>
 5   0  0.4143600E+04  0.9118800E+02  0.7546771E-02  0.1180000E+00
      -11   -1    0    0    0    0  0.00000000000E+00  0.00000000000E+00  0.34996269501E-01  0.35000000000E-01  0.51099999109E-03 0.  1.
       11   -1    0    0    0    0 -0.00000000000E+00 -0.00000000000E+00 -0.34996269501E-01  0.35000000000E-01  0.51099999109E-03 0. -1.
       22    1    1    2    0    0 -0.69364872395E-02  0.12410107947E-01  0.31682829489E-01  0.34726464245E-01  0.00000000000E+00 0.  1.
       22    1    1    2    0    0  0.98320487688E-03 -0.20306909480E-03 -0.72545056533E-02  0.73236453464E-02  0.00000000000E+00 0. -1.
       22    1    1    2    0    0  0.59532823627E-02 -0.12207038853E-01 -0.24428323836E-01  0.27949890409E-01  0.00000000000E+00 0. -1.
</event>
<event>
 5   0  0.4143600E+04  0.9118800E+02  0.7546771E-02  0.1180000E+00
      -11   -1    0    0    0    0  0.00000000000E+00  0.00000000000E+00  0.34996269501E-01  0.35000000000E-01  0.51099999109E-03 0. -1.
       11   -1    0    0    0    0 -0.00000000000E+00 -0.00000000000E+00 -0.34996269501E-01  0.35000000000E-01  0.51099999109E-03 0.  1.
       22    1    1    2    0    0  0.28117303424E-03  0.17650259592E-02 -0.31812914166E-01  0.31863080244E-01  0.00000000000E+00 0.  1.
       22    1    1    2    0    0  0.36360999650E-03 -0.11384262284E-02 -0.30430773794E-02  0.32693342509E-02  0.00000000000E+00 0. -1.
       22    1    1    2    0    0 -0.64478303074E-03 -0.62659973085E-03  0.34855991545E-01  0.34867585505E-01  0.00000000000E+00 0. -1.
</event>
<event>
 5   0  0.4143600E+04  0.9118800E+02  0.7546771E-02  0.1180000E+00
      -11   -1    0    0    0    0  0.00000000000E+00  0.00000000000E+00  0.34996269501E-01  0.35000000000E-01  0.51099999109E-03 0. -1.
       11   -1    0    0    0    0 -0.00000000000E+00 -0.00000000000E+00 -0.34996269501E-01  0.35000000000E-01  0.51099999109E-03 0.  1.
       22    1    1    2    0    0 -0.25132055349E-05  0.69865844316E-04  0.83093330960E-03  0.83386912486E-03  0.00000000000E+00 0.  1.
       22    1    1    2    0    0 -0.14037556301E-02  0.22213780324E-01  0.26022214272E-01  0.34242929223E-01  0.00000000000E+00 0. -1.
       22    1    1    2    0    0  0.14062688357E-02 -0.22283646168E-01 -0.26853147582E-01  0.34923201652E-01  0.00000000000E+00 0.  1.
</event>
<event>
 5   0  0.4143600E+04  0.9118800E+02  0.7546771E-02  0.1180000E+00
      -11   -1    0    0    0    0  0.00000000000E+00  0.00000000000E+00  0.34996269501E-01  0.35000000000E-01  0.51099999109E-03 0.  1.
       11   -1    0    0    0    0 -0.00000000000E+00 -0.00000000000E+00 -0.34996269501E-01  0.35000000000E-01  0.51099999109E-03 0. -1.
       22    1    1    2    0    0 -0.54245553338E-02 -0.12210945061E-01 -0.14855218776E-01  0.19980252869E-01  0.00000000000E+00 0. -1.
       22    1    1    2    0    0  0.57782963728E-02  0.13660455748E-01  0.30705068576E-01  0.34099823995E-01  0.00000000000E+00 0.  1.
       22    1    1    2    0    0 -0.35374103895E-03 -0.14495106869E-02 -0.15849849800E-01  0.15919923136E-01  0.00000000000E+00 0. -1.
</event>
<event>
 5   0  0.4143600E+04  0.9118800E+02  0.7546771E-02  0.1180000E+00
      -11   -1    0    0    0    0  0.00000000000E+00  0.00000000000E+00  0.34996269501E-01  0.35000000000E-01  0.51099999109E-03 0. -1.
       11   -1    0    0    0    0 -0.00000000000E+00 -0.00000000000E+00 -0.34996269501E-01  0.35000000000E-01  0.51099999109E-03 0.  1.
       22    1    1    2    0    0 -0.19108260902E-02 -0.26576376926E-02  0.45873627104E-03  0.33052584496E-02  0.00000000000E+00 0.  1.
       22    1    1    2    0    0  0.43669567542E-02 -0.15470125815E-01  0.28337445299E-01  0.32579225130E-01  0.00000000000E+00 0. -1.
       22    1    1    2    0    0 -0.24561306640E-02  0.18127763507E-01 -0.28796181570E-01  0.34115516420E-01  0.00000000000E+00 0.  1.
</event>
<event>
 5   0  0.4143600E+04  0.9118800E+02  0.7546771E-02  0.1180000E+00
      -11   -1    0    0    0    0  0.00000000000E+00  0.00000000000E+00  0.34996269501E-01  0.35000000000E-01  0.51099999109E-03 0.  1.
       11   -1    0    0    0    0 -0.00000000000E+00 -0.00000000000E+00 -0.34996269501E-01  0.35000000000E-01  0.51099999109E-03 0. -1.
       22    1    1    2    0    0 -0.19891365426E-01 -0.28065022055E-02 -0.28589445881E-01  0.34941369305E-01  0.00000000000E+00 0. -1.
       22    1    1    2    0    0  0.19864912495E-01  0.28067587508E-02  0.27876463671E-01  0.34345157882E-01  0.00000000000E+00 0.  1.
       22    1    1    2    0    0  0.26452931250E-04 -0.25654538335E-06  0.71298220978E-03  0.71347281297E-03  0.00000000000E+00 0.  1.
</event>
<event>
 5   0  0.4143600E+04  0.9118800E+02  0.7546771E-02  0.1180000E+00
      -11   -1    0    0    0    0  0.00000000000E+00  0.00000000000E+00  0.34996269501E-01  0.35000000000E-01  0.51099999109E-03 0. -1.
       11   -1    0    0    0    0 -0.00000000000E+00 -0.00000000000E+00 -0.34996269501E-01  0.35000000000E-01  0.51099999109E-03 0.  1.
       22    1    1    2    0    0 -0.15326684408E-01  0.37875603455E-02 -0.30721340840E-01  0.34540608728E-01  0.00000000000E+00 0.  1.
       22    1    1    2    0    0  0.17700465847E-02 -0.18394242196E-02  0.11968473743E-01  0.12237684017E-01  0.00000000000E+00 0. -1.
       22    1    1    2    0    0  0.13556637823E-01 -0.19481361259E-02  0.18752867098E-01  0.23221707255E-01  0.00000000000E+00 0. -1.
</event>
<event>
 5   0  0.4143600E+04  0.9118800E+02  0.7546771E-02  0.1180000E+00
      -11   -1    0    0    0    0  0.00000000000E+00  0.00000000000E+00  0.34996269501E-01  0.35000000000E-01  0.51099999109E-03 0. -1.
       11   -1    0    0    0    0 -0.00000000000E+00 -0.00000000000E+00 -0.34996269501E-01  0.35000000000E-01  0.51099999109E-03 0.  1.
       22    1    1    2    0    0 -0.19435561492E-02  0.17723218491E-02 -0.18080352176E-02  0.31917904991E-02  0.00000000000E+00 0.  1.
       22    1    1    2    0    0  0.10103186311E-01 -0.10054017120E-01 -0.29852441650E-01  0.33080597128E-01  0.00000000000E+00 0.  1.
       22    1    1    2    0    0 -0.81596301619E-02  0.82816952710E-02  0.31660476867E-01  0.33727612373E-01  0.00000000000E+00 0. -1.
</event>
<event>
 5   0  0.4143600E+04  0.9118800E+02  0.7546771E-02  0.1180000E+00
      -11   -1    0    0    0    0  0.00000000000E+00  0.00000000000E+00  0.34996269501E-01  0.35000000000E-01  0.51099999109E-03 0.  1.
       11   -1    0    0    0    0 -0.00000000000E+00 -0.00000000000E+00 -0.34996269501E-01  0.35000000000E-01  0.51099999109E-03 0. -1.
       22    1    1    2    0    0 -0.28100927136E-03 -0.49467877656E-03 -0.29090428834E-02  0.29641531337E-02  0.00000000000E+00 0. -1.
       22    1    1    2    0    0 -0.22347515624E-01 -0.13723225953E-02 -0.23330895872E-01  0.32336131897E-01  0.00000000000E+00 0. -1.
       22    1    1    2    0    0  0.22628524896E-01  0.18670013719E-02  0.26239938755E-01  0.34699714969E-01  0.00000000000E+00 0.  1.
</event>
<event>
 5   0  0.4143600E+04  0.9118800E+02  0.7546771E-02  0.1180000E+00
      -11   -1    0    0    0    0  0.00000000000E+00  0.00000000000E+00  0.34996269501E-01  0.35000000000E-01  0.51099999109E-03 0. -1.
       11   -1    0    0    0    0 -0.00000000000E+00 -0.00000000000E+00 -0.34996269501E-01  0.35000000000E-01  0.51099999109E-03 0.  1.
       22    1    1    2    0    0 -0.16251387093E-02 -0.34409307959E-02  0.60983659156E-02  0.71882645616E-02  0.00000000000E+00 0. -1.
       22    1    1    2    0    0  0.13874250078E-01  0.19699510757E-02 -0.31553032060E-01  0.34524909191E-01  0.00000000000E+00 0.  1.
       22    1    1    2    0    0 -0.12249111369E-01  0.14709797202E-02  0.25454666144E-01  0.28286826248E-01  0.00000000000E+00 0. -1.
</event>
<event>
 5   0  0.4143600E+04  0.9118800E+02  0.7546771E-02  0.1180000E+00
      -11   -1    0    0    0    0  0.00000000000E+00  0.00000000000E+00  0.34996269501E-01  0.35000000000E-01  0.51099999109E-03 0.  1.
       11   -1    0    0    0    0 -0.00000000000E+00 -0.00000000000E+00 -0.34996269501E-01  0.35000000000E-01  0.51099999109E-03 0. -1.
       22    1    1    2    0    0 -0.21915137432E-01  0.10631424527E-01 -0.25057661926E-01  0.34945484076E-01  0.00000000000E+00 0. -1.
       22    1    1    2    0    0  0.21837961748E-01 -0.10274913126E-01  0.24521379649E-01  0.34405936594E-01  0.00000000000E+00 0.  1.
       22    1    1    2    0    0  0.77175683531E-04 -0.35651140096E-03  0.53628227752E-03  0.64857932925E-03  0.00000000000E+00 0. -1.
</event>
<event>
 5   0  0.4143600E+04  0.9118800E+02  0.7546771E-02  0.1180000E+00
      -11   -1    0    0    0    0  0.00000000000E+00  0.00000000000E+00  0.34996269501E-01  0.35000000000E-01  0.51099999109E-03 0. -1.
       11   -1    0    0    0    0 -0.00000000000E+00 -0.00000000000E+00 -0.34996269501E-01  0.35000000000E-01  0.51099999109E-03 0.  1.
       22    1    1    2    0    0  0.00000000000E+00 -0.00000000000E+00  0.34683728149E-01  0.34682331433E-01  0.00000000000E+00 0. -1.
       22    1    1    2    0    0  0.75002336776E-03  0.15449931581E-02 -0.32472263502E-01  0.32517648068E-01  0.00000000000E+00 0.  1.
       22    1    1    2    0    0 -0.75002336776E-03 -0.15449931581E-02 -0.22114646467E-02  0.28000204990E-02  0.00000000000E+00 0. -1.
</event>
<event>
 5   0  0.4143600E+04  0.9118800E+02  0.7546771E-02  0.1180000E+00
      -11   -1    0    0    0    0  0.00000000000E+00  0.00000000000E+00  0.34996269501E-01  0.35000000000E-01  0.51099999109E-03 0.  1.
       11   -1    0    0    0    0 -0.00000000000E+00 -0.00000000000E+00 -0.34996269501E-01  0.35000000000E-01  0.51099999109E-03 0. -1.
       22    1    1    2    0    0  0.17088866374E-01 -0.61442804896E-02  0.47630374102E-02  0.18774132791E-01  0.00000000000E+00 0.  1.
       22    1    1    2    0    0 -0.17948520684E-01  0.72815406121E-02 -0.24615431850E-01  0.31322351662E-01  0.00000000000E+00 0. -1.
       22    1    1    2    0    0  0.85965431025E-03 -0.11372601226E-02  0.19852394440E-01  0.19903515547E-01  0.00000000000E+00 0.  1.
</event>
<event>
 5   0  0.4143600E+04  0.9118800E+02  0.7546771E-02  0.1180000E+00
      -11   -1    0    0    0    0  0.00000000000E+00  0.00000000000E+00  0.34996269501E-01  0.35000000000E-01  0.51099999109E-03 0. -1.
       11   -1    0    0    0    0 -0.00000000000E+00 -0.00000000000E+00 -0.34996269501E-01  0.35000000000E-01  0.51099999109E-03 0.  1.
       22    1    1    2    0    0 -0.82990323273E-02 -0.15926298179E-01 -0.29646053366E-01  0.34661352995E-01  0.00000000000E+00 0.  1.
       22    1    1    2    0    0  0.15701886049E-02  0.11683743058E-02  0.83108005401E-02  0.85381494711E-02  0.00000000000E+00 0. -1.
       22    1    1    2    0    0  0.67288437224E-02  0.14757923874E-01  0.21335252826E-01  0.26800497534E-01  0.00000000000E+00 0. -1.
</event>
<event>
 5   0  0.4143600E+04  0.9118800E+02  0.7546771E-02  0.1180000E+00
      -11   -1    0    0    0    0  0.00000000000E+00  0.00000000000E+00  0.34996269501E-01  0.35000000000E-01  0.51099999109E-03 0.  1.
       11   -1    0    0    0    0 -0.00000000000E+00 -0.00000000000E+00 -0.34996269501E-01  0.35000000000E-01  0.51099999109E-03 0. -1.
       22    1    1    2    0    0  0.14291401645E-01 -0.27998831054E-02 -0.25630971296E-01  0.29479318105E-01  0.00000000000E+00 0. -1.
       22    1    1    2    0    0 -0.14630307981E-03  0.11855822591E-03 -0.58766231201E-02  0.58796394396E-02  0.00000000000E+00 0. -1.
       22    1    1    2    0    0 -0.14145098565E-01  0.26813248794E-02  0.31507594416E-01  0.34641042455E-01  0.00000000000E+00 0.  1.
</event>
<event>
 5   0  0.4143600E+04  0.9118800E+02  0.7546771E-02  0.1180000E+00
      -11   -1    0    0    0    0  0.00000000000E+00  0.00000000000E+00  0.34996269501E-01  0.35000000000E-01  0.51099999109E-03 0. -1.
       11   -1    0    0    0    0 -0.00000000000E+00 -0.00000000000E+00 -0.34996269501E-01  0.35000000000E-01  0.51099999109E-03 0.  1.
       22    1    1    2    0    0 -0.36160235071E-02  0.15700759529E-02  0.43659333412E-02  0.58823582381E-02  0.00000000000E+00 0.  1.
       22    1    1    2    0    0  0.85431176764E-02  0.17402492171E-01 -0.27594403477E-01  0.33723622235E-01  0.00000000000E+00 0.  1.
       22    1    1    2    0    0 -0.49270941693E-02 -0.18972568124E-01  0.23228470136E-01  0.30394019527E-01  0.00000000000E+00 0. -1.
</event>
<event>
 5   0  0.4143600E+04  0.9118800E+02  0.7546771E-02  0.1180000E+00
      -11   -1    0    0    0    0  0.00000000000E+00  0.00000000000E+00  0.34996269501E-01  0.35000000000E-01  0.51099999109E-03 0. -1.
       11   -1    0    0    0    0 -0.00000000000E+00 -0.00000000000E+00 -0.34996269501E-01  0.35000000000E-01  0.51099999109E-03 0.  1.
       22    1    1    2    0    0 -0.41386092836E-02 -0.83538769736E-02 -0.32153759059E-01  0.33478046073E-01  0.00000000000E+00 0.  1.
       22    1    1    2    0    0 -0.69497494306E-03 -0.21390385544E-03 -0.13882578007E-02  0.15671645581E-02  0.00000000000E+00 0. -1.
       22    1    1    2    0    0  0.48335842267E-02  0.85677808290E-02  0.33542016859E-01  0.34954789369E-01  0.00000000000E+00 0. -1.
</event>
<event>
 5   0  0.4143600E+04  0.9118800E+02  0.7546771E-02  0.1180000E+00
      -11   -1    0    0    0    0  0.00000000000E+00  0.00000000000E+00  0.34996269501E-01  0.35000000000E-01  0.51099999109E-03 0.  1.
       11   -1    0    0    0    0 -0.00000000000E+00 -0.00000000000E+00 -0.34996269501E-01  0.35000000000E-01  0.51099999109E-03 0. -1.
       22    1    1    2    0    0 -0.11119912821E-01 -0.22330739470E-01  0.19881566466E-01  0.31899703315E-01  0.00000000000E+00 0.  1.
       22    1    1    2    0    0  0.87360048027E-02  0.26156459224E-01 -0.14762829488E-01  0.31279694268E-01  0.00000000000E+00 0. -1.
       22    1    1    2    0    0  0.23839080182E-02 -0.38257197535E-02 -0.51187369786E-02  0.68206024168E-02  0.00000000000E+00 0.  1.
</event>
<event>
 5   0  0.4143600E+04  0.9118800E+02  0.7546771E-02  0.1180000E+00
      -11   -1    0    0    0    0  0.00000000000E+00  0.00000000000E+00  0.34996269501E-01  0.35000000000E-01  0.51099999109E-03 0.  1.
       11   -1    0    0    0    0 -0.00000000000E+00 -0.00000000000E+00 -0.34996269501E-01  0.35000000000E-01  0.51099999109E-03 0. -1.
       22    1    1    2    0    0  0.14965300518E-01  0.41782166710E-03 -0.30909641256E-01  0.34344442303E-01  0.00000000000E+00 0. -1.
       22    1    1    2    0    0 -0.31735684466E-03 -0.58128974161E-03 -0.60858763335E-03  0.89943984681E-03  0.00000000000E+00 0. -1.
       22    1    1    2    0    0 -0.14647943673E-01  0.16346807451E-03  0.31518228889E-01  0.34756117850E-01  0.00000000000E+00 0.  1.
</event>
<event>
 5   0  0.4143600E+04  0.9118800E+02  0.7546771E-02  0.1180000E+00
      -11   -1    0    0    0    0  0.00000000000E+00  0.00000000000E+00  0.34996269501E-01  0.35000000000E-01  0.51099999109E-03 0.  1.
       11   -1    0    0    0    0 -0.00000000000E+00 -0.00000000000E+00 -0.34996269501E-01  0.35000000000E-01  0.51099999109E-03 0. -1.
       22    1    1    2    0    0  0.18289426592E-02 -0.49898285935E-02  0.11628783220E-01  0.12785617694E-01  0.00000000000E+00 0.  1.
       22    1    1    2    0    0  0.12622730919E-01 -0.68315782916E-02  0.17489149706E-01  0.22624636024E-01  0.00000000000E+00 0.  1.
       22    1    1    2    0    0 -0.14451673578E-01  0.11821406885E-01 -0.29117932926E-01  0.34589746282E-01  0.00000000000E+00 0. -1.
</event>
<event>
 5   0  0.4143600E+04  0.9118800E+02  0.7546771E-02  0.1180000E+00
      -11   -1    0    0    0    0  0.00000000000E+00  0.00000000000E+00  0.34996269501E-01  0.35000000000E-01  0.51099999109E-03 0. -1.
       11   -1    0    0    0    0 -0.00000000000E+00 -0.00000000000E+00 -0.34996269501E-01  0.35000000000E-01  0.51099999109E-03 0.  1.
       22    1    1    2    0    0 -0.15994225401E-01 -0.17418839415E-03 -0.30305262648E-01  0.34267397507E-01  0.00000000000E+00 0.  1.
       22    1    1    2    0    0  0.16024735341E-01  0.24139934952E-03  0.20950388852E-01  0.26377437507E-01  0.00000000000E+00 0. -1.
       22    1    1    2    0    0 -0.30509940002E-04 -0.67210955372E-04  0.93548737959E-02  0.93551649855E-02  0.00000000000E+00 0. -1.
</event>
<event>
 5   0  0.4143600E+04  0.9118800E+02  0.7546771E-02  0.1180000E+00
      -11   -1    0    0    0    0  0.00000000000E+00  0.00000000000E+00  0.34996269501E-01  0.35000000000E-01  0.51099999109E-03 0.  1.
       11   -1    0    0    0    0 -0.00000000000E+00 -0.00000000000E+00 -0.34996269501E-01  0.35000000000E-01  0.51099999109E-03 0. -1.
       22    1    1    2    0    0 -0.88545827984E-02 -0.13671017033E-01 -0.25693679221E-01  0.30421464382E-01  0.00000000000E+00 0. -1.
       22    1    1    2    0    0  0.59135011242E-02  0.16090461508E-01  0.40662601907E-02  0.17618368796E-01  0.00000000000E+00 0.  1.
       22    1    1    2    0    0  0.29410816742E-02 -0.24194444751E-02  0.21627419030E-01  0.21960166823E-01  0.00000000000E+00 0.  1.
</event>
<event>
 5   0  0.4143600E+04  0.9118800E+02  0.7546771E-02  0.1180000E+00
      -11   -1    0    0    0    0  0.00000000000E+00  0.00000000000E+00  0.34996269501E-01  0.35000000000E-01  0.51099999109E-03 0. -1.
       11   -1    0    0    0    0 -0.00000000000E+00 -0.00000000000E+00 -0.34996269501E-01  0.35000000000E-01  0.51099999109E-03 0.  1.
       22    1    1    2    0    0  0.41878441253E-02  0.31360300869E-02  0.80773386478E-04  0.52325182717E-02  0.00000000000E+00 0.  1.
       22    1    1    2    0    0 -0.13328011312E-01 -0.81507928486E-02  0.29511952501E-01  0.33392014764E-01  0.00000000000E+00 0. -1.
       22    1    1    2    0    0  0.91401671863E-02  0.50147627617E-02 -0.29592725888E-01  0.31375466964E-01  0.00000000000E+00 0.  1.
</event>
<event>
 5   0  0.4143600E+04  0.9118800E+02  0.7546771E-02  0.1180000E+00
      -11   -1    0    0    0    0  0.00000000000E+00  0.00000000000E+00  0.34996269501E-01  0.35000000000E-01  0.51099999109E-03 0.  1.
       11   -1    0    0    0    0 -0.00000000000E+00 -0.00000000000E+00 -0.34996269501E-01  0.35000000000E-01  0.51099999109E-03 0. -1.
       22    1    1    2    0    0 -0.18141394212E-02  0.11717955662E-02 -0.33503445778E-01  0.33572981484E-01  0.00000000000E+00 0. -1.
       22    1    1    2    0    0  0.23334766806E-02 -0.18350800340E-02  0.34775136535E-01  0.34901615338E-01  0.00000000000E+00 0.  1.
       22    1    1    2    0    0 -0.51933725940E-03  0.66328446777E-03 -0.12716907571E-02  0.15254031781E-02  0.00000000000E+00 0. -1.
</event>
<event>
 5   0  0.4143600E+04  0.9118800E+02  0.7546771E-02  0.1180000E+00
      -11   -1    0    0    0    0  0.00000000000E+00  0.00000000000E+00  0.34996269501E-01  0.35000000000E-01  0.51099999109E-03 0. -1.
       11   -1    0    0    0    0 -0.00000000000E+00 -0.00000000000E+00 -0.34996269501E-01  0.35000000000E-01  0.51099999109E-03 0.  1.
       22    1    1    2    0    0 -0.15292186569E-03  0.10059045210E-02 -0.21964590980E-02  0.24206737846E-02  0.00000000000E+00 0. -1.
       22    1    1    2    0    0 -0.10309210940E-01  0.31457965791E-01  0.44249277212E-02  0.33398554269E-01  0.00000000000E+00 0. -1.
       22    1    1    2    0    0  0.10462132806E-01 -0.32463870312E-01 -0.22284686233E-02  0.34180771947E-01  0.00000000000E+00 0.  1.
</event>
<event>
 5   0  0.4143600E+04  0.9118800E+02  0.7546771E-02  0.1180000E+00
      -11   -1    0    0    0    0  0.00000000000E+00  0.00000000000E+00  0.34996269501E-01  0.35000000000E-01  0.51099999109E-03 0. -1.
       11   -1    0    0    0    0 -0.00000000000E+00 -0.00000000000E+00 -0.34996269501E-01  0.35000000000E-01  0.51099999109E-03 0.  1.
       22    1    1    2    0    0 -0.56984621338E-02 -0.54272711137E-02 -0.23341043769E-01  0.24631931850E-01  0.00000000000E+00 0.  1.
       22    1    1    2    0    0  0.74438541359E-02 -0.15752994713E-02  0.32686531414E-01  0.33560421164E-01  0.00000000000E+00 0. -1.
       22    1    1    2    0    0 -0.17453920022E-02  0.70025705850E-02 -0.93454876449E-02  0.11807646987E-01  0.00000000000E+00 0.  1.
</event>
<event>
 5   0  0.4143600E+04  0.9118800E+02  0.7546771E-02  0.1180000E+00
      -11   -1    0    0    0    0  0.00000000000E+00  0.00000000000E+00  0.34996269501E-01  0.35000000000E-01  0.51099999109E-03 0. -1.
       11   -1    0    0    0    0 -0.00000000000E+00 -0.00000000000E+00 -0.34996269501E-01  0.35000000000E-01  0.51099999109E-03 0.  1.
       22    1    1    2    0    0 -0.19452557266E-02 -0.47852016798E-03 -0.27038763186E-01  0.27112869933E-01  0.00000000000E+00 0.  1.
       22    1    1    2    0    0 -0.36957415204E-02  0.17223676540E-02  0.33771046124E-01  0.34016299211E-01  0.00000000000E+00 0. -1.
       22    1    1    2    0    0  0.56409972471E-02 -0.12438474861E-02 -0.67322829383E-02  0.88708308558E-02  0.00000000000E+00 0.  1.
</event>
<event>
 5   0  0.4143600E+04  0.9118800E+02  0.7546771E-02  0.1180000E+00
      -11   -1    0    0    0    0  0.00000000000E+00  0.00000000000E+00  0.34996269501E-01  0.35000000000E-01  0.51099999109E-03 0.  1.
       11   -1    0    0    0    0 -0.00000000000E+00 -0.00000000000E+00 -0.34996269501E-01  0.35000000000E-01  0.51099999109E-03 0. -1.
       22    1    1    2    0    0  0.35073579367E-02  0.65797852675E-02  0.13377299749E-01  0.15314936580E-01  0.00000000000E+00 0.  1.
       22    1    1    2    0    0 -0.20075064817E-01  0.10284704656E-02 -0.25738896803E-01  0.32658181020E-01  0.00000000000E+00 0. -1.
       22    1    1    2    0    0  0.16567706880E-01 -0.76082557330E-02  0.12361597054E-01  0.22026882400E-01  0.00000000000E+00 0.  1.
</event>
<event>
 5   0  0.4143600E+04  0.9118800E+02  0.7546771E-02  0.1180000E+00
      -11   -1    0    0    0    0  0.00000000000E+00  0.00000000000E+00  0.34996269501E-01  0.35000000000E-01  0.51099999109E-03 0.  1.
       11   -1    0    0    0    0 -0.00000000000E+00 -0.00000000000E+00 -0.34996269501E-01  0.35000000000E-01  0.51099999109E-03 0. -1.
       22    1    1    2    0    0 -0.10326826650E-02  0.43249569552E-02 -0.12429990507E-02  0.46170047424E-02  0.00000000000E+00 0.  1.
       22    1    1    2    0    0  0.90655740342E-02  0.15868066658E-01  0.26419495999E-01  0.32124288955E-01  0.00000000000E+00 0.  1.
       22    1    1    2    0    0 -0.80328913692E-02 -0.20193023613E-01 -0.25176496948E-01  0.33258706303E-01  0.00000000000E+00 0. -1.
</event>
<event>
 5   0  0.4143600E+04  0.9118800E+02  0.7546771E-02  0.1180000E+00
      -11   -1    0    0    0    0  0.00000000000E+00  0.00000000000E+00  0.34996269501E-01  0.35000000000E-01  0.51099999109E-03 0.  1.
       11   -1    0    0    0    0 -0.00000000000E+00 -0.00000000000E+00 -0.34996269501E-01  0.35000000000E-01  0.51099999109E-03 0. -1.
       22    1    1    2    0    0  0.26325429444E-02 -0.79221405760E-03  0.34704825546E-01  0.34813543365E-01  0.00000000000E+00 0.  1.
       22    1    1    2    0    0 -0.12957553887E-02 -0.10095063614E-03 -0.16873614580E-02  0.21298736460E-02  0.00000000000E+00 0.  1.
       22    1    1    2    0    0 -0.13367875557E-02  0.89316469374E-03 -0.33017464088E-01  0.33056582989E-01  0.00000000000E+00 0. -1.
</event>
<event>
 5   0  0.4143600E+04  0.9118800E+02  0.7546771E-02  0.1180000E+00
      -11   -1    0    0    0    0  0.00000000000E+00  0.00000000000E+00  0.34996269501E-01  0.35000000000E-01  0.51099999109E-03 0.  1.
       11   -1    0    0    0    0 -0.00000000000E+00 -0.00000000000E+00 -0.34996269501E-01  0.35000000000E-01  0.51099999109E-03 0. -1.
       22    1    1    2    0    0 -0.13501895086E-04  0.29547278106E-03  0.74729706749E-04  0.30507539165E-03  0.00000000000E+00 0.  1.
       22    1    1    2    0    0 -0.67619090053E-02  0.15325706723E-01  0.30443614149E-01  0.34747868171E-01  0.00000000000E+00 0.  1.
       22    1    1    2    0    0  0.67754109004E-02 -0.15621179504E-01 -0.30518343856E-01  0.34947056438E-01  0.00000000000E+00 0. -1.
</event>
<event>
 5   0  0.4143600E+04  0.9118800E+02  0.7546771E-02  0.1180000E+00
      -11   -1    0    0    0    0  0.00000000000E+00  0.00000000000E+00  0.34996269501E-01  0.35000000000E-01  0.51099999109E-03 0. -1.
       11   -1    0    0    0    0 -0.00000000000E+00 -0.00000000000E+00 -0.34996269501E-01  0.35000000000E-01  0.51099999109E-03 0.  1.
       22    1    1    2    0    0 -0.17771264151E-02  0.58578643671E-04 -0.32770364152E-02  0.37283478137E-02  0.00000000000E+00 0.  1.
       22    1    1    2    0    0  0.62199429779E-02 -0.52079480396E-02  0.33923300526E-01  0.34879804071E-01  0.00000000000E+00 0. -1.
       22    1    1    2    0    0 -0.44428165628E-02  0.51493693960E-02 -0.30646264111E-01  0.31391848116E-01  0.00000000000E+00 0.  1.
</event>
<event>
 5   0  0.4143600E+04  0.9118800E+02  0.7546771E-02  0.1180000E+00
      -11   -1    0    0    0    0  0.00000000000E+00  0.00000000000E+00  0.34996269501E-01  0.35000000000E-01  0.51099999109E-03 0.  1.
       11   -1    0    0    0    0 -0.00000000000E+00 -0.00000000000E+00 -0.34996269501E-01  0.35000000000E-01  0.51099999109E-03 0. -1.
       22    1    1    2    0    0  0.70634842295E-02  0.41854450531E-03 -0.92409082932E-02  0.11638830485E-01  0.00000000000E+00 0. -1.
       22    1    1    2    0    0  0.80799914981E-02 -0.24466397374E-01  0.14341317854E-01  0.29488375012E-01  0.00000000000E+00 0.  1.
       22    1    1    2    0    0 -0.15143475728E-01  0.24047852869E-01 -0.51004095607E-02  0.28872794503E-01  0.00000000000E+00 0. -1.
</event>
<event>
 5   0  0.4143600E+04  0.9118800E+02  0.7546771E-02  0.1180000E+00
      -11   -1    0    0    0    0  0.00000000000E+00  0.00000000000E+00  0.34996269501E-01  0.35000000000E-01  0.51099999109E-03 0. -1.
       11   -1    0    0    0    0 -0.00000000000E+00 -0.00000000000E+00 -0.34996269501E-01  0.35000000000E-01  0.51099999109E-03 0.  1.
       22    1    1    2    0    0  0.11070123444E-01 -0.34669897189E-02  0.32932810404E-01  0.34916151734E-01  0.00000000000E+00 0. -1.
       22    1    1    2    0    0  0.17069224915E-03  0.32825497746E-03 -0.55660289852E-03  0.66835167448E-03  0.00000000000E+00 0. -1.
       22    1    1    2    0    0 -0.11240815694E-01  0.31387347414E-02 -0.32376207505E-01  0.34415496592E-01  0.00000000000E+00 0.  1.
</event>
<event>
 5   0  0.4143600E+04  0.9118800E+02  0.7546771E-02  0.1180000E+00
      -11   -1    0    0    0    0  0.00000000000E+00  0.00000000000E+00  0.34996269501E-01  0.35000000000E-01  0.51099999109E-03 0. -1.
       11   -1    0    0    0    0 -0.00000000000E+00 -0.00000000000E+00 -0.34996269501E-01  0.35000000000E-01  0.51099999109E-03 0.  1.
       22    1    1    2    0    0 -0.17690100897E-03  0.39197002406E-03 -0.48436439096E-03  0.64772164544E-03  0.00000000000E+00 0. -1.
       22    1    1    2    0    0  0.22216734466E-02  0.28558011747E-02  0.34717073500E-01  0.34905108877E-01  0.00000000000E+00 0. -1.
       22    1    1    2    0    0 -0.20447724377E-02 -0.32477711988E-02 -0.34232709109E-01  0.34447169478E-01  0.00000000000E+00 0.  1.
</event>
<event>
 5   0  0.4143600E+04  0.9118800E+02  0.7546771E-02  0.1180000E+00
      -11   -1    0    0    0    0  0.00000000000E+00  0.00000000000E+00  0.34996269501E-01  0.35000000000E-01  0.51099999109E-03 0. -1.
       11   -1    0    0    0    0 -0.00000000000E+00 -0.00000000000E+00 -0.34996269501E-01  0.35000000000E-01  0.51099999109E-03 0.  1.
       22    1    1    2    0    0 -0.83300760090E-02  0.14150604451E-01  0.30856207626E-01  0.34953330624E-01  0.00000000000E+00 0. -1.
       22    1    1    2    0    0 -0.47806052579E-04  0.13145607633E-04 -0.62371520115E-03  0.62568272935E-03  0.00000000000E+00 0. -1.
       22    1    1    2    0    0  0.83778820615E-02 -0.14163750058E-01 -0.30232492425E-01  0.34420986647E-01  0.00000000000E+00 0.  1.
</event>
<event>
 5   0  0.4143600E+04  0.9118800E+02  0.7546771E-02  0.1180000E+00
      -11   -1    0    0    0    0  0.00000000000E+00  0.00000000000E+00  0.34996269501E-01  0.35000000000E-01  0.51099999109E-03 0. -1.
       11   -1    0    0    0    0 -0.00000000000E+00 -0.00000000000E+00 -0.34996269501E-01  0.35000000000E-01  0.51099999109E-03 0.  1.
       22    1    1    2    0    0 -0.19991431592E-02 -0.21001634142E-02 -0.34206249950E-01  0.34328920685E-01  0.00000000000E+00 0.  1.
       22    1    1    2    0    0 -0.10228440824E-03 -0.34632688286E-03 -0.60832893130E-03  0.70743798217E-03  0.00000000000E+00 0.  1.
       22    1    1    2    0    0  0.21014275674E-02  0.24464902971E-02  0.34814578881E-01  0.34963641333E-01  0.00000000000E+00 0. -1.
</event>
<event>
 5   0  0.4143600E+04  0.9118800E+02  0.7546771E-02  0.1180000E+00
      -11   -1    0    0    0    0  0.00000000000E+00  0.00000000000E+00  0.34996269501E-01  0.35000000000E-01  0.51099999109E-03 0.  1.
       11   -1    0    0    0    0 -0.00000000000E+00 -0.00000000000E+00 -0.34996269501E-01  0.35000000000E-01  0.51099999109E-03 0.  1.
       22    1    1    2    0    0 -0.28180634331E-03 -0.20486711686E-03  0.34979136138E-01  0.34980871205E-01  0.00000000000E+00 0.  1.
       22    1    1    2    0    0  0.17023998262E-03  0.32174712447E-03 -0.34655381053E-01  0.34657292721E-01  0.00000000000E+00 0.  1.
       22    1    1    2    0    0  0.11156636070E-03 -0.11688000761E-03 -0.32375508479E-03  0.36183607331E-03  0.00000000000E+00 0.  1.
</event>
<event>
 5   0  0.4143600E+04  0.9118800E+02  0.7546771E-02  0.1180000E+00
      -11   -1    0    0    0    0  0.00000000000E+00  0.00000000000E+00  0.34996269501E-01  0.35000000000E-01  0.51099999109E-03 0. -1.
       11   -1    0    0    0    0 -0.00000000000E+00 -0.00000000000E+00 -0.34996269501E-01  0.35000000000E-01  0.51099999109E-03 0.  1.
       22    1    1    2    0    0 -0.57062205916E-02 -0.15695726686E-01 -0.30433207590E-01  0.34714505813E-01  0.00000000000E+00 0.  1.
       22    1    1    2    0    0  0.40335196867E-03 -0.27463264356E-03  0.34552394654E-02  0.34895265671E-02  0.00000000000E+00 0. -1.
       22    1    1    2    0    0  0.53028686230E-02  0.15970359330E-01  0.26977968124E-01  0.31795967620E-01  0.00000000000E+00 0. -1.
</event>
<event>
 5   0  0.4143600E+04  0.9118800E+02  0.7546771E-02  0.1180000E+00
      -11   -1    0    0    0    0  0.00000000000E+00  0.00000000000E+00  0.34996269501E-01  0.35000000000E-01  0.51099999109E-03 0. -1.
       11   -1    0    0    0    0 -0.00000000000E+00 -0.00000000000E+00 -0.34996269501E-01  0.35000000000E-01  0.51099999109E-03 0.  1.
       22    1    1    2    0    0 -0.13696708195E-01 -0.55485653802E-02  0.31179250507E-01  0.34504087517E-01  0.00000000000E+00 0. -1.
       22    1    1    2    0    0  0.30720205217E-03 -0.11141293519E-02 -0.67803771277E-02  0.68781662751E-02  0.00000000000E+00 0.  1.
       22    1    1    2    0    0  0.13389506143E-01  0.66626947321E-02 -0.24398873380E-01  0.28617746208E-01  0.00000000000E+00 0.  1.
</event>
<event>
 5   0  0.4143600E+04  0.9118800E+02  0.7546771E-02  0.1180000E+00
      -11   -1    0    0    0    0  0.00000000000E+00  0.00000000000E+00  0.34996269501E-01  0.35000000000E-01  0.51099999109E-03 0. -1.
       11   -1    0    0    0    0 -0.00000000000E+00 -0.00000000000E+00 -0.34996269501E-01  0.35000000000E-01  0.51099999109E-03 0. -1.
       22    1    1    2    0    0 -0.12903158765E-01 -0.10877125357E-01  0.24690114104E-01  0.29906606237E-01  0.00000000000E+00 0.  1.
       22    1    1    2    0    0  0.12903158765E-01  0.10877125357E-01 -0.30193867833E-01  0.34590071073E-01  0.00000000000E+00 0. -1.
       22    1    1    2    0    0  0.00000000000E+00  0.00000000000E+00  0.55037537290E-02  0.55033226903E-02  0.00000000000E+00 0. -1.
</event>
<event>
 5   0  0.4143600E+04  0.9118800E+02  0.7546771E-02  0.1180000E+00
      -11   -1    0    0    0    0  0.00000000000E+00  0.00000000000E+00  0.34996269501E-01  0.35000000000E-01  0.51099999109E-03 0.  1.
       11   -1    0    0    0    0 -0.00000000000E+00 -0.00000000000E+00 -0.34996269501E-01  0.35000000000E-01  0.51099999109E-03 0.  1.
       22    1    1    2    0    0 -0.18989632014E-03  0.69373242326E-03 -0.25857680949E-01  0.25867682335E-01  0.00000000000E+00 0.  1.
       22    1    1    2    0    0 -0.39996100058E-03 -0.31308066909E-02 -0.88181301310E-02  0.93659670267E-02  0.00000000000E+00 0. -1.
       22    1    1    2    0    0  0.58985732072E-03  0.24370742676E-02  0.34675811080E-01  0.34766350639E-01  0.00000000000E+00 0.  1.
</event>
<event>
 5   0  0.4143600E+04  0.9118800E+02  0.7546771E-02  0.1180000E+00
      -11   -1    0    0    0    0  0.00000000000E+00  0.00000000000E+00  0.34996269501E-01  0.35000000000E-01  0.51099999109E-03 0. -1.
       11   -1    0    0    0    0 -0.00000000000E+00 -0.00000000000E+00 -0.34996269501E-01  0.35000000000E-01  0.51099999109E-03 0.  1.
       22    1    1    2    0    0 -0.84204499811E-02  0.33490214676E-01 -0.42822313736E-02  0.34797068303E-01  0.00000000000E+00 0.  1.
       22    1    1    2    0    0  0.84768154107E-02 -0.33324616229E-01  0.47417471282E-02  0.34711246192E-01  0.00000000000E+00 0. -1.
       22    1    1    2    0    0 -0.56365429609E-04 -0.16559844706E-03 -0.45951575468E-03  0.49168550530E-03  0.00000000000E+00 0.  1.
</event>
<event>
 5   0  0.4143600E+04  0.9118800E+02  0.7546771E-02  0.1180000E+00
      -11   -1    0    0    0    0  0.00000000000E+00  0.00000000000E+00  0.34996269501E-01  0.35000000000E-01  0.51099999109E-03 0. -1.
       11   -1    0    0    0    0 -0.00000000000E+00 -0.00000000000E+00 -0.34996269501E-01  0.35000000000E-01  0.51099999109E-03 0.  1.
       22    1    1    2    0    0  0.20756451943E-01 -0.10298595132E-01 -0.25629510665E-01  0.34550878077E-01  0.00000000000E+00 0. -1.
       22    1    1    2    0    0 -0.21263645553E-01  0.10012818200E-01  0.23479819323E-01  0.33221996718E-01  0.00000000000E+00 0.  1.
       22    1    1    2    0    0  0.50719361007E-03  0.28577693193E-03  0.21496913425E-02  0.22271252055E-02  0.00000000000E+00 0. -1.
</event>
<event>
 5   0  0.4143600E+04  0.9118800E+02  0.7546771E-02  0.1180000E+00
      -11   -1    0    0    0    0  0.00000000000E+00  0.00000000000E+00  0.34996269501E-01  0.35000000000E-01  0.51099999109E-03 0.  1.
       11   -1    0    0    0    0 -0.00000000000E+00 -0.00000000000E+00 -0.34996269501E-01  0.35000000000E-01  0.51099999109E-03 0. -1.
       22    1    1    2    0    0  0.13757463768E-02  0.23550541351E-03  0.15913427540E-02  0.21167221485E-02  0.00000000000E+00 0. -1.
       22    1    1    2    0    0  0.98860877569E-02  0.18048339366E-01 -0.27426847985E-01  0.34288617286E-01  0.00000000000E+00 0. -1.
       22    1    1    2    0    0 -0.11261834134E-01 -0.18283844779E-01  0.25835505231E-01  0.33594660565E-01  0.00000000000E+00 0.  1.
</event>
<event>
 5   0  0.4143600E+04  0.9118800E+02  0.7546771E-02  0.1180000E+00
      -11   -1    0    0    0    0  0.00000000000E+00  0.00000000000E+00  0.34996269501E-01  0.35000000000E-01  0.51099999109E-03 0.  1.
       11   -1    0    0    0    0 -0.00000000000E+00 -0.00000000000E+00 -0.34996269501E-01  0.35000000000E-01  0.51099999109E-03 0. -1.
       22    1    1    2    0    0 -0.19930446683E-02 -0.17124060450E-02 -0.33873646431E-01  0.33975409991E-01  0.00000000000E+00 0. -1.
       22    1    1    2    0    0  0.20278900290E-02  0.22542561576E-02  0.34810207959E-01  0.34942017499E-01  0.00000000000E+00 0.  1.
       22    1    1    2    0    0 -0.34845360724E-04 -0.54185011269E-03 -0.93656152723E-03  0.10825725094E-02  0.00000000000E+00 0. -1.
</event>
<event>
 5   0  0.4143600E+04  0.9118800E+02  0.7546771E-02  0.1180000E+00
      -11   -1    0    0    0    0  0.00000000000E+00  0.00000000000E+00  0.34996269501E-01  0.35000000000E-01  0.51099999109E-03 0.  1.
       11   -1    0    0    0    0 -0.00000000000E+00 -0.00000000000E+00 -0.34996269501E-01  0.35000000000E-01  0.51099999109E-03 0. -1.
       22    1    1    2    0    0 -0.12929654555E-03  0.52947763603E-03 -0.96368755067E-03  0.11071394940E-02  0.00000000000E+00 0.  1.
       22    1    1    2    0    0  0.59133387807E-03 -0.24011431006E-03  0.34923170535E-01  0.34929001859E-01  0.00000000000E+00 0.  1.
       22    1    1    2    0    0 -0.46203733252E-03 -0.28936332597E-03 -0.33959482984E-01  0.33963858647E-01  0.00000000000E+00 0. -1.
</event>
<event>
 5   0  0.4143600E+04  0.9118800E+02  0.7546771E-02  0.1180000E+00
      -11   -1    0    0    0    0  0.00000000000E+00  0.00000000000E+00  0.34996269501E-01  0.35000000000E-01  0.51099999109E-03 0. -1.
       11   -1    0    0    0    0 -0.00000000000E+00 -0.00000000000E+00 -0.34996269501E-01  0.35000000000E-01  0.51099999109E-03 0.  1.
       22    1    1    2    0    0 -0.13175814349E-01  0.34610013432E-03 -0.32407833171E-01  0.34985561592E-01  0.00000000000E+00 0.  1.
       22    1    1    2    0    0  0.13157562204E-01 -0.36285998340E-03  0.31938844194E-01  0.34544795252E-01  0.00000000000E+00 0. -1.
       22    1    1    2    0    0  0.18252144581E-04  0.16759849081E-04  0.46898897728E-03  0.46964315617E-03  0.00000000000E+00 0. -1.
</event>
<event>
 5   0  0.4143600E+04  0.9118800E+02  0.7546771E-02  0.1180000E+00
      -11   -1    0    0    0    0  0.00000000000E+00  0.00000000000E+00  0.34996269501E-01  0.35000000000E-01  0.51099999109E-03 0. -1.
       11   -1    0    0    0    0 -0.00000000000E+00 -0.00000000000E+00 -0.34996269501E-01  0.35000000000E-01  0.51099999109E-03 0.  1.
       22    1    1    2    0    0  0.84156613166E-02  0.20556004031E-01  0.26350091570E-01  0.34463023414E-01  0.00000000000E+00 0. -1.
       22    1    1    2    0    0 -0.71866804376E-02 -0.20835781817E-01 -0.26245085987E-01  0.34272185780E-01  0.00000000000E+00 0.  1.
       22    1    1    2    0    0 -0.12289808789E-02  0.27977778680E-03 -0.10500558332E-03  0.12647908061E-02  0.00000000000E+00 0.  1.
</event>
<event>
 5   0  0.4143600E+04  0.9118800E+02  0.7546771E-02  0.1180000E+00
      -11   -1    0    0    0    0  0.00000000000E+00  0.00000000000E+00  0.34996269501E-01  0.35000000000E-01  0.51099999109E-03 0. -1.
       11   -1    0    0    0    0 -0.00000000000E+00 -0.00000000000E+00 -0.34996269501E-01  0.35000000000E-01  0.51099999109E-03 0. -1.
       22    1    1    2    0    0  0.17845926667E-02  0.31528622042E-02 -0.41411842549E-02  0.55022466410E-02  0.00000000000E+00 0.  1.
       22    1    1    2    0    0 -0.79938288779E-03 -0.20971903624E-02  0.34265462634E-01  0.34338886848E-01  0.00000000000E+00 0. -1.
       22    1    1    2    0    0 -0.98520977892E-03 -0.10556718418E-02 -0.30124278379E-01  0.30158866511E-01  0.00000000000E+00 0. -1.
</event>
<event>
 5   0  0.4143600E+04  0.9118800E+02  0.7546771E-02  0.1180000E+00
      -11   -1    0    0    0    0  0.00000000000E+00  0.00000000000E+00  0.34996269501E-01  0.35000000000E-01  0.51099999109E-03 0. -1.
       11   -1    0    0    0    0 -0.00000000000E+00 -0.00000000000E+00 -0.34996269501E-01  0.35000000000E-01  0.51099999109E-03 0.  1.
       22    1    1    2    0    0 -0.28059508844E-01  0.82265503947E-03  0.19034493667E-01  0.33916437712E-01  0.00000000000E+00 0.  1.
       22    1    1    2    0    0  0.14937096649E-01 -0.27749836932E-02 -0.33811116971E-02  0.15564360158E-01  0.00000000000E+00 0. -1.
       22    1    1    2    0    0  0.13122412195E-01  0.19523286537E-02 -0.15653381970E-01  0.20519202131E-01  0.00000000000E+00 0. -1.
</event>
<event>
 5   0  0.4143600E+04  0.9118800E+02  0.7546771E-02  0.1180000E+00
      -11   -1    0    0    0    0  0.00000000000E+00  0.00000000000E+00  0.34996269501E-01  0.35000000000E-01  0.51099999109E-03 0.  1.
       11   -1    0    0    0    0 -0.00000000000E+00 -0.00000000000E+00 -0.34996269501E-01  0.35000000000E-01  0.51099999109E-03 0. -1.
       22    1    1    2    0    0 -0.97841462488E-02  0.29280638200E-02 -0.33166162888E-01  0.34702988867E-01  0.00000000000E+00 0. -1.
       22    1    1    2    0    0 -0.11246323752E-03 -0.10229784830E-03 -0.27153234352E-03  0.31119550629E-03  0.00000000000E+00 0. -1.
       22    1    1    2    0    0  0.98966094864E-02 -0.28257659717E-02  0.33437695232E-01  0.34985815627E-01  0.00000000000E+00 0.  1.
</event>
<event>
 5   0  0.4143600E+04  0.9118800E+02  0.7546771E-02  0.1180000E+00
      -11   -1    0    0    0    0  0.00000000000E+00  0.00000000000E+00  0.34996269501E-01  0.35000000000E-01  0.51099999109E-03 0. -1.
       11   -1    0    0    0    0 -0.00000000000E+00 -0.00000000000E+00 -0.34996269501E-01  0.35000000000E-01  0.51099999109E-03 0.  1.
       22    1    1    2    0    0 -0.15120701963E-02 -0.76194272560E-03 -0.41135415721E-02  0.44483859164E-02  0.00000000000E+00 0.  1.
       22    1    1    2    0    0  0.38266505868E-02  0.71461745551E-02  0.33974518572E-01  0.34928197458E-01  0.00000000000E+00 0. -1.
       22    1    1    2    0    0 -0.23145803905E-02 -0.63842318295E-02 -0.29860977000E-01  0.30623416625E-01  0.00000000000E+00 0.  1.
</event>
<event>
 5   0  0.4143600E+04  0.9118800E+02  0.7546771E-02  0.1180000E+00
      -11   -1    0    0    0    0  0.00000000000E+00  0.00000000000E+00  0.34996269501E-01  0.35000000000E-01  0.51099999109E-03 0. -1.
       11   -1    0    0    0    0 -0.00000000000E+00 -0.00000000000E+00 -0.34996269501E-01  0.35000000000E-01  0.51099999109E-03 0.  1.
       22    1    1    2    0    0  0.15220883255E-03 -0.25792512429E-03 -0.80513192594E-03  0.85902870535E-03  0.00000000000E+00 0.  1.
       22    1    1    2    0    0 -0.59593477223E-02 -0.71614835907E-02 -0.32874035975E-01  0.34168741765E-01  0.00000000000E+00 0.  1.
       22    1    1    2    0    0  0.58071388898E-02  0.74194087150E-02  0.33679167901E-01  0.34972229530E-01  0.00000000000E+00 0. -1.
</event>
<event>
 5   0  0.4143600E+04  0.9118800E+02  0.7546771E-02  0.1180000E+00
      -11   -1    0    0    0    0  0.00000000000E+00  0.00000000000E+00  0.34996269501E-01  0.35000000000E-01  0.51099999109E-03 0. -1.
       11   -1    0    0    0    0 -0.00000000000E+00 -0.00000000000E+00 -0.34996269501E-01  0.35000000000E-01  0.51099999109E-03 0.  1.
       22    1    1    2    0    0  0.11291968555E-02 -0.33766793996E-02 -0.57560148936E-02  0.67682166603E-02  0.00000000000E+00 0.  1.
       22    1    1    2    0    0  0.26362761623E-03  0.77781153487E-02  0.33864212105E-01  0.34746991803E-01  0.00000000000E+00 0. -1.
       22    1    1    2    0    0 -0.13928244718E-02 -0.44014359491E-02 -0.28108197211E-01  0.28484791537E-01  0.00000000000E+00 0.  1.
</event>
<event>
 5   0  0.4143600E+04  0.9118800E+02  0.7546771E-02  0.1180000E+00
      -11   -1    0    0    0    0  0.00000000000E+00  0.00000000000E+00  0.34996269501E-01  0.35000000000E-01  0.51099999109E-03 0.  1.
       11   -1    0    0    0    0 -0.00000000000E+00 -0.00000000000E+00 -0.34996269501E-01  0.35000000000E-01  0.51099999109E-03 0. -1.
       22    1    1    2    0    0 -0.36334050878E-02  0.44155251228E-02  0.10835483664E-01  0.12251783580E-01  0.00000000000E+00 0. -1.
       22    1    1    2    0    0  0.71068060757E-02 -0.16350692236E-01  0.18618984805E-01  0.25778254874E-01  0.00000000000E+00 0.  1.
       22    1    1    2    0    0 -0.34734009879E-02  0.11935167113E-01 -0.29454468470E-01  0.31969961546E-01  0.00000000000E+00 0. -1.
</event>
<event>
 5   0  0.4143600E+04  0.9118800E+02  0.7546771E-02  0.1180000E+00
      -11   -1    0    0    0    0  0.00000000000E+00  0.00000000000E+00  0.34996269501E-01  0.35000000000E-01  0.51099999109E-03 0. -1.
       11   -1    0    0    0    0 -0.00000000000E+00 -0.00000000000E+00 -0.34996269501E-01  0.35000000000E-01  0.51099999109E-03 0.  1.
       22    1    1    2    0    0  0.36985783046E-02 -0.45869992855E-02 -0.29586359209E-01  0.30167411144E-01  0.00000000000E+00 0.  1.
       22    1    1    2    0    0 -0.18766530661E-02  0.39996323541E-02  0.34384246909E-01  0.34666919696E-01  0.00000000000E+00 0. -1.
       22    1    1    2    0    0 -0.18219252385E-02  0.58736693134E-03 -0.47978877001E-02  0.51656691599E-02  0.00000000000E+00 0. -1.
</event>
<event>
 5   0  0.4143600E+04  0.9118800E+02  0.7546771E-02  0.1180000E+00
      -11   -1    0    0    0    0  0.00000000000E+00  0.00000000000E+00  0.34996269501E-01  0.35000000000E-01  0.51099999109E-03 0.  1.
       11   -1    0    0    0    0 -0.00000000000E+00 -0.00000000000E+00 -0.34996269501E-01  0.35000000000E-01  0.51099999109E-03 0. -1.
       22    1    1    2    0    0  0.23746754916E-01  0.36623120937E-02  0.25050240046E-01  0.34710739336E-01  0.00000000000E+00 0.  1.
       22    1    1    2    0    0 -0.56092088229E-05 -0.72733721420E-05  0.33814802427E-03  0.33827274717E-03  0.00000000000E+00 0. -1.
       22    1    1    2    0    0 -0.23741145707E-01 -0.36550387216E-02 -0.25388388070E-01  0.34950987917E-01  0.00000000000E+00 0. -1.
</event>
<event>
 5   0  0.4143600E+04  0.9118800E+02  0.7546771E-02  0.1180000E+00
      -11   -1    0    0    0    0  0.00000000000E+00  0.00000000000E+00  0.34996269501E-01  0.35000000000E-01  0.51099999109E-03 0. -1.
       11   -1    0    0    0    0 -0.00000000000E+00 -0.00000000000E+00 -0.34996269501E-01  0.35000000000E-01  0.51099999109E-03 0.  1.
       22    1    1    2    0    0  0.48181398088E-03 -0.10170557975E-02 -0.25956436872E-02  0.28291188307E-02  0.00000000000E+00 0. -1.
       22    1    1    2    0    0  0.15560544855E-02 -0.66940142466E-02 -0.31455813964E-01  0.32197816144E-01  0.00000000000E+00 0.  1.
       22    1    1    2    0    0 -0.20378684664E-02  0.77110700440E-02  0.34051457651E-01  0.34973065026E-01  0.00000000000E+00 0. -1.
</event>
<event>
 5   0  0.4143600E+04  0.9118800E+02  0.7546771E-02  0.1180000E+00
      -11   -1    0    0    0    0  0.00000000000E+00  0.00000000000E+00  0.34996269501E-01  0.35000000000E-01  0.51099999109E-03 0. -1.
       11   -1    0    0    0    0 -0.00000000000E+00 -0.00000000000E+00 -0.34996269501E-01  0.35000000000E-01  0.51099999109E-03 0.  1.
       22    1    1    2    0    0 -0.17657069463E-02 -0.26624099323E-03 -0.28136236185E-02  0.33324290170E-02  0.00000000000E+00 0. -1.
       22    1    1    2    0    0  0.72262037087E-03 -0.41738276946E-03  0.34723403155E-01  0.34733429362E-01  0.00000000000E+00 0. -1.
       22    1    1    2    0    0  0.10430865754E-02  0.68362376269E-03 -0.31909779536E-01  0.31934141621E-01  0.00000000000E+00 0.  1.
</event>
<event>
 5   0  0.4143600E+04  0.9118800E+02  0.7546771E-02  0.1180000E+00
      -11   -1    0    0    0    0  0.00000000000E+00  0.00000000000E+00  0.34996269501E-01  0.35000000000E-01  0.51099999109E-03 0.  1.
       11   -1    0    0    0    0 -0.00000000000E+00 -0.00000000000E+00 -0.34996269501E-01  0.35000000000E-01  0.51099999109E-03 0. -1.
       22    1    1    2    0    0 -0.83834457640E-03 -0.15827780261E-01 -0.29793541955E-01  0.33747245693E-01  0.00000000000E+00 0. -1.
       22    1    1    2    0    0  0.83264235081E-03  0.26680726161E-02 -0.83480387726E-03  0.29169851358E-02  0.00000000000E+00 0. -1.
       22    1    1    2    0    0  0.57022255884E-05  0.13159707645E-01  0.30628345832E-01  0.33335769171E-01  0.00000000000E+00 0.  1.
</event>
<event>
 5   0  0.4143600E+04  0.9118800E+02  0.7546771E-02  0.1180000E+00
      -11   -1    0    0    0    0  0.00000000000E+00  0.00000000000E+00  0.34996269501E-01  0.35000000000E-01  0.51099999109E-03 0. -1.
       11   -1    0    0    0    0 -0.00000000000E+00 -0.00000000000E+00 -0.34996269501E-01  0.35000000000E-01  0.51099999109E-03 0.  1.
       22    1    1    2    0    0  0.23737729237E-03  0.29432844920E-03  0.19284602818E-03  0.42446060539E-03  0.00000000000E+00 0.  1.
       22    1    1    2    0    0 -0.11425407625E-01 -0.48328367523E-02 -0.32659723771E-01  0.34936425222E-01  0.00000000000E+00 0.  1.
       22    1    1    2    0    0  0.11188030333E-01  0.45385083031E-02  0.32466877743E-01  0.34639114173E-01  0.00000000000E+00 0. -1.
</event>
<event>
 5   0  0.4143600E+04  0.9118800E+02  0.7546771E-02  0.1180000E+00
      -11   -1    0    0    0    0  0.00000000000E+00  0.00000000000E+00  0.34996269501E-01  0.35000000000E-01  0.51099999109E-03 0.  1.
       11   -1    0    0    0    0 -0.00000000000E+00 -0.00000000000E+00 -0.34996269501E-01  0.35000000000E-01  0.51099999109E-03 0.  1.
       22    1    1    2    0    0 -0.88447352638E-03 -0.81429179353E-03 -0.32807908233E-02  0.34941312182E-02  0.00000000000E+00 0. -1.
       22    1    1    2    0    0  0.13462779849E-02 -0.56924013922E-04  0.34872625760E-01  0.34898649432E-01  0.00000000000E+00 0.  1.
       22    1    1    2    0    0 -0.46180445850E-03  0.87121580745E-03 -0.31591834937E-01  0.31607219350E-01  0.00000000000E+00 0.  1.
</event>
<event>
 5   0  0.4143600E+04  0.9118800E+02  0.7546771E-02  0.1180000E+00
      -11   -1    0    0    0    0  0.00000000000E+00  0.00000000000E+00  0.34996269501E-01  0.35000000000E-01  0.51099999109E-03 0. -1.
       11   -1    0    0    0    0 -0.00000000000E+00 -0.00000000000E+00 -0.34996269501E-01  0.35000000000E-01  0.51099999109E-03 0.  1.
       22    1    1    2    0    0 -0.14112600587E-04 -0.14935851740E-03  0.16034507188E-02  0.16104537683E-02  0.00000000000E+00 0.  1.
       22    1    1    2    0    0 -0.71060958685E-03  0.20988808075E-01 -0.27842066046E-01  0.34874283822E-01  0.00000000000E+00 0.  1.
       22    1    1    2    0    0  0.72472218744E-03 -0.20839449558E-01  0.26238615327E-01  0.33515262410E-01  0.00000000000E+00 0. -1.
</event>
<event>
 5   0  0.4143600E+04  0.9118800E+02  0.7546771E-02  0.1180000E+00
      -11   -1    0    0    0    0  0.00000000000E+00  0.00000000000E+00  0.34996269501E-01  0.35000000000E-01  0.51099999109E-03 0. -1.
       11   -1    0    0    0    0 -0.00000000000E+00 -0.00000000000E+00 -0.34996269501E-01  0.35000000000E-01  0.51099999109E-03 0.  1.
       22    1    1    2    0    0  0.58271503791E-02 -0.10161281179E-01  0.32973135148E-01  0.34991927043E-01  0.00000000000E+00 0. -1.
       22    1    1    2    0    0 -0.20564800326E-03  0.17967368557E-03 -0.12608419125E-02  0.12900759911E-02  0.00000000000E+00 0.  1.
       22    1    1    2    0    0 -0.56215023758E-02  0.99816074937E-02 -0.31712293235E-01  0.33717996965E-01  0.00000000000E+00 0.  1.
</event>
<event>
 5   0  0.4143600E+04  0.9118800E+02  0.7546771E-02  0.1180000E+00
      -11   -1    0    0    0    0  0.00000000000E+00  0.00000000000E+00  0.34996269501E-01  0.35000000000E-01  0.51099999109E-03 0. -1.
       11   -1    0    0    0    0 -0.00000000000E+00 -0.00000000000E+00 -0.34996269501E-01  0.35000000000E-01  0.51099999109E-03 0.  1.
       22    1    1    2    0    0  0.12486009932E-01  0.13471831075E-01  0.28594846022E-01  0.33986113275E-01  0.00000000000E+00 0. -1.
       22    1    1    2    0    0 -0.12802195746E-01 -0.13484970999E-01 -0.19611680595E-01  0.27025148926E-01  0.00000000000E+00 0.  1.
       22    1    1    2    0    0  0.31618581419E-03  0.13139923689E-04 -0.89831654269E-02  0.89887377987E-02  0.00000000000E+00 0. -1.
</event>
<event>
 5   0  0.4143600E+04  0.9118800E+02  0.7546771E-02  0.1180000E+00
      -11   -1    0    0    0    0  0.00000000000E+00  0.00000000000E+00  0.34996269501E-01  0.35000000000E-01  0.51099999109E-03 0. -1.
       11   -1    0    0    0    0 -0.00000000000E+00 -0.00000000000E+00 -0.34996269501E-01  0.35000000000E-01  0.51099999109E-03 0.  1.
       22    1    1    2    0    0 -0.24859575296E-03 -0.11258832105E-02  0.95282573131E-03  0.14957572418E-02  0.00000000000E+00 0.  1.
       22    1    1    2    0    0  0.12510114224E-01  0.57199906300E-02  0.31031365391E-01  0.33943583911E-01  0.00000000000E+00 0. -1.
       22    1    1    2    0    0 -0.12261518472E-01 -0.45941074195E-02 -0.31984191122E-01  0.34560658847E-01  0.00000000000E+00 0.  1.
</event>
<event>
 5   0  0.4143600E+04  0.9118800E+02  0.7546771E-02  0.1180000E+00
      -11   -1    0    0    0    0  0.00000000000E+00  0.00000000000E+00  0.34996269501E-01  0.35000000000E-01  0.51099999109E-03 0. -1.
       11   -1    0    0    0    0 -0.00000000000E+00 -0.00000000000E+00 -0.34996269501E-01  0.35000000000E-01  0.51099999109E-03 0.  1.
       22    1    1    2    0    0  0.12995313889E-01  0.93767172365E-02 -0.29080231982E-01  0.33203326661E-01  0.00000000000E+00 0.  1.
       22    1    1    2    0    0 -0.13109266135E-01 -0.96849707008E-02  0.30906616253E-01  0.34940956545E-01  0.00000000000E+00 0. -1.
       22    1    1    2    0    0  0.11395224601E-03  0.30825346429E-03 -0.18263842711E-02  0.18557167937E-02  0.00000000000E+00 0. -1.
</event>
<event>
 5   0  0.4143600E+04  0.9118800E+02  0.7546771E-02  0.1180000E+00
      -11   -1    0    0    0    0  0.00000000000E+00  0.00000000000E+00  0.34996269501E-01  0.35000000000E-01  0.51099999109E-03 0. -1.
       11   -1    0    0    0    0 -0.00000000000E+00 -0.00000000000E+00 -0.34996269501E-01  0.35000000000E-01  0.51099999109E-03 0.  1.
       22    1    1    2    0    0 -0.45383214242E-02 -0.48165599074E-02  0.33818240361E-01  0.34459671963E-01  0.00000000000E+00 0. -1.
       22    1    1    2    0    0  0.58387631194E-02  0.44023253499E-02 -0.15151711639E-01  0.16823970662E-01  0.00000000000E+00 0.  1.
       22    1    1    2    0    0 -0.13004416952E-02  0.41423455757E-03 -0.18666528721E-01  0.18716357375E-01  0.00000000000E+00 0.  1.
</event>
<event>
 5   0  0.4143600E+04  0.9118800E+02  0.7546771E-02  0.1180000E+00
      -11   -1    0    0    0    0  0.00000000000E+00  0.00000000000E+00  0.34996269501E-01  0.35000000000E-01  0.51099999109E-03 0. -1.
       11   -1    0    0    0    0 -0.00000000000E+00 -0.00000000000E+00 -0.34996269501E-01  0.35000000000E-01  0.51099999109E-03 0.  1.
       22    1    1    2    0    0 -0.75564633681E-02  0.17606738623E-01  0.25560491259E-01  0.31944265479E-01  0.00000000000E+00 0. -1.
       22    1    1    2    0    0  0.94715536862E-02 -0.21309514435E-01 -0.24348723963E-01  0.33714478986E-01  0.00000000000E+00 0.  1.
       22    1    1    2    0    0 -0.19150903182E-02  0.37027758121E-02 -0.12117672959E-02  0.43412555351E-02  0.00000000000E+00 0. -1.
</event>
<event>
 5   0  0.4143600E+04  0.9118800E+02  0.7546771E-02  0.1180000E+00
      -11   -1    0    0    0    0  0.00000000000E+00  0.00000000000E+00  0.34996269501E-01  0.35000000000E-01  0.51099999109E-03 0.  1.
       11   -1    0    0    0    0 -0.00000000000E+00 -0.00000000000E+00 -0.34996269501E-01  0.35000000000E-01  0.51099999109E-03 0. -1.
       22    1    1    2    0    0 -0.31548508704E-01 -0.10602031435E-01 -0.63904265440E-03  0.33288434140E-01  0.00000000000E+00 0. -1.
       22    1    1    2    0    0  0.29857430578E-01  0.90644291427E-02  0.51778743702E-02  0.31629739477E-01  0.00000000000E+00 0.  1.
       22    1    1    2    0    0  0.16910781256E-02  0.15376022923E-02 -0.45388317158E-02  0.50818263824E-02  0.00000000000E+00 0. -1.
</event>
<event>
 5   0  0.4143600E+04  0.9118800E+02  0.7546771E-02  0.1180000E+00
      -11   -1    0    0    0    0  0.00000000000E+00  0.00000000000E+00  0.34996269501E-01  0.35000000000E-01  0.51099999109E-03 0.  1.
       11   -1    0    0    0    0 -0.00000000000E+00 -0.00000000000E+00 -0.34996269501E-01  0.35000000000E-01  0.51099999109E-03 0. -1.
       22    1    1    2    0    0  0.27592160260E-03 -0.16938637383E-03 -0.32325167365E-03  0.45751078560E-03  0.00000000000E+00 0. -1.
       22    1    1    2    0    0 -0.43474554981E-02  0.22472960059E-01 -0.26106898505E-01  0.34720375180E-01  0.00000000000E+00 0. -1.
       22    1    1    2    0    0  0.40715338955E-02 -0.22303573685E-01  0.26430150178E-01  0.34822114034E-01  0.00000000000E+00 0.  1.
</event>
<event>
 5   0  0.4143600E+04  0.9118800E+02  0.7546771E-02  0.1180000E+00
      -11   -1    0    0    0    0  0.00000000000E+00  0.00000000000E+00  0.34996269501E-01  0.35000000000E-01  0.51099999109E-03 0. -1.
       11   -1    0    0    0    0 -0.00000000000E+00 -0.00000000000E+00 -0.34996269501E-01  0.35000000000E-01  0.51099999109E-03 0.  1.
       22    1    1    2    0    0 -0.19937933861E-01 -0.10243269897E-01  0.26515105409E-01  0.34720262091E-01  0.00000000000E+00 0. -1.
       22    1    1    2    0    0  0.20157033431E-01  0.99639336334E-02 -0.24583089550E-01  0.33315375760E-01  0.00000000000E+00 0.  1.
       22    1    1    2    0    0 -0.21909957032E-03  0.27933626411E-03 -0.19320158596E-02  0.19643621489E-02  0.00000000000E+00 0. -1.
</event>
<event>
 5   0  0.4143600E+04  0.9118800E+02  0.7546771E-02  0.1180000E+00
      -11   -1    0    0    0    0  0.00000000000E+00  0.00000000000E+00  0.34996269501E-01  0.35000000000E-01  0.51099999109E-03 0.  1.
       11   -1    0    0    0    0 -0.00000000000E+00 -0.00000000000E+00 -0.34996269501E-01  0.35000000000E-01  0.51099999109E-03 0. -1.
       22    1    1    2    0    0 -0.10919519675E-01 -0.94373450001E-02 -0.31547705491E-01  0.34692320654E-01  0.00000000000E+00 0. -1.
       22    1    1    2    0    0  0.10842405828E-01  0.94047464310E-02  0.31881594719E-01  0.34963453797E-01  0.00000000000E+00 0.  1.
       22    1    1    2    0    0  0.77113847501E-04  0.32598569104E-04 -0.33388922783E-03  0.34422554909E-03  0.00000000000E+00 0.  1.
</event>
<event>
 5   0  0.4143600E+04  0.9118800E+02  0.7546771E-02  0.1180000E+00
      -11   -1    0    0    0    0  0.00000000000E+00  0.00000000000E+00  0.34996269501E-01  0.35000000000E-01  0.51099999109E-03 0. -1.
       11   -1    0    0    0    0 -0.00000000000E+00 -0.00000000000E+00 -0.34996269501E-01  0.35000000000E-01  0.51099999109E-03 0.  1.
       22    1    1    2    0    0  0.24391835638E-01 -0.47052141988E-02  0.24586464457E-01  0.34951322163E-01  0.00000000000E+00 0. -1.
       22    1    1    2    0    0 -0.76779836269E-03  0.39076174485E-03 -0.35108393453E-03  0.93030586157E-03  0.00000000000E+00 0.  1.
       22    1    1    2    0    0 -0.23624037276E-01  0.43144524539E-02 -0.24235380522E-01  0.34118371975E-01  0.00000000000E+00 0.  1.
</event>
<event>
 5   0  0.4143600E+04  0.9118800E+02  0.7546771E-02  0.1180000E+00
      -11   -1    0    0    0    0  0.00000000000E+00  0.00000000000E+00  0.34996269501E-01  0.35000000000E-01  0.51099999109E-03 0. -1.
       11   -1    0    0    0    0 -0.00000000000E+00 -0.00000000000E+00 -0.34996269501E-01  0.35000000000E-01  0.51099999109E-03 0.  1.
       22    1    1    2    0    0 -0.98961732235E-02 -0.19915383155E-02  0.33304685590E-01  0.34800898718E-01  0.00000000000E+00 0. -1.
       22    1    1    2    0    0  0.10450377231E-01  0.23084802252E-02 -0.30517034320E-01  0.32339277186E-01  0.00000000000E+00 0.  1.
       22    1    1    2    0    0 -0.55420400709E-03 -0.31694190970E-03 -0.27876512704E-02  0.28598240962E-02  0.00000000000E+00 0.  1.
</event>
<event>
 5   0  0.4143600E+04  0.9118800E+02  0.7546771E-02  0.1180000E+00
      -11   -1    0    0    0    0  0.00000000000E+00  0.00000000000E+00  0.34996269501E-01  0.35000000000E-01  0.51099999109E-03 0. -1.
       11   -1    0    0    0    0 -0.00000000000E+00 -0.00000000000E+00 -0.34996269501E-01  0.35000000000E-01  0.51099999109E-03 0.  1.
       22    1    1    2    0    0 -0.15411300826E-02 -0.42639607162E-03  0.34710862693E-01  0.34747674518E-01  0.00000000000E+00 0. -1.
       22    1    1    2    0    0 -0.10887749021E-02  0.50229957454E-03 -0.28261858143E-01  0.28287282679E-01  0.00000000000E+00 0.  1.
       22    1    1    2    0    0  0.26299049847E-02 -0.75903502924E-04 -0.64490045495E-02  0.69650428032E-02  0.00000000000E+00 0.  1.
</event>
<event>
 5   0  0.4143600E+04  0.9118800E+02  0.7546771E-02  0.1180000E+00
      -11   -1    0    0    0    0  0.00000000000E+00  0.00000000000E+00  0.34996269501E-01  0.35000000000E-01  0.51099999109E-03 0. -1.
       11   -1    0    0    0    0 -0.00000000000E+00 -0.00000000000E+00 -0.34996269501E-01  0.35000000000E-01  0.51099999109E-03 0.  1.
       22    1    1    2    0    0 -0.11795904095E-02  0.42304604007E-02 -0.11095680440E-01  0.11933245709E-01  0.00000000000E+00 0.  1.
       22    1    1    2    0    0  0.11084524381E-02  0.26738761939E-02 -0.23049455908E-01  0.23230490705E-01  0.00000000000E+00 0.  1.
       22    1    1    2    0    0  0.71137971374E-04 -0.69043365946E-02  0.34145136348E-01  0.34836263586E-01  0.00000000000E+00 0. -1.
</event>
<event>
 5   0  0.4143600E+04  0.9118800E+02  0.7546771E-02  0.1180000E+00
      -11   -1    0    0    0    0  0.00000000000E+00  0.00000000000E+00  0.34996269501E-01  0.35000000000E-01  0.51099999109E-03 0. -1.
       11   -1    0    0    0    0 -0.00000000000E+00 -0.00000000000E+00 -0.34996269501E-01  0.35000000000E-01  0.51099999109E-03 0.  1.
       22    1    1    2    0    0 -0.21391676781E-01  0.52778390349E-02 -0.16251810245E-01  0.27378472504E-01  0.00000000000E+00 0.  1.
       22    1    1    2    0    0  0.15114963203E-01 -0.52778267682E-02  0.26290774182E-01  0.30781851392E-01  0.00000000000E+00 0. -1.
       22    1    1    2    0    0  0.62767135778E-02 -0.12266794711E-07 -0.10038963937E-01  0.11839676105E-01  0.00000000000E+00 0.  1.
</event>
<event>
 5   0  0.4143600E+04  0.9118800E+02  0.7546771E-02  0.1180000E+00
      -11   -1    0    0    0    0  0.00000000000E+00  0.00000000000E+00  0.34996269501E-01  0.35000000000E-01  0.51099999109E-03 0. -1.
       11   -1    0    0    0    0 -0.00000000000E+00 -0.00000000000E+00 -0.34996269501E-01  0.35000000000E-01  0.51099999109E-03 0.  1.
       22    1    1    2    0    0  0.12600983430E-01 -0.58329974480E-02 -0.29486852978E-01  0.32592685394E-01  0.00000000000E+00 0.  1.
       22    1    1    2    0    0 -0.15714304134E-01  0.23123652030E-02  0.28466658017E-01  0.32598113533E-01  0.00000000000E+00 0. -1.
       22    1    1    2    0    0  0.31133207038E-02  0.35206322451E-02  0.10201949610E-02  0.48092010738E-02  0.00000000000E+00 0. -1.
</event>
<event>
 5   0  0.4143600E+04  0.9118800E+02  0.7546771E-02  0.1180000E+00
      -11   -1    0    0    0    0  0.00000000000E+00  0.00000000000E+00  0.34996269501E-01  0.35000000000E-01  0.51099999109E-03 0.  1.
       11   -1    0    0    0    0 -0.00000000000E+00 -0.00000000000E+00 -0.34996269501E-01  0.35000000000E-01  0.51099999109E-03 0. -1.
       22    1    1    2    0    0  0.19314242698E-02 -0.72706512450E-02  0.68792470471E-02  0.10193959445E-01  0.00000000000E+00 0.  1.
       22    1    1    2    0    0 -0.96764162103E-02  0.21232153094E-01 -0.25974336859E-01  0.34915663118E-01  0.00000000000E+00 0. -1.
       22    1    1    2    0    0  0.77449919405E-02 -0.13961501849E-01  0.19095089812E-01  0.24890377437E-01  0.00000000000E+00 0.  1.
</event>
<event>
 5   0  0.4143600E+04  0.9118800E+02  0.7546771E-02  0.1180000E+00
      -11   -1    0    0    0    0  0.00000000000E+00  0.00000000000E+00  0.34996269501E-01  0.35000000000E-01  0.51099999109E-03 0.  1.
       11   -1    0    0    0    0 -0.00000000000E+00 -0.00000000000E+00 -0.34996269501E-01  0.35000000000E-01  0.51099999109E-03 0. -1.
       22    1    1    2    0    0 -0.72149981741E-02 -0.11789534721E-01  0.31879535491E-01  0.34747001463E-01  0.00000000000E+00 0.  1.
       22    1    1    2    0    0  0.68881426861E-03  0.78955538946E-03 -0.17049692408E-03  0.10615705397E-02  0.00000000000E+00 0.  1.
       22    1    1    2    0    0  0.65261839055E-02  0.10999979332E-01 -0.31709038566E-01  0.34191427997E-01  0.00000000000E+00 0. -1.
</event>
<event>
 5   0  0.4143600E+04  0.9118800E+02  0.7546771E-02  0.1180000E+00
      -11   -1    0    0    0    0  0.00000000000E+00  0.00000000000E+00  0.34996269501E-01  0.35000000000E-01  0.51099999109E-03 0.  1.
       11   -1    0    0    0    0 -0.00000000000E+00 -0.00000000000E+00 -0.34996269501E-01  0.35000000000E-01  0.51099999109E-03 0. -1.
       22    1    1    2    0    0 -0.15625715434E-01  0.50118353057E-02  0.45567151270E-02  0.17030711339E-01  0.00000000000E+00 0.  1.
       22    1    1    2    0    0 -0.27673565501E-02 -0.13281035539E-03  0.20957752676E-01  0.21140087466E-01  0.00000000000E+00 0.  1.
       22    1    1    2    0    0  0.18393071984E-01 -0.48790249503E-02 -0.25514467803E-01  0.31829201195E-01  0.00000000000E+00 0. -1.
</event>
<event>
 5   0  0.4143600E+04  0.9118800E+02  0.7546771E-02  0.1180000E+00
      -11   -1    0    0    0    0  0.00000000000E+00  0.00000000000E+00  0.34996269501E-01  0.35000000000E-01  0.51099999109E-03 0.  1.
       11   -1    0    0    0    0 -0.00000000000E+00 -0.00000000000E+00 -0.34996269501E-01  0.35000000000E-01  0.51099999109E-03 0. -1.
       22    1    1    2    0    0  0.65991404973E-04 -0.76553420235E-04  0.32334698834E-03  0.33877509730E-03  0.00000000000E+00 0. -1.
       22    1    1    2    0    0 -0.21309793936E-02  0.23451911117E-01 -0.25863126248E-01  0.34977628672E-01  0.00000000000E+00 0. -1.
       22    1    1    2    0    0  0.20649879886E-02 -0.23375357697E-01  0.25539779260E-01  0.34683596230E-01  0.00000000000E+00 0.  1.
</event>
<event>
 5   0  0.4143600E+04  0.9118800E+02  0.7546771E-02  0.1180000E+00
      -11   -1    0    0    0    0  0.00000000000E+00  0.00000000000E+00  0.34996269501E-01  0.35000000000E-01  0.51099999109E-03 0.  1.
       11   -1    0    0    0    0 -0.00000000000E+00 -0.00000000000E+00 -0.34996269501E-01  0.35000000000E-01  0.51099999109E-03 0. -1.
       22    1    1    2    0    0  0.52283615024E-02 -0.72401635076E-03 -0.73539765177E-02  0.90521231929E-02  0.00000000000E+00 0. -1.
       22    1    1    2    0    0 -0.53822530127E-02  0.13605807213E-02  0.33921249794E-01  0.34372532856E-01  0.00000000000E+00 0.  1.
       22    1    1    2    0    0  0.15389151025E-03 -0.63656437052E-03 -0.26567273276E-01  0.26575343951E-01  0.00000000000E+00 0. -1.
</event>
<event>
 5   0  0.4143600E+04  0.9118800E+02  0.7546771E-02  0.1180000E+00
      -11   -1    0    0    0    0  0.00000000000E+00  0.00000000000E+00  0.34996269501E-01  0.35000000000E-01  0.51099999109E-03 0.  1.
       11   -1    0    0    0    0 -0.00000000000E+00 -0.00000000000E+00 -0.34996269501E-01  0.35000000000E-01  0.51099999109E-03 0. -1.
       22    1    1    2    0    0 -0.88549772873E-03  0.11453906939E-02  0.32106009833E-02  0.35219291224E-02  0.00000000000E+00 0.  1.
       22    1    1    2    0    0  0.17784503630E-01 -0.19682779425E-02  0.26683975855E-01  0.32127826800E-01  0.00000000000E+00 0.  1.
       22    1    1    2    0    0 -0.16899005902E-01  0.82288724861E-03 -0.29894576838E-01  0.34350244078E-01  0.00000000000E+00 0. -1.
</event>
<event>
 5   0  0.4143600E+04  0.9118800E+02  0.7546771E-02  0.1180000E+00
      -11   -1    0    0    0    0  0.00000000000E+00  0.00000000000E+00  0.34996269501E-01  0.35000000000E-01  0.51099999109E-03 0. -1.
       11   -1    0    0    0    0 -0.00000000000E+00 -0.00000000000E+00 -0.34996269501E-01  0.35000000000E-01  0.51099999109E-03 0.  1.
       22    1    1    2    0    0 -0.21480390840E-02  0.87392558948E-02  0.26714771196E-01  0.28189850400E-01  0.00000000000E+00 0. -1.
       22    1    1    2    0    0  0.74170226059E-03  0.55316163692E-02  0.46875864590E-02  0.72885093613E-02  0.00000000000E+00 0.  1.
       22    1    1    2    0    0  0.14063368234E-02 -0.14270872264E-01 -0.31402357655E-01  0.34521640239E-01  0.00000000000E+00 0.  1.
</event>
<event>
 5   0  0.4143600E+04  0.9118800E+02  0.7546771E-02  0.1180000E+00
      -11   -1    0    0    0    0  0.00000000000E+00  0.00000000000E+00  0.34996269501E-01  0.35000000000E-01  0.51099999109E-03 0. -1.
       11   -1    0    0    0    0 -0.00000000000E+00 -0.00000000000E+00 -0.34996269501E-01  0.35000000000E-01  0.51099999109E-03 0.  1.
       22    1    1    2    0    0  0.63564834803E-02 -0.21284606292E-01  0.26773393928E-01  0.34788704628E-01  0.00000000000E+00 0. -1.
       22    1    1    2    0    0 -0.46620195090E-04  0.20963064845E-03 -0.22745881615E-02  0.22847034284E-02  0.00000000000E+00 0.  1.
       22    1    1    2    0    0 -0.63098632852E-02  0.21074975643E-01 -0.24498805767E-01  0.32926591944E-01  0.00000000000E+00 0.  1.
</event>
<event>
 5   0  0.4143600E+04  0.9118800E+02  0.7546771E-02  0.1180000E+00
      -11   -1    0    0    0    0  0.00000000000E+00  0.00000000000E+00  0.34996269501E-01  0.35000000000E-01  0.51099999109E-03 0.  1.
       11   -1    0    0    0    0 -0.00000000000E+00 -0.00000000000E+00 -0.34996269501E-01  0.35000000000E-01  0.51099999109E-03 0.  1.
       22    1    1    2    0    0 -0.25341438950E-02  0.44867800606E-03 -0.28901069609E-01  0.29015427307E-01  0.00000000000E+00 0.  1.
       22    1    1    2    0    0  0.18203872047E-03  0.10057698483E-03  0.34701090278E-01  0.34701713507E-01  0.00000000000E+00 0.  1.
       22    1    1    2    0    0  0.23521051746E-02 -0.54925499090E-03 -0.58000206689E-02  0.62828591865E-02  0.00000000000E+00 0. -1.
</event>
<event>
 5   0  0.4143600E+04  0.9118800E+02  0.7546771E-02  0.1180000E+00
      -11   -1    0    0    0    0  0.00000000000E+00  0.00000000000E+00  0.34996269501E-01  0.35000000000E-01  0.51099999109E-03 0. -1.
       11   -1    0    0    0    0 -0.00000000000E+00 -0.00000000000E+00 -0.34996269501E-01  0.35000000000E-01  0.51099999109E-03 0.  1.
       22    1    1    2    0    0 -0.10295509085E-01 -0.16504661160E-01 -0.29018310118E-01  0.34935135171E-01  0.00000000000E+00 0.  1.
       22    1    1    2    0    0  0.10279746463E-01  0.16524314164E-01  0.28296735713E-01  0.34342850754E-01  0.00000000000E+00 0. -1.
       22    1    1    2    0    0  0.15762622169E-04 -0.19653003949E-04  0.72157440544E-03  0.72201407425E-03  0.00000000000E+00 0. -1.
</event>
<event>
 5   0  0.4143600E+04  0.9118800E+02  0.7546771E-02  0.1180000E+00
      -11   -1    0    0    0    0  0.00000000000E+00  0.00000000000E+00  0.34996269501E-01  0.35000000000E-01  0.51099999109E-03 0. -1.
       11   -1    0    0    0    0 -0.00000000000E+00 -0.00000000000E+00 -0.34996269501E-01  0.35000000000E-01  0.51099999109E-03 0.  1.
       22    1    1    2    0    0  0.29009259172E-02 -0.19859907303E-03 -0.18335385502E-02  0.34375392920E-02  0.00000000000E+00 0. -1.
       22    1    1    2    0    0  0.12696741913E-01  0.18741986076E-02  0.30940743227E-01  0.33497006838E-01  0.00000000000E+00 0. -1.
       22    1    1    2    0    0 -0.15597667830E-01 -0.16755995346E-02 -0.29107204677E-01  0.33065453870E-01  0.00000000000E+00 0.  1.
</event>
<event>
 5   0  0.4143600E+04  0.9118800E+02  0.7546771E-02  0.1180000E+00
      -11   -1    0    0    0    0  0.00000000000E+00  0.00000000000E+00  0.34996269501E-01  0.35000000000E-01  0.51099999109E-03 0. -1.
       11   -1    0    0    0    0 -0.00000000000E+00 -0.00000000000E+00 -0.34996269501E-01  0.35000000000E-01  0.51099999109E-03 0.  1.
       22    1    1    2    0    0  0.32785272958E-03  0.74923251463E-03 -0.30237463676E-03  0.87193302164E-03  0.00000000000E+00 0. -1.
       22    1    1    2    0    0 -0.13882382625E-02  0.16742570886E-01 -0.29850179244E-01  0.34253088711E-01  0.00000000000E+00 0.  1.
       22    1    1    2    0    0  0.10603855329E-02 -0.17491803400E-01  0.30152553880E-01  0.34874978268E-01  0.00000000000E+00 0. -1.
</event>
<event>
 5   0  0.4143600E+04  0.9118800E+02  0.7546771E-02  0.1180000E+00
      -11   -1    0    0    0    0  0.00000000000E+00  0.00000000000E+00  0.34996269501E-01  0.35000000000E-01  0.51099999109E-03 0.  1.
       11   -1    0    0    0    0 -0.00000000000E+00 -0.00000000000E+00 -0.34996269501E-01  0.35000000000E-01  0.51099999109E-03 0. -1.
       22    1    1    2    0    0 -0.34397728005E-02 -0.26441513969E-01  0.22577325798E-01  0.34938822791E-01  0.00000000000E+00 0.  1.
       22    1    1    2    0    0  0.28011703700E-03  0.12089243891E-03 -0.36594282507E-03  0.47643959473E-03  0.00000000000E+00 0. -1.
       22    1    1    2    0    0  0.31596557635E-02  0.26320621530E-01 -0.22211382973E-01  0.34584737614E-01  0.00000000000E+00 0. -1.
</event>
<event>
 5   0  0.4143600E+04  0.9118800E+02  0.7546771E-02  0.1180000E+00
      -11   -1    0    0    0    0  0.00000000000E+00  0.00000000000E+00  0.34996269501E-01  0.35000000000E-01  0.51099999109E-03 0.  1.
       11   -1    0    0    0    0 -0.00000000000E+00 -0.00000000000E+00 -0.34996269501E-01  0.35000000000E-01  0.51099999109E-03 0. -1.
       22    1    1    2    0    0 -0.18573793454E-03  0.52433279893E-03  0.42473444901E-03  0.69987342894E-03  0.00000000000E+00 0.  1.
       22    1    1    2    0    0  0.20863354065E-01  0.39003889752E-03 -0.27938071888E-01  0.34870726032E-01  0.00000000000E+00 0. -1.
       22    1    1    2    0    0 -0.20677616131E-01 -0.91437169645E-03  0.27513337439E-01  0.34429400539E-01  0.00000000000E+00 0.  1.
</event>
<event>
 5   0  0.4143600E+04  0.9118800E+02  0.7546771E-02  0.1180000E+00
      -11   -1    0    0    0    0  0.00000000000E+00  0.00000000000E+00  0.34996269501E-01  0.35000000000E-01  0.51099999109E-03 0.  1.
       11   -1    0    0    0    0 -0.00000000000E+00 -0.00000000000E+00 -0.34996269501E-01  0.35000000000E-01  0.51099999109E-03 0. -1.
       22    1    1    2    0    0  0.15532257982E-01  0.39063917658E-02 -0.30844197143E-01  0.34754502327E-01  0.00000000000E+00 0. -1.
       22    1    1    2    0    0 -0.99961941006E-04 -0.13926472045E-03 -0.26473222731E-03  0.31538897284E-03  0.00000000000E+00 0.  1.
       22    1    1    2    0    0 -0.15432296041E-01 -0.37671270453E-02  0.31108929370E-01  0.34930108700E-01  0.00000000000E+00 0.  1.
</event>
<event>
 5   0  0.4143600E+04  0.9118800E+02  0.7546771E-02  0.1180000E+00
      -11   -1    0    0    0    0  0.00000000000E+00  0.00000000000E+00  0.34996269501E-01  0.35000000000E-01  0.51099999109E-03 0. -1.
       11   -1    0    0    0    0 -0.00000000000E+00 -0.00000000000E+00 -0.34996269501E-01  0.35000000000E-01  0.51099999109E-03 0.  1.
       22    1    1    2    0    0 -0.18253061647E-02  0.26032175116E-02  0.34512080245E-01  0.34658219326E-01  0.00000000000E+00 0. -1.
       22    1    1    2    0    0  0.92043456954E-03  0.18375680348E-03 -0.29651029653E-01  0.29665881512E-01  0.00000000000E+00 0.  1.
       22    1    1    2    0    0  0.90487159518E-03 -0.27869743151E-02 -0.48610505921E-02  0.56758991619E-02  0.00000000000E+00 0.  1.
</event>
<event>
 5   0  0.4143600E+04  0.9118800E+02  0.7546771E-02  0.1180000E+00
      -11   -1    0    0    0    0  0.00000000000E+00  0.00000000000E+00  0.34996269501E-01  0.35000000000E-01  0.51099999109E-03 0.  1.
       11   -1    0    0    0    0 -0.00000000000E+00 -0.00000000000E+00 -0.34996269501E-01  0.35000000000E-01  0.51099999109E-03 0. -1.
       22    1    1    2    0    0  0.27989213567E-01 -0.13252002984E-01  0.66718564425E-02  0.31678467886E-01  0.00000000000E+00 0. -1.
       22    1    1    2    0    0 -0.29421605114E-01  0.10413308396E-01 -0.31254442192E-03  0.31211624809E-01  0.00000000000E+00 0.  1.
       22    1    1    2    0    0  0.14323915468E-02  0.28386945887E-02 -0.63593120206E-02  0.71099073051E-02  0.00000000000E+00 0. -1.
</event>
<event>
 5   0  0.4143600E+04  0.9118800E+02  0.7546771E-02  0.1180000E+00
      -11   -1    0    0    0    0  0.00000000000E+00  0.00000000000E+00  0.34996269501E-01  0.35000000000E-01  0.51099999109E-03 0. -1.
       11   -1    0    0    0    0 -0.00000000000E+00 -0.00000000000E+00 -0.34996269501E-01  0.35000000000E-01  0.51099999109E-03 0.  1.
       22    1    1    2    0    0  0.13941346579E-01  0.10428390324E-02  0.32037210402E-01  0.34954706522E-01  0.00000000000E+00 0. -1.
       22    1    1    2    0    0 -0.13943100210E-01 -0.11486330165E-02 -0.31097162803E-01  0.34099309901E-01  0.00000000000E+00 0.  1.
       22    1    1    2    0    0  0.17536311644E-05  0.10579398405E-03 -0.94004759847E-03  0.94598357791E-03  0.00000000000E+00 0. -1.
</event>
<event>
 5   0  0.4143600E+04  0.9118800E+02  0.7546771E-02  0.1180000E+00
      -11   -1    0    0    0    0  0.00000000000E+00  0.00000000000E+00  0.34996269501E-01  0.35000000000E-01  0.51099999109E-03 0. -1.
       11   -1    0    0    0    0 -0.00000000000E+00 -0.00000000000E+00 -0.34996269501E-01  0.35000000000E-01  0.51099999109E-03 0.  1.
       22    1    1    2    0    0  0.63403502787E-02  0.76671110593E-02  0.33081636385E-01  0.34545322398E-01  0.00000000000E+00 0. -1.
       22    1    1    2    0    0 -0.11653538750E-02  0.42425242563E-04 -0.15744299888E-01  0.15787426279E-01  0.00000000000E+00 0.  1.
       22    1    1    2    0    0 -0.51749964037E-02 -0.77095363018E-02 -0.17337336497E-01  0.19667251323E-01  0.00000000000E+00 0.  1.
</event>
<event>
 5   0  0.4143600E+04  0.9118800E+02  0.7546771E-02  0.1180000E+00
      -11   -1    0    0    0    0  0.00000000000E+00  0.00000000000E+00  0.34996269501E-01  0.35000000000E-01  0.51099999109E-03 0. -1.
       11   -1    0    0    0    0 -0.00000000000E+00 -0.00000000000E+00 -0.34996269501E-01  0.35000000000E-01  0.51099999109E-03 0.  1.
       22    1    1    2    0    0  0.82407440653E-03  0.67039584475E-03 -0.11801134856E-02  0.15878277788E-02  0.00000000000E+00 0. -1.
       22    1    1    2    0    0 -0.60641041354E-03  0.33851453876E-01 -0.29432734432E-03  0.33858164328E-01  0.00000000000E+00 0.  1.
       22    1    1    2    0    0 -0.21766399299E-03 -0.34521849720E-01  0.14744408300E-02  0.34554007893E-01  0.00000000000E+00 0. -1.
</event>
<event>
 5   0  0.4143600E+04  0.9118800E+02  0.7546771E-02  0.1180000E+00
      -11   -1    0    0    0    0  0.00000000000E+00  0.00000000000E+00  0.34996269501E-01  0.35000000000E-01  0.51099999109E-03 0.  1.
       11   -1    0    0    0    0 -0.00000000000E+00 -0.00000000000E+00 -0.34996269501E-01  0.35000000000E-01  0.51099999109E-03 0. -1.
       22    1    1    2    0    0  0.57307529213E-04 -0.12217989143E-03  0.93912442673E-03  0.94877118825E-03  0.00000000000E+00 0. -1.
       22    1    1    2    0    0  0.72032725839E-02  0.12757215861E-01  0.30810909142E-01  0.34116650108E-01  0.00000000000E+00 0.  1.
       22    1    1    2    0    0 -0.72605801131E-02 -0.12635035969E-01 -0.31750033569E-01  0.34934578703E-01  0.00000000000E+00 0. -1.
</event>
<event>
 5   0  0.4143600E+04  0.9118800E+02  0.7546771E-02  0.1180000E+00
      -11   -1    0    0    0    0  0.00000000000E+00  0.00000000000E+00  0.34996269501E-01  0.35000000000E-01  0.51099999109E-03 0.  1.
       11   -1    0    0    0    0 -0.00000000000E+00 -0.00000000000E+00 -0.34996269501E-01  0.35000000000E-01  0.51099999109E-03 0. -1.
       22    1    1    2    0    0 -0.13978379770E-01 -0.15274303075E-02 -0.27931500369E-01  0.31271342427E-01  0.00000000000E+00 0. -1.
       22    1    1    2    0    0 -0.56380006073E-02 -0.45952254564E-03  0.16868083293E-02  0.59028411936E-02  0.00000000000E+00 0. -1.
       22    1    1    2    0    0  0.19616380377E-01  0.19869528531E-02  0.26244692040E-01  0.32825816379E-01  0.00000000000E+00 0.  1.
</event>
<event>
 5   0  0.4143600E+04  0.9118800E+02  0.7546771E-02  0.1180000E+00
      -11   -1    0    0    0    0  0.00000000000E+00  0.00000000000E+00  0.34996269501E-01  0.35000000000E-01  0.51099999109E-03 0.  1.
       11   -1    0    0    0    0 -0.00000000000E+00 -0.00000000000E+00 -0.34996269501E-01  0.35000000000E-01  0.51099999109E-03 0. -1.
       22    1    1    2    0    0 -0.30952188426E-02  0.10220780027E-02  0.34605437399E-01  0.34758615057E-01  0.00000000000E+00 0.  1.
       22    1    1    2    0    0  0.19352439759E-03  0.19149478192E-02 -0.51481938538E-02  0.54962147701E-02  0.00000000000E+00 0.  1.
       22    1    1    2    0    0  0.29016944450E-02 -0.29370258219E-02 -0.29457243545E-01  0.29745170173E-01  0.00000000000E+00 0. -1.
</event>
<event>
 5   0  0.4143600E+04  0.9118800E+02  0.7546771E-02  0.1180000E+00
      -11   -1    0    0    0    0  0.00000000000E+00  0.00000000000E+00  0.34996269501E-01  0.35000000000E-01  0.51099999109E-03 0. -1.
       11   -1    0    0    0    0 -0.00000000000E+00 -0.00000000000E+00 -0.34996269501E-01  0.35000000000E-01  0.51099999109E-03 0.  1.
       22    1    1    2    0    0 -0.15351350956E-01  0.71573446372E-02  0.29957224228E-01  0.34414050065E-01  0.00000000000E+00 0. -1.
       22    1    1    2    0    0  0.79993639134E-04 -0.98293966199E-03 -0.83898603288E-02  0.84476224879E-02  0.00000000000E+00 0.  1.
       22    1    1    2    0    0  0.15271357317E-01 -0.61744049752E-02 -0.21567363899E-01  0.27138327447E-01  0.00000000000E+00 0.  1.
</event>
<event>
 5   0  0.4143600E+04  0.9118800E+02  0.7546771E-02  0.1180000E+00
      -11   -1    0    0    0    0  0.00000000000E+00  0.00000000000E+00  0.34996269501E-01  0.35000000000E-01  0.51099999109E-03 0. -1.
       11   -1    0    0    0    0 -0.00000000000E+00 -0.00000000000E+00 -0.34996269501E-01  0.35000000000E-01  0.51099999109E-03 0.  1.
       22    1    1    2    0    0  0.66618366984E-02 -0.21075491426E-02 -0.12689078166E-01  0.14485666581E-01  0.00000000000E+00 0.  1.
       22    1    1    2    0    0 -0.75663219861E-02  0.22004454183E-02  0.33636520900E-01  0.34547166695E-01  0.00000000000E+00 0. -1.
       22    1    1    2    0    0  0.90448528772E-03 -0.92896275613E-04 -0.20947442734E-01  0.20967166724E-01  0.00000000000E+00 0.  1.
</event>
<event>
 5   0  0.4143600E+04  0.9118800E+02  0.7546771E-02  0.1180000E+00
      -11   -1    0    0    0    0  0.00000000000E+00  0.00000000000E+00  0.34996269501E-01  0.35000000000E-01  0.51099999109E-03 0.  1.
       11   -1    0    0    0    0 -0.00000000000E+00 -0.00000000000E+00 -0.34996269501E-01  0.35000000000E-01  0.51099999109E-03 0. -1.
       22    1    1    2    0    0  0.32863141935E-02 -0.61930462851E-02 -0.16095414601E-01  0.17556083118E-01  0.00000000000E+00 0. -1.
       22    1    1    2    0    0  0.37356281648E-02  0.14349019225E-01 -0.14055040401E-01  0.20430208789E-01  0.00000000000E+00 0. -1.
       22    1    1    2    0    0 -0.70219423583E-02 -0.81559729396E-02  0.30150455002E-01  0.32013708093E-01  0.00000000000E+00 0.  1.
</event>
<event>
 5   0  0.4143600E+04  0.9118800E+02  0.7546771E-02  0.1180000E+00
      -11   -1    0    0    0    0  0.00000000000E+00  0.00000000000E+00  0.34996269501E-01  0.35000000000E-01  0.51099999109E-03 0.  1.
       11   -1    0    0    0    0 -0.00000000000E+00 -0.00000000000E+00 -0.34996269501E-01  0.35000000000E-01  0.51099999109E-03 0. -1.
       22    1    1    2    0    0 -0.15957624613E-02  0.10301589132E-02  0.34857817475E-01  0.34909527701E-01  0.00000000000E+00 0.  1.
       22    1    1    2    0    0  0.27879705619E-03 -0.76627804254E-03 -0.15140834963E-02  0.17196972614E-02  0.00000000000E+00 0.  1.
       22    1    1    2    0    0  0.13169654052E-02 -0.26388087062E-03 -0.33343733978E-01  0.33370775038E-01  0.00000000000E+00 0. -1.
</event>
<event>
 5   0  0.4143600E+04  0.9118800E+02  0.7546771E-02  0.1180000E+00
      -11   -1    0    0    0    0  0.00000000000E+00  0.00000000000E+00  0.34996269501E-01  0.35000000000E-01  0.51099999109E-03 0.  1.
       11   -1    0    0    0    0 -0.00000000000E+00 -0.00000000000E+00 -0.34996269501E-01  0.35000000000E-01  0.51099999109E-03 0.  1.
       22    1    1    2    0    0 -0.90779001215E-04  0.16188233996E-03 -0.34715840855E-01  0.34716336976E-01  0.00000000000E+00 0.  1.
       22    1    1    2    0    0 -0.00000000000E+00  0.00000000000E+00  0.34971245760E-01  0.34967944187E-01  0.00000000000E+00 0.  1.
       22    1    1    2    0    0  0.90779001215E-04 -0.16188233996E-03 -0.25540490427E-03  0.31571883723E-03  0.00000000000E+00 0. -1.
</event>
<event>
 5   0  0.4143600E+04  0.9118800E+02  0.7546771E-02  0.1180000E+00
      -11   -1    0    0    0    0  0.00000000000E+00  0.00000000000E+00  0.34996269501E-01  0.35000000000E-01  0.51099999109E-03 0.  1.
       11   -1    0    0    0    0 -0.00000000000E+00 -0.00000000000E+00 -0.34996269501E-01  0.35000000000E-01  0.51099999109E-03 0. -1.
       22    1    1    2    0    0  0.58853452875E-02 -0.78917810273E-02 -0.19473984780E-01  0.21820943613E-01  0.00000000000E+00 0. -1.
       22    1    1    2    0    0 -0.22634625731E-01  0.34503660862E-02  0.10992591743E-02  0.22922471045E-01  0.00000000000E+00 0.  1.
       22    1    1    2    0    0  0.16749280443E-01  0.44414149411E-02  0.18374725606E-01  0.25256585342E-01  0.00000000000E+00 0. -1.
</event>
<event>
 5   0  0.4143600E+04  0.9118800E+02  0.7546771E-02  0.1180000E+00
      -11   -1    0    0    0    0  0.00000000000E+00  0.00000000000E+00  0.34996269501E-01  0.35000000000E-01  0.51099999109E-03 0. -1.
       11   -1    0    0    0    0 -0.00000000000E+00 -0.00000000000E+00 -0.34996269501E-01  0.35000000000E-01  0.51099999109E-03 0.  1.
       22    1    1    2    0    0  0.13045054445E-02  0.19616046207E-02 -0.34141319973E-01  0.34222497814E-01  0.00000000000E+00 0.  1.
       22    1    1    2    0    0  0.49523648797E-03 -0.36178283952E-03 -0.65537502233E-03  0.89758699962E-03  0.00000000000E+00 0.  1.
       22    1    1    2    0    0 -0.17997419325E-02 -0.15998217812E-02  0.34796694996E-01  0.34879915186E-01  0.00000000000E+00 0. -1.
</event>
<event>
 5   0  0.4143600E+04  0.9118800E+02  0.7546771E-02  0.1180000E+00
      -11   -1    0    0    0    0  0.00000000000E+00  0.00000000000E+00  0.34996269501E-01  0.35000000000E-01  0.51099999109E-03 0.  1.
       11   -1    0    0    0    0 -0.00000000000E+00 -0.00000000000E+00 -0.34996269501E-01  0.35000000000E-01  0.51099999109E-03 0. -1.
       22    1    1    2    0    0 -0.11250748565E-01  0.15236504328E-01  0.28005833392E-01  0.33809127634E-01  0.00000000000E+00 0.  1.
       22    1    1    2    0    0 -0.27867302181E-02 -0.10878033593E-02 -0.35798719845E-02  0.46652615020E-02  0.00000000000E+00 0. -1.
       22    1    1    2    0    0  0.14037478783E-01 -0.14148700969E-01 -0.24425961407E-01  0.31525610864E-01  0.00000000000E+00 0. -1.
</event>
<event>
 5   0  0.4143600E+04  0.9118800E+02  0.7546771E-02  0.1180000E+00
      -11   -1    0    0    0    0  0.00000000000E+00  0.00000000000E+00  0.34996269501E-01  0.35000000000E-01  0.51099999109E-03 0. -1.
       11   -1    0    0    0    0 -0.00000000000E+00 -0.00000000000E+00 -0.34996269501E-01  0.35000000000E-01  0.51099999109E-03 0.  1.
       22    1    1    2    0    0  0.29104767181E-02  0.52961822099E-02 -0.12358568717E-01  0.13756985188E-01  0.00000000000E+00 0.  1.
       22    1    1    2    0    0 -0.51298434680E-03 -0.22134323080E-03 -0.21709004099E-01  0.21716192225E-01  0.00000000000E+00 0.  1.
       22    1    1    2    0    0 -0.23974923713E-02 -0.50748389791E-02  0.34067572817E-01  0.34526822587E-01  0.00000000000E+00 0. -1.
</event>
<event>
 5   0  0.4143600E+04  0.9118800E+02  0.7546771E-02  0.1180000E+00
      -11   -1    0    0    0    0  0.00000000000E+00  0.00000000000E+00  0.34996269501E-01  0.35000000000E-01  0.51099999109E-03 0. -1.
       11   -1    0    0    0    0 -0.00000000000E+00 -0.00000000000E+00 -0.34996269501E-01  0.35000000000E-01  0.51099999109E-03 0.  1.
       22    1    1    2    0    0  0.97049424890E-03 -0.23793170215E-02 -0.33836579131E-01  0.33934010902E-01  0.00000000000E+00 0.  1.
       22    1    1    2    0    0 -0.51579712024E-03  0.32786467956E-03 -0.99682086455E-03  0.11692706074E-02  0.00000000000E+00 0.  1.
       22    1    1    2    0    0 -0.45469712866E-03  0.20514523419E-02  0.34833399996E-01  0.34896718491E-01  0.00000000000E+00 0. -1.
</event>
<event>
 5   0  0.4143600E+04  0.9118800E+02  0.7546771E-02  0.1180000E+00
      -11   -1    0    0    0    0  0.00000000000E+00  0.00000000000E+00  0.34996269501E-01  0.35000000000E-01  0.51099999109E-03 0. -1.
       11   -1    0    0    0    0 -0.00000000000E+00 -0.00000000000E+00 -0.34996269501E-01  0.35000000000E-01  0.51099999109E-03 0.  1.
       22    1    1    2    0    0  0.50699435653E-04 -0.15493088365E-03  0.55257937792E-03  0.57612323369E-03  0.00000000000E+00 0. -1.
       22    1    1    2    0    0  0.84366093727E-02 -0.98379688503E-02  0.31895063522E-01  0.34427562880E-01  0.00000000000E+00 0. -1.
       22    1    1    2    0    0 -0.84873088084E-02  0.99928997339E-02 -0.32447642899E-01  0.34996313886E-01  0.00000000000E+00 0.  1.
</event>
<event>
 5   0  0.4143600E+04  0.9118800E+02  0.7546771E-02  0.1180000E+00
      -11   -1    0    0    0    0  0.00000000000E+00  0.00000000000E+00  0.34996269501E-01  0.35000000000E-01  0.51099999109E-03 0. -1.
       11   -1    0    0    0    0 -0.00000000000E+00 -0.00000000000E+00 -0.34996269501E-01  0.35000000000E-01  0.51099999109E-03 0.  1.
       22    1    1    2    0    0 -0.44641828826E-04  0.79810186045E-04  0.55879474737E-03  0.56622798267E-03  0.00000000000E+00 0. -1.
       22    1    1    2    0    0  0.11797287770E-01  0.14874368776E-01  0.28774962953E-01  0.34473487467E-01  0.00000000000E+00 0. -1.
       22    1    1    2    0    0 -0.11752645941E-01 -0.14954178962E-01 -0.29333757700E-01  0.34960284550E-01  0.00000000000E+00 0.  1.
</event>
<event>
 5   0  0.4143600E+04  0.9118800E+02  0.7546771E-02  0.1180000E+00
      -11   -1    0    0    0    0  0.00000000000E+00  0.00000000000E+00  0.34996269501E-01  0.35000000000E-01  0.51099999109E-03 0. -1.
       11   -1    0    0    0    0 -0.00000000000E+00 -0.00000000000E+00 -0.34996269501E-01  0.35000000000E-01  0.51099999109E-03 0.  1.
       22    1    1    2    0    0 -0.87626072158E-02  0.15417918732E-01 -0.27342428369E-01  0.32589935446E-01  0.00000000000E+00 0.  1.
       22    1    1    2    0    0  0.13983473817E-02 -0.80101281107E-04 -0.26102902974E-02  0.29623313542E-02  0.00000000000E+00 0. -1.
       22    1    1    2    0    0  0.73642598340E-02 -0.15337817451E-01  0.29952718667E-01  0.34447733200E-01  0.00000000000E+00 0. -1.
</event>
<event>
 5   0  0.4143600E+04  0.9118800E+02  0.7546771E-02  0.1180000E+00
      -11   -1    0    0    0    0  0.00000000000E+00  0.00000000000E+00  0.34996269501E-01  0.35000000000E-01  0.51099999109E-03 0.  1.
       11   -1    0    0    0    0 -0.00000000000E+00 -0.00000000000E+00 -0.34996269501E-01  0.35000000000E-01  0.51099999109E-03 0. -1.
       22    1    1    2    0    0 -0.31970995126E-02  0.19379456492E-01 -0.23818939630E-01  0.30872749543E-01  0.00000000000E+00 0. -1.
       22    1    1    2    0    0  0.11538448052E-01 -0.48070130731E-02  0.16772019059E-01  0.20917547214E-01  0.00000000000E+00 0. -1.
       22    1    1    2    0    0 -0.83413485398E-02 -0.14572443419E-01  0.70469205710E-02  0.18209703243E-01  0.00000000000E+00 0.  1.
</event>
<event>
 5   0  0.4143600E+04  0.9118800E+02  0.7546771E-02  0.1180000E+00
      -11   -1    0    0    0    0  0.00000000000E+00  0.00000000000E+00  0.34996269501E-01  0.35000000000E-01  0.51099999109E-03 0.  1.
       11   -1    0    0    0    0 -0.00000000000E+00 -0.00000000000E+00 -0.34996269501E-01  0.35000000000E-01  0.51099999109E-03 0. -1.
       22    1    1    2    0    0 -0.99661440610E-03  0.13077657047E-01  0.13317557701E-01  0.18691594294E-01  0.00000000000E+00 0.  1.
       22    1    1    2    0    0  0.87439632876E-03 -0.12079046191E-01 -0.31163571509E-01  0.33434056215E-01  0.00000000000E+00 0. -1.
       22    1    1    2    0    0  0.12221807733E-03 -0.99861085595E-03  0.17846013808E-01  0.17874349491E-01  0.00000000000E+00 0.  1.
</event>
<event>
 5   0  0.4143600E+04  0.9118800E+02  0.7546771E-02  0.1180000E+00
      -11   -1    0    0    0    0  0.00000000000E+00  0.00000000000E+00  0.34996269501E-01  0.35000000000E-01  0.51099999109E-03 0.  1.
       11   -1    0    0    0    0 -0.00000000000E+00 -0.00000000000E+00 -0.34996269501E-01  0.35000000000E-01  0.51099999109E-03 0. -1.
       22    1    1    2    0    0 -0.16914533349E-01 -0.10705048368E-01  0.16663769284E-01  0.26045742564E-01  0.00000000000E+00 0.  1.
       22    1    1    2    0    0 -0.91578062765E-04  0.77972913558E-03  0.10430878252E-01  0.10460381693E-01  0.00000000000E+00 0.  1.
       22    1    1    2    0    0  0.17006111412E-01  0.99253192322E-02 -0.27094647535E-01  0.33493875743E-01  0.00000000000E+00 0. -1.
</event>
<event>
 5   0  0.4143600E+04  0.9118800E+02  0.7546771E-02  0.1180000E+00
      -11   -1    0    0    0    0  0.00000000000E+00  0.00000000000E+00  0.34996269501E-01  0.35000000000E-01  0.51099999109E-03 0.  1.
       11   -1    0    0    0    0 -0.00000000000E+00 -0.00000000000E+00 -0.34996269501E-01  0.35000000000E-01  0.51099999109E-03 0. -1.
       22    1    1    2    0    0 -0.90926903488E-03  0.13789483178E-02  0.34745393028E-01  0.34784631740E-01  0.00000000000E+00 0.  1.
       22    1    1    2    0    0 -0.87597449929E-03 -0.44873862200E-03 -0.97624681551E-03  0.13862739697E-02  0.00000000000E+00 0.  1.
       22    1    1    2    0    0  0.17852435342E-02 -0.93020969577E-03 -0.33769146213E-01  0.33829094290E-01  0.00000000000E+00 0. -1.
</event>
<event>
 5   0  0.4143600E+04  0.9118800E+02  0.7546771E-02  0.1180000E+00
      -11   -1    0    0    0    0  0.00000000000E+00  0.00000000000E+00  0.34996269501E-01  0.35000000000E-01  0.51099999109E-03 0. -1.
       11   -1    0    0    0    0 -0.00000000000E+00 -0.00000000000E+00 -0.34996269501E-01  0.35000000000E-01  0.51099999109E-03 0.  1.
       22    1    1    2    0    0  0.11428889205E-01  0.39347637945E-02 -0.30047372821E-01  0.32387443369E-01  0.00000000000E+00 0.  1.
       22    1    1    2    0    0 -0.10220003159E-01 -0.27404351131E-02  0.32751775192E-01  0.34418559345E-01  0.00000000000E+00 0. -1.
       22    1    1    2    0    0 -0.12088860459E-02 -0.11943286813E-02 -0.27044023715E-02  0.31939972852E-02  0.00000000000E+00 0.  1.
</event>
<event>
 5   0  0.4143600E+04  0.9118800E+02  0.7546771E-02  0.1180000E+00
      -11   -1    0    0    0    0  0.00000000000E+00  0.00000000000E+00  0.34996269501E-01  0.35000000000E-01  0.51099999109E-03 0. -1.
       11   -1    0    0    0    0 -0.00000000000E+00 -0.00000000000E+00 -0.34996269501E-01  0.35000000000E-01  0.51099999109E-03 0.  1.
       22    1    1    2    0    0  0.11589608081E-03 -0.23558921409E-03 -0.38273436592E-03  0.46413335821E-03  0.00000000000E+00 0.  1.
       22    1    1    2    0    0  0.24181410332E-01  0.24995617143E-01  0.17097589211E-02  0.34820177449E-01  0.00000000000E+00 0.  1.
       22    1    1    2    0    0 -0.24297306413E-01 -0.24760027929E-01 -0.13270245552E-02  0.34715689193E-01  0.00000000000E+00 0. -1.
</event>
<event>
 5   0  0.4143600E+04  0.9118800E+02  0.7546771E-02  0.1180000E+00
      -11   -1    0    0    0    0  0.00000000000E+00  0.00000000000E+00  0.34996269501E-01  0.35000000000E-01  0.51099999109E-03 0.  1.
       11   -1    0    0    0    0 -0.00000000000E+00 -0.00000000000E+00 -0.34996269501E-01  0.35000000000E-01  0.51099999109E-03 0.  1.
       22    1    1    2    0    0  0.24468677154E-02 -0.64404477126E-04 -0.30669434086E-01  0.30766954622E-01  0.00000000000E+00 0.  1.
       22    1    1    2    0    0 -0.31966989175E-02 -0.10041819749E-02 -0.36119535908E-02  0.49268117632E-02  0.00000000000E+00 0. -1.
       22    1    1    2    0    0  0.74983120203E-03  0.10685864520E-02  0.34281387676E-01  0.34306233615E-01  0.00000000000E+00 0.  1.
</event>
<event>
 5   0  0.4143600E+04  0.9118800E+02  0.7546771E-02  0.1180000E+00
      -11   -1    0    0    0    0  0.00000000000E+00  0.00000000000E+00  0.34996269501E-01  0.35000000000E-01  0.51099999109E-03 0.  1.
       11   -1    0    0    0    0 -0.00000000000E+00 -0.00000000000E+00 -0.34996269501E-01  0.35000000000E-01  0.51099999109E-03 0. -1.
       22    1    1    2    0    0 -0.20718017610E-01  0.21490865693E-01  0.17091878726E-01  0.34398050531E-01  0.00000000000E+00 0.  1.
       22    1    1    2    0    0  0.12306360644E-02 -0.13784407701E-02 -0.45617404308E-02  0.49217923400E-02  0.00000000000E+00 0.  1.
       22    1    1    2    0    0  0.19487381546E-01 -0.20112424922E-01 -0.12530138295E-01  0.30680157129E-01  0.00000000000E+00 0. -1.
</event>
<event>
 5   0  0.4143600E+04  0.9118800E+02  0.7546771E-02  0.1180000E+00
      -11   -1    0    0    0    0  0.00000000000E+00  0.00000000000E+00  0.34996269501E-01  0.35000000000E-01  0.51099999109E-03 0.  1.
       11   -1    0    0    0    0 -0.00000000000E+00 -0.00000000000E+00 -0.34996269501E-01  0.35000000000E-01  0.51099999109E-03 0. -1.
       22    1    1    2    0    0 -0.67315495607E-03  0.42148531035E-03 -0.14609722779E-02  0.16628973084E-02  0.00000000000E+00 0.  1.
       22    1    1    2    0    0  0.38602927960E-02 -0.21905398324E-02 -0.33194764112E-01  0.33490187961E-01  0.00000000000E+00 0. -1.
       22    1    1    2    0    0 -0.31871378399E-02  0.17690545220E-02  0.34655736390E-01  0.34846914730E-01  0.00000000000E+00 0.  1.
</event>
<event>
 5   0  0.4143600E+04  0.9118800E+02  0.7546771E-02  0.1180000E+00
      -11   -1    0    0    0    0  0.00000000000E+00  0.00000000000E+00  0.34996269501E-01  0.35000000000E-01  0.51099999109E-03 0. -1.
       11   -1    0    0    0    0 -0.00000000000E+00 -0.00000000000E+00 -0.34996269501E-01  0.35000000000E-01  0.51099999109E-03 0. -1.
       22    1    1    2    0    0 -0.40110088146E-02 -0.36857872388E-02 -0.69125939889E-02  0.88009757946E-02  0.00000000000E+00 0.  1.
       22    1    1    2    0    0  0.41503261779E-02  0.36429394832E-02  0.33831741086E-01  0.34279482499E-01  0.00000000000E+00 0. -1.
       22    1    1    2    0    0 -0.13931736335E-03  0.42847755678E-04 -0.26919147097E-01  0.26919541707E-01  0.00000000000E+00 0. -1.
</event>
<event>
 5   0  0.4143600E+04  0.9118800E+02  0.7546771E-02  0.1180000E+00
      -11   -1    0    0    0    0  0.00000000000E+00  0.00000000000E+00  0.34996269501E-01  0.35000000000E-01  0.51099999109E-03 0. -1.
       11   -1    0    0    0    0 -0.00000000000E+00 -0.00000000000E+00 -0.34996269501E-01  0.35000000000E-01  0.51099999109E-03 0.  1.
       22    1    1    2    0    0 -0.31956463456E-02  0.12478310433E-02  0.34733406758E-01  0.34902418009E-01  0.00000000000E+00 0. -1.
       22    1    1    2    0    0  0.97451290295E-03 -0.11072733312E-02 -0.36812285875E-02  0.39657500604E-02  0.00000000000E+00 0.  1.
       22    1    1    2    0    0  0.22211334427E-02 -0.14055771211E-03 -0.31052178170E-01  0.31131831931E-01  0.00000000000E+00 0.  1.
</event>
<event>
 5   0  0.4143600E+04  0.9118800E+02  0.7546771E-02  0.1180000E+00
      -11   -1    0    0    0    0  0.00000000000E+00  0.00000000000E+00  0.34996269501E-01  0.35000000000E-01  0.51099999109E-03 0. -1.
       11   -1    0    0    0    0 -0.00000000000E+00 -0.00000000000E+00 -0.34996269501E-01  0.35000000000E-01  0.51099999109E-03 0.  1.
       22    1    1    2    0    0  0.65594338165E-02 -0.42145150195E-02  0.33961831405E-01  0.34845290948E-01  0.00000000000E+00 0. -1.
       22    1    1    2    0    0 -0.70746456338E-03 -0.86418043113E-03 -0.22763041066E-02  0.25355224928E-02  0.00000000000E+00 0. -1.
       22    1    1    2    0    0 -0.58519692531E-02  0.50786954507E-02 -0.31685527299E-01  0.32619186560E-01  0.00000000000E+00 0.  1.
</event>
<event>
 5   0  0.4143600E+04  0.9118800E+02  0.7546771E-02  0.1180000E+00
      -11   -1    0    0    0    0  0.00000000000E+00  0.00000000000E+00  0.34996269501E-01  0.35000000000E-01  0.51099999109E-03 0. -1.
       11   -1    0    0    0    0 -0.00000000000E+00 -0.00000000000E+00 -0.34996269501E-01  0.35000000000E-01  0.51099999109E-03 0.  1.
       22    1    1    2    0    0 -0.99382928961E-02  0.12682845234E-01 -0.27215771511E-01  0.31627874539E-01  0.00000000000E+00 0.  1.
       22    1    1    2    0    0 -0.90918876105E-03  0.25145462233E-02  0.16760734533E-01  0.16972677721E-01  0.00000000000E+00 0. -1.
       22    1    1    2    0    0  0.10847481657E-01 -0.15197391457E-01  0.10455036978E-01  0.21399447741E-01  0.00000000000E+00 0. -1.
</event>
<event>
 5   0  0.4143600E+04  0.9118800E+02  0.7546771E-02  0.1180000E+00
      -11   -1    0    0    0    0  0.00000000000E+00  0.00000000000E+00  0.34996269501E-01  0.35000000000E-01  0.51099999109E-03 0.  1.
       11   -1    0    0    0    0 -0.00000000000E+00 -0.00000000000E+00 -0.34996269501E-01  0.35000000000E-01  0.51099999109E-03 0. -1.
       22    1    1    2    0    0  0.12400787756E-01 -0.89934203588E-02  0.27102240374E-01  0.31131857959E-01  0.00000000000E+00 0.  1.
       22    1    1    2    0    0 -0.14941921660E-01  0.14065045227E-01 -0.25944200679E-01  0.33078513706E-01  0.00000000000E+00 0. -1.
       22    1    1    2    0    0  0.25411339036E-02 -0.50716248683E-02 -0.11580396941E-02  0.57896283347E-02  0.00000000000E+00 0. -1.
</event>
<event>
 5   0  0.4143600E+04  0.9118800E+02  0.7546771E-02  0.1180000E+00
      -11   -1    0    0    0    0  0.00000000000E+00  0.00000000000E+00  0.34996269501E-01  0.35000000000E-01  0.51099999109E-03 0. -1.
       11   -1    0    0    0    0 -0.00000000000E+00 -0.00000000000E+00 -0.34996269501E-01  0.35000000000E-01  0.51099999109E-03 0. -1.
       22    1    1    2    0    0  0.00000000000E+00 -0.00000000000E+00  0.34977504351E-01  0.34974469506E-01  0.00000000000E+00 0. -1.
       22    1    1    2    0    0 -0.11440085081E-03 -0.19150039604E-03 -0.34475202564E-01  0.34475924234E-01  0.00000000000E+00 0. -1.
       22    1    1    2    0    0  0.11440085081E-03  0.19150039604E-03 -0.50230178710E-03  0.54960626059E-03  0.00000000000E+00 0.  1.
</event>
<event>
 5   0  0.4143600E+04  0.9118800E+02  0.7546771E-02  0.1180000E+00
      -11   -1    0    0    0    0  0.00000000000E+00  0.00000000000E+00  0.34996269501E-01  0.35000000000E-01  0.51099999109E-03 0.  1.
       11   -1    0    0    0    0 -0.00000000000E+00 -0.00000000000E+00 -0.34996269501E-01  0.35000000000E-01  0.51099999109E-03 0. -1.
       22    1    1    2    0    0  0.61415404409E-03  0.84668323099E-03 -0.19104082012E-02  0.21780076168E-02  0.00000000000E+00 0.  1.
       22    1    1    2    0    0 -0.51649385210E-02  0.25720906920E-02  0.34378206743E-01  0.34859049604E-01  0.00000000000E+00 0.  1.
       22    1    1    2    0    0  0.45507844769E-02 -0.34187739230E-02 -0.32467798542E-01  0.32962942779E-01  0.00000000000E+00 0. -1.
</event>
<event>
 5   0  0.4143600E+04  0.9118800E+02  0.7546771E-02  0.1180000E+00
      -11   -1    0    0    0    0  0.00000000000E+00  0.00000000000E+00  0.34996269501E-01  0.35000000000E-01  0.51099999109E-03 0. -1.
       11   -1    0    0    0    0 -0.00000000000E+00 -0.00000000000E+00 -0.34996269501E-01  0.35000000000E-01  0.51099999109E-03 0.  1.
       22    1    1    2    0    0 -0.13791247350E-03  0.79823825276E-03  0.17949300047E-01  0.17967570129E-01  0.00000000000E+00 0. -1.
       22    1    1    2    0    0  0.13879245256E-01  0.89336263354E-02 -0.27941363743E-01  0.32452471958E-01  0.00000000000E+00 0.  1.
       22    1    1    2    0    0 -0.13741332782E-01 -0.97318645882E-02  0.99920636953E-02  0.19579957913E-01  0.00000000000E+00 0. -1.
</event>
<event>
 5   0  0.4143600E+04  0.9118800E+02  0.7546771E-02  0.1180000E+00
      -11   -1    0    0    0    0  0.00000000000E+00  0.00000000000E+00  0.34996269501E-01  0.35000000000E-01  0.51099999109E-03 0. -1.
       11   -1    0    0    0    0 -0.00000000000E+00 -0.00000000000E+00 -0.34996269501E-01  0.35000000000E-01  0.51099999109E-03 0.  1.
       22    1    1    2    0    0  0.73709104727E-02  0.14217955263E-02  0.33819026506E-01  0.34642147415E-01  0.00000000000E+00 0. -1.
       22    1    1    2    0    0 -0.68472282638E-02 -0.16667768642E-02 -0.15467732363E-01  0.16997453470E-01  0.00000000000E+00 0.  1.
       22    1    1    2    0    0 -0.52368220891E-03  0.24498133796E-03 -0.18351294143E-01  0.18360399115E-01  0.00000000000E+00 0.  1.
</event>
<event>
 5   0  0.4143600E+04  0.9118800E+02  0.7546771E-02  0.1180000E+00
      -11   -1    0    0    0    0  0.00000000000E+00  0.00000000000E+00  0.34996269501E-01  0.35000000000E-01  0.51099999109E-03 0. -1.
       11   -1    0    0    0    0 -0.00000000000E+00 -0.00000000000E+00 -0.34996269501E-01  0.35000000000E-01  0.51099999109E-03 0. -1.
       22    1    1    2    0    0  0.11189713213E-01  0.12180627147E-01 -0.26640664824E-01  0.31357652683E-01  0.00000000000E+00 0. -1.
       22    1    1    2    0    0 -0.11497766421E-01 -0.12267457836E-01  0.57798594652E-02  0.17779086868E-01  0.00000000000E+00 0.  1.
       22    1    1    2    0    0  0.30805320797E-03  0.86830688745E-04  0.20860805359E-01  0.20863260449E-01  0.00000000000E+00 0. -1.
</event>
<event>
 5   0  0.4143600E+04  0.9118800E+02  0.7546771E-02  0.1180000E+00
      -11   -1    0    0    0    0  0.00000000000E+00  0.00000000000E+00  0.34996269501E-01  0.35000000000E-01  0.51099999109E-03 0. -1.
       11   -1    0    0    0    0 -0.00000000000E+00 -0.00000000000E+00 -0.34996269501E-01  0.35000000000E-01  0.51099999109E-03 0.  1.
       22    1    1    2    0    0 -0.24046783803E-02 -0.15154262455E-01  0.31241760956E-01  0.34806346782E-01  0.00000000000E+00 0. -1.
       22    1    1    2    0    0  0.18840976324E-02  0.15160183330E-01 -0.31107080191E-01  0.34655900227E-01  0.00000000000E+00 0.  1.
       22    1    1    2    0    0  0.52058074791E-03 -0.59208753086E-05 -0.13468076448E-03  0.53775299179E-03  0.00000000000E+00 0.  1.
</event>
<event>
 5   0  0.4143600E+04  0.9118800E+02  0.7546771E-02  0.1180000E+00
      -11   -1    0    0    0    0  0.00000000000E+00  0.00000000000E+00  0.34996269501E-01  0.35000000000E-01  0.51099999109E-03 0. -1.
       11   -1    0    0    0    0 -0.00000000000E+00 -0.00000000000E+00 -0.34996269501E-01  0.35000000000E-01  0.51099999109E-03 0.  1.
       22    1    1    2    0    0 -0.18848611048E-01 -0.10495522446E-01 -0.27544030835E-01  0.34987137128E-01  0.00000000000E+00 0.  1.
       22    1    1    2    0    0  0.17709419293E-02  0.13927714638E-02  0.25529698959E-02  0.34049527099E-02  0.00000000000E+00 0.  1.
       22    1    1    2    0    0  0.17077669118E-01  0.91027509817E-02  0.24991060939E-01  0.31607910162E-01  0.00000000000E+00 0. -1.
</event>
<event>
 5   0  0.4143600E+04  0.9118800E+02  0.7546771E-02  0.1180000E+00
      -11   -1    0    0    0    0  0.00000000000E+00  0.00000000000E+00  0.34996269501E-01  0.35000000000E-01  0.51099999109E-03 0.  1.
       11   -1    0    0    0    0 -0.00000000000E+00 -0.00000000000E+00 -0.34996269501E-01  0.35000000000E-01  0.51099999109E-03 0. -1.
       22    1    1    2    0    0  0.12494361090E-02 -0.13685419597E-02  0.15754890424E-02  0.24323164697E-02  0.00000000000E+00 0.  1.
       22    1    1    2    0    0 -0.10260085209E-01 -0.84214860782E-02 -0.31846225615E-01  0.34501780566E-01  0.00000000000E+00 0. -1.
       22    1    1    2    0    0  0.90106491001E-02  0.97900280379E-02  0.30270736573E-01  0.33065902965E-01  0.00000000000E+00 0.  1.
</event>
<event>
 5   0  0.4143600E+04  0.9118800E+02  0.7546771E-02  0.1180000E+00
      -11   -1    0    0    0    0  0.00000000000E+00  0.00000000000E+00  0.34996269501E-01  0.35000000000E-01  0.51099999109E-03 0.  1.
       11   -1    0    0    0    0 -0.00000000000E+00 -0.00000000000E+00 -0.34996269501E-01  0.35000000000E-01  0.51099999109E-03 0.  1.
       22    1    1    2    0    0  0.11998340703E-01  0.20592447728E-02 -0.15927588662E-01  0.20047163122E-01  0.00000000000E+00 0.  1.
       22    1    1    2    0    0  0.00000000000E+00 -0.00000000000E+00  0.30763710840E-01  0.30761401550E-01  0.00000000000E+00 0.  1.
       22    1    1    2    0    0 -0.11998340703E-01 -0.20592447728E-02 -0.14836122178E-01  0.19191435328E-01  0.00000000000E+00 0. -1.
</event>
<event>
 5   0  0.4143600E+04  0.9118800E+02  0.7546771E-02  0.1180000E+00
      -11   -1    0    0    0    0  0.00000000000E+00  0.00000000000E+00  0.34996269501E-01  0.35000000000E-01  0.51099999109E-03 0.  1.
       11   -1    0    0    0    0 -0.00000000000E+00 -0.00000000000E+00 -0.34996269501E-01  0.35000000000E-01  0.51099999109E-03 0. -1.
       22    1    1    2    0    0 -0.56023563433E-02  0.13688490418E-01  0.22564688449E-01  0.26980109921E-01  0.00000000000E+00 0.  1.
       22    1    1    2    0    0 -0.26488265502E-02  0.36347609702E-02  0.66736244777E-02  0.80476725252E-02  0.00000000000E+00 0. -1.
       22    1    1    2    0    0  0.82511828935E-02 -0.17323251388E-01 -0.29238312927E-01  0.34972217554E-01  0.00000000000E+00 0. -1.
</event>
<event>
 5   0  0.4143600E+04  0.9118800E+02  0.7546771E-02  0.1180000E+00
      -11   -1    0    0    0    0  0.00000000000E+00  0.00000000000E+00  0.34996269501E-01  0.35000000000E-01  0.51099999109E-03 0.  1.
       11   -1    0    0    0    0 -0.00000000000E+00 -0.00000000000E+00 -0.34996269501E-01  0.35000000000E-01  0.51099999109E-03 0. -1.
       22    1    1    2    0    0 -0.58811150605E-02 -0.10334524811E-01 -0.32794603787E-01  0.34883749153E-01  0.00000000000E+00 0. -1.
       22    1    1    2    0    0  0.63341042175E-02  0.10264398922E-01  0.32017618589E-01  0.34214129560E-01  0.00000000000E+00 0.  1.
       22    1    1    2    0    0 -0.45298915697E-03  0.70125889079E-04  0.77698519871E-03  0.90212128656E-03  0.00000000000E+00 0. -1.
</event>
<event>
 5   0  0.4143600E+04  0.9118800E+02  0.7546771E-02  0.1180000E+00
      -11   -1    0    0    0    0  0.00000000000E+00  0.00000000000E+00  0.34996269501E-01  0.35000000000E-01  0.51099999109E-03 0. -1.
       11   -1    0    0    0    0 -0.00000000000E+00 -0.00000000000E+00 -0.34996269501E-01  0.35000000000E-01  0.51099999109E-03 0.  1.
       22    1    1    2    0    0  0.12632625439E-01 -0.53418564593E-02 -0.32082916128E-01  0.34891720554E-01  0.00000000000E+00 0.  1.
       22    1    1    2    0    0  0.53458332512E-04  0.77142429340E-03  0.17327714657E-02  0.18974852269E-02  0.00000000000E+00 0.  1.
       22    1    1    2    0    0 -0.12686083772E-01  0.45704321659E-02  0.30350144662E-01  0.33210794219E-01  0.00000000000E+00 0. -1.
</event>
<event>
 5   0  0.4143600E+04  0.9118800E+02  0.7546771E-02  0.1180000E+00
      -11   -1    0    0    0    0  0.00000000000E+00  0.00000000000E+00  0.34996269501E-01  0.35000000000E-01  0.51099999109E-03 0.  1.
       11   -1    0    0    0    0 -0.00000000000E+00 -0.00000000000E+00 -0.34996269501E-01  0.35000000000E-01  0.51099999109E-03 0. -1.
       22    1    1    2    0    0 -0.27240677994E-03 -0.67463383353E-04 -0.32768125543E-02  0.32888078810E-02  0.00000000000E+00 0.  1.
       22    1    1    2    0    0  0.10824417702E-02  0.12763042866E-01  0.32449156475E-01  0.34885737764E-01  0.00000000000E+00 0.  1.
       22    1    1    2    0    0 -0.81003499027E-03 -0.12695579483E-01 -0.29172343921E-01  0.31825454355E-01  0.00000000000E+00 0. -1.
</event>
<event>
 5   0  0.4143600E+04  0.9118800E+02  0.7546771E-02  0.1180000E+00
      -11   -1    0    0    0    0  0.00000000000E+00  0.00000000000E+00  0.34996269501E-01  0.35000000000E-01  0.51099999109E-03 0.  1.
       11   -1    0    0    0    0 -0.00000000000E+00 -0.00000000000E+00 -0.34996269501E-01  0.35000000000E-01  0.51099999109E-03 0. -1.
       22    1    1    2    0    0 -0.10357873093E-01  0.21958881200E-02  0.33244765308E-01  0.34890140155E-01  0.00000000000E+00 0.  1.
       22    1    1    2    0    0  0.10609276205E-01 -0.19111722425E-02 -0.32794208085E-01  0.34520564956E-01  0.00000000000E+00 0. -1.
       22    1    1    2    0    0 -0.25140311192E-03 -0.28471587753E-03 -0.45055722299E-03  0.58929488950E-03  0.00000000000E+00 0.  1.
</event>
<event>
 5   0  0.4143600E+04  0.9118800E+02  0.7546771E-02  0.1180000E+00
      -11   -1    0    0    0    0  0.00000000000E+00  0.00000000000E+00  0.34996269501E-01  0.35000000000E-01  0.51099999109E-03 0.  1.
       11   -1    0    0    0    0 -0.00000000000E+00 -0.00000000000E+00 -0.34996269501E-01  0.35000000000E-01  0.51099999109E-03 0. -1.
       22    1    1    2    0    0 -0.13726777890E-01  0.32532176184E-02  0.31950492277E-01  0.34926233877E-01  0.00000000000E+00 0.  1.
       22    1    1    2    0    0  0.13831114771E-01 -0.31292090116E-02 -0.30748774578E-01  0.33861169840E-01  0.00000000000E+00 0. -1.
       22    1    1    2    0    0 -0.10433688148E-03 -0.12400860685E-03 -0.12017176987E-02  0.12125962835E-02  0.00000000000E+00 0. -1.
</event>
<event>
 5   0  0.4143600E+04  0.9118800E+02  0.7546771E-02  0.1180000E+00
      -11   -1    0    0    0    0  0.00000000000E+00  0.00000000000E+00  0.34996269501E-01  0.35000000000E-01  0.51099999109E-03 0. -1.
       11   -1    0    0    0    0 -0.00000000000E+00 -0.00000000000E+00 -0.34996269501E-01  0.35000000000E-01  0.51099999109E-03 0.  1.
       22    1    1    2    0    0  0.38508989287E-02 -0.13354054980E-01  0.30702022652E-01  0.33701252230E-01  0.00000000000E+00 0. -1.
       22    1    1    2    0    0 -0.38562921506E-02  0.48880919078E-03 -0.17259713441E-01  0.17692021694E-01  0.00000000000E+00 0.  1.
       22    1    1    2    0    0  0.53932218735E-05  0.12865245790E-01 -0.13442309211E-01  0.18606726075E-01  0.00000000000E+00 0.  1.
</event>
<event>
 5   0  0.4143600E+04  0.9118800E+02  0.7546771E-02  0.1180000E+00
      -11   -1    0    0    0    0  0.00000000000E+00  0.00000000000E+00  0.34996269501E-01  0.35000000000E-01  0.51099999109E-03 0. -1.
       11   -1    0    0    0    0 -0.00000000000E+00 -0.00000000000E+00 -0.34996269501E-01  0.35000000000E-01  0.51099999109E-03 0.  1.
       22    1    1    2    0    0 -0.23713670954E-03 -0.17146028077E-03  0.58889973069E-02  0.58962633699E-02  0.00000000000E+00 0. -1.
       22    1    1    2    0    0 -0.22887668646E-02  0.13255950126E-01  0.26148178551E-01  0.29405542148E-01  0.00000000000E+00 0. -1.
       22    1    1    2    0    0  0.25259035742E-02 -0.13084489845E-01 -0.32037175858E-01  0.34698194482E-01  0.00000000000E+00 0.  1.
</event>
<event>
 5   0  0.4143600E+04  0.9118800E+02  0.7546771E-02  0.1180000E+00
      -11   -1    0    0    0    0  0.00000000000E+00  0.00000000000E+00  0.34996269501E-01  0.35000000000E-01  0.51099999109E-03 0.  1.
       11   -1    0    0    0    0 -0.00000000000E+00 -0.00000000000E+00 -0.34996269501E-01  0.35000000000E-01  0.51099999109E-03 0. -1.
       22    1    1    2    0    0 -0.42625811994E-02 -0.60126710337E-02 -0.87174169021E-02  0.11415566954E-01  0.00000000000E+00 0.  1.
       22    1    1    2    0    0 -0.34050175866E-02  0.99231253125E-02 -0.23234655313E-01  0.25493367142E-01  0.00000000000E+00 0. -1.
       22    1    1    2    0    0  0.76675987860E-02 -0.39104542789E-02  0.31952072215E-01  0.33091065904E-01  0.00000000000E+00 0.  1.
</event>
<event>
 5   0  0.4143600E+04  0.9118800E+02  0.7546771E-02  0.1180000E+00
      -11   -1    0    0    0    0  0.00000000000E+00  0.00000000000E+00  0.34996269501E-01  0.35000000000E-01  0.51099999109E-03 0. -1.
       11   -1    0    0    0    0 -0.00000000000E+00 -0.00000000000E+00 -0.34996269501E-01  0.35000000000E-01  0.51099999109E-03 0.  1.
       22    1    1    2    0    0  0.99327822991E-02 -0.59024975278E-02 -0.99319090311E-02  0.15236221916E-01  0.00000000000E+00 0.  1.
       22    1    1    2    0    0  0.74769593351E-02  0.10906869525E-02 -0.19117590686E-01  0.20556672702E-01  0.00000000000E+00 0.  1.
       22    1    1    2    0    0 -0.17409741634E-01  0.48118105753E-02  0.29049499718E-01  0.34207105382E-01  0.00000000000E+00 0. -1.
</event>
<event>
 5   0  0.4143600E+04  0.9118800E+02  0.7546771E-02  0.1180000E+00
      -11   -1    0    0    0    0  0.00000000000E+00  0.00000000000E+00  0.34996269501E-01  0.35000000000E-01  0.51099999109E-03 0. -1.
       11   -1    0    0    0    0 -0.00000000000E+00 -0.00000000000E+00 -0.34996269501E-01  0.35000000000E-01  0.51099999109E-03 0.  1.
       22    1    1    2    0    0 -0.38982767110E-02 -0.10616619692E-01  0.33114130122E-01  0.34992210401E-01  0.00000000000E+00 0. -1.
       22    1    1    2    0    0  0.21408911123E-03  0.13904515827E-02 -0.35222974176E-02  0.37928576099E-02  0.00000000000E+00 0.  1.
       22    1    1    2    0    0  0.36841875998E-02  0.92261681090E-02 -0.29591832705E-01  0.31214931989E-01  0.00000000000E+00 0.  1.
</event>
<event>
 5   0  0.4143600E+04  0.9118800E+02  0.7546771E-02  0.1180000E+00
      -11   -1    0    0    0    0  0.00000000000E+00  0.00000000000E+00  0.34996269501E-01  0.35000000000E-01  0.51099999109E-03 0. -1.
       11   -1    0    0    0    0 -0.00000000000E+00 -0.00000000000E+00 -0.34996269501E-01  0.35000000000E-01  0.51099999109E-03 0.  1.
       22    1    1    2    0    0 -0.63945766647E-02  0.19455576588E-01 -0.28229772056E-01  0.34875924381E-01  0.00000000000E+00 0.  1.
       22    1    1    2    0    0 -0.88953531836E-05  0.24178764241E-04  0.11818652445E-02  0.11821460130E-02  0.00000000000E+00 0. -1.
       22    1    1    2    0    0  0.64034720179E-02 -0.19479755352E-01  0.27047906812E-01  0.33941929606E-01  0.00000000000E+00 0. -1.
</event>
<event>
 5   0  0.4143600E+04  0.9118800E+02  0.7546771E-02  0.1180000E+00
      -11   -1    0    0    0    0  0.00000000000E+00  0.00000000000E+00  0.34996269501E-01  0.35000000000E-01  0.51099999109E-03 0.  1.
       11   -1    0    0    0    0 -0.00000000000E+00 -0.00000000000E+00 -0.34996269501E-01  0.35000000000E-01  0.51099999109E-03 0. -1.
       22    1    1    2    0    0  0.99366805967E-03  0.11387893047E-01  0.32306958658E-01  0.34269681381E-01  0.00000000000E+00 0.  1.
       22    1    1    2    0    0 -0.33506376175E-02 -0.15141341520E-03 -0.42420390124E-02  0.54078270543E-02  0.00000000000E+00 0.  1.
       22    1    1    2    0    0  0.23569695579E-02 -0.11236479631E-01 -0.28064919645E-01  0.30322491565E-01  0.00000000000E+00 0. -1.
</event>
<event>
 5   0  0.4143600E+04  0.9118800E+02  0.7546771E-02  0.1180000E+00
      -11   -1    0    0    0    0  0.00000000000E+00  0.00000000000E+00  0.34996269501E-01  0.35000000000E-01  0.51099999109E-03 0. -1.
       11   -1    0    0    0    0 -0.00000000000E+00 -0.00000000000E+00 -0.34996269501E-01  0.35000000000E-01  0.51099999109E-03 0.  1.
       22    1    1    2    0    0  0.17759758786E-01  0.52883266705E-02  0.23885784599E-01  0.30230880520E-01  0.00000000000E+00 0. -1.
       22    1    1    2    0    0 -0.64229150827E-03 -0.56548832696E-03  0.54288030066E-02  0.54958363798E-02  0.00000000000E+00 0. -1.
       22    1    1    2    0    0 -0.17117467277E-01 -0.47228383435E-02 -0.29314587605E-01  0.34273283100E-01  0.00000000000E+00 0.  1.
</event>
<event>
 5   0  0.4143600E+04  0.9118800E+02  0.7546771E-02  0.1180000E+00
      -11   -1    0    0    0    0  0.00000000000E+00  0.00000000000E+00  0.34996269501E-01  0.35000000000E-01  0.51099999109E-03 0.  1.
       11   -1    0    0    0    0 -0.00000000000E+00 -0.00000000000E+00 -0.34996269501E-01  0.35000000000E-01  0.51099999109E-03 0. -1.
       22    1    1    2    0    0  0.17292329894E-02  0.20670592296E-01  0.28067313888E-01  0.34900397440E-01  0.00000000000E+00 0.  1.
       22    1    1    2    0    0 -0.12574881914E-03 -0.34537480219E-03 -0.18578310560E-02  0.18938407409E-02  0.00000000000E+00 0. -1.
       22    1    1    2    0    0 -0.16034841702E-02 -0.20325217494E-01 -0.26209482832E-01  0.33205761819E-01  0.00000000000E+00 0. -1.
</event>
<event>
 5   0  0.4143600E+04  0.9118800E+02  0.7546771E-02  0.1180000E+00
      -11   -1    0    0    0    0  0.00000000000E+00  0.00000000000E+00  0.34996269501E-01  0.35000000000E-01  0.51099999109E-03 0.  1.
       11   -1    0    0    0    0 -0.00000000000E+00 -0.00000000000E+00 -0.34996269501E-01  0.35000000000E-01  0.51099999109E-03 0. -1.
       22    1    1    2    0    0 -0.14293818793E-02 -0.10569429077E-02  0.18333119675E-03  0.17871405078E-02  0.00000000000E+00 0.  1.
       22    1    1    2    0    0  0.12542283744E-01 -0.17198075572E-01 -0.26706128955E-01  0.34151134808E-01  0.00000000000E+00 0. -1.
       22    1    1    2    0    0 -0.11112901864E-01  0.18255018480E-01  0.26522797758E-01  0.34061724684E-01  0.00000000000E+00 0.  1.
</event>
<event>
 5   0  0.4143600E+04  0.9118800E+02  0.7546771E-02  0.1180000E+00
      -11   -1    0    0    0    0  0.00000000000E+00  0.00000000000E+00  0.34996269501E-01  0.35000000000E-01  0.51099999109E-03 0. -1.
       11   -1    0    0    0    0 -0.00000000000E+00 -0.00000000000E+00 -0.34996269501E-01  0.35000000000E-01  0.51099999109E-03 0.  1.
       22    1    1    2    0    0  0.14650783911E-02  0.32007967672E-02 -0.70703685865E-02  0.78982065423E-02  0.00000000000E+00 0.  1.
       22    1    1    2    0    0 -0.40633984701E-03  0.57246124617E-04  0.34478227449E-01  0.34480669327E-01  0.00000000000E+00 0. -1.
       22    1    1    2    0    0 -0.10587385441E-02 -0.32580428918E-02 -0.27407858863E-01  0.27621124131E-01  0.00000000000E+00 0. -1.
</event>
<event>
 5   0  0.4143600E+04  0.9118800E+02  0.7546771E-02  0.1180000E+00
      -11   -1    0    0    0    0  0.00000000000E+00  0.00000000000E+00  0.34996269501E-01  0.35000000000E-01  0.51099999109E-03 0.  1.
       11   -1    0    0    0    0 -0.00000000000E+00 -0.00000000000E+00 -0.34996269501E-01  0.35000000000E-01  0.51099999109E-03 0. -1.
       22    1    1    2    0    0 -0.49448731640E-02 -0.69299122474E-02 -0.22316626798E-01  0.23885294346E-01  0.00000000000E+00 0. -1.
       22    1    1    2    0    0  0.33274163128E-03 -0.16626707334E-03 -0.11372598934E-01  0.11378680426E-01  0.00000000000E+00 0.  1.
       22    1    1    2    0    0  0.46121315328E-02  0.70961793208E-02  0.33689225732E-01  0.34736025228E-01  0.00000000000E+00 0.  1.
</event>
<event>
 5   0  0.4143600E+04  0.9118800E+02  0.7546771E-02  0.1180000E+00
      -11   -1    0    0    0    0  0.00000000000E+00  0.00000000000E+00  0.34996269501E-01  0.35000000000E-01  0.51099999109E-03 0. -1.
       11   -1    0    0    0    0 -0.00000000000E+00 -0.00000000000E+00 -0.34996269501E-01  0.35000000000E-01  0.51099999109E-03 0.  1.
       22    1    1    2    0    0 -0.64336164678E-04  0.23137341520E-03 -0.44590279999E-03  0.50646037001E-03  0.00000000000E+00 0.  1.
       22    1    1    2    0    0 -0.97841682350E-02 -0.33397505946E-01 -0.15776226221E-02  0.34836937934E-01  0.00000000000E+00 0. -1.
       22    1    1    2    0    0  0.98485043997E-02  0.33166132531E-01  0.20235254221E-02  0.34656601696E-01  0.00000000000E+00 0.  1.
</event>
<event>
 5   0  0.4143600E+04  0.9118800E+02  0.7546771E-02  0.1180000E+00
      -11   -1    0    0    0    0  0.00000000000E+00  0.00000000000E+00  0.34996269501E-01  0.35000000000E-01  0.51099999109E-03 0.  1.
       11   -1    0    0    0    0 -0.00000000000E+00 -0.00000000000E+00 -0.34996269501E-01  0.35000000000E-01  0.51099999109E-03 0. -1.
       22    1    1    2    0    0 -0.10078008056E-01  0.90619147579E-02  0.30041071201E-01  0.32956797544E-01  0.00000000000E+00 0.  1.
       22    1    1    2    0    0  0.13040407703E-01 -0.92561404387E-02 -0.30088428473E-01  0.34074064871E-01  0.00000000000E+00 0. -1.
       22    1    1    2    0    0 -0.29623996470E-02  0.19422568076E-03  0.47357271415E-04  0.29691375843E-02  0.00000000000E+00 0.  1.
</event>
<event>
 5   0  0.4143600E+04  0.9118800E+02  0.7546771E-02  0.1180000E+00
      -11   -1    0    0    0    0  0.00000000000E+00  0.00000000000E+00  0.34996269501E-01  0.35000000000E-01  0.51099999109E-03 0. -1.
       11   -1    0    0    0    0 -0.00000000000E+00 -0.00000000000E+00 -0.34996269501E-01  0.35000000000E-01  0.51099999109E-03 0.  1.
       22    1    1    2    0    0  0.48076171838E-02  0.15428556216E-01  0.31024077692E-01  0.34980665039E-01  0.00000000000E+00 0. -1.
       22    1    1    2    0    0 -0.47540245472E-02 -0.15401661011E-01 -0.30550074961E-01  0.34541554560E-01  0.00000000000E+00 0.  1.
       22    1    1    2    0    0 -0.53592636549E-04 -0.26895205678E-04 -0.47400273084E-03  0.47778040105E-03  0.00000000000E+00 0.  1.
</event>
<event>
 5   0  0.4143600E+04  0.9118800E+02  0.7546771E-02  0.1180000E+00
      -11   -1    0    0    0    0  0.00000000000E+00  0.00000000000E+00  0.34996269501E-01  0.35000000000E-01  0.51099999109E-03 0.  1.
       11   -1    0    0    0    0 -0.00000000000E+00 -0.00000000000E+00 -0.34996269501E-01  0.35000000000E-01  0.51099999109E-03 0. -1.
       22    1    1    2    0    0 -0.31332666263E-02  0.11452792861E-01  0.32615489355E-01  0.34709565972E-01  0.00000000000E+00 0.  1.
       22    1    1    2    0    0 -0.95798580021E-04  0.22038723325E-03  0.19908698508E-03  0.31206333995E-03  0.00000000000E+00 0.  1.
       22    1    1    2    0    0  0.32290652063E-02 -0.11673180094E-01 -0.32814576340E-01  0.34978370688E-01  0.00000000000E+00 0. -1.
</event>
<event>
 5   0  0.4143600E+04  0.9118800E+02  0.7546771E-02  0.1180000E+00
      -11   -1    0    0    0    0  0.00000000000E+00  0.00000000000E+00  0.34996269501E-01  0.35000000000E-01  0.51099999109E-03 0. -1.
       11   -1    0    0    0    0 -0.00000000000E+00 -0.00000000000E+00 -0.34996269501E-01  0.35000000000E-01  0.51099999109E-03 0.  1.
       22    1    1    2    0    0  0.45697828585E-02 -0.14016298071E-01 -0.31189453379E-01  0.34498138052E-01  0.00000000000E+00 0.  1.
       22    1    1    2    0    0  0.21761508468E-03 -0.10764682349E-02  0.25583944988E-02  0.27841556346E-02  0.00000000000E+00 0. -1.
       22    1    1    2    0    0 -0.47873979432E-02  0.15092766306E-01  0.28631058880E-01  0.32717706313E-01  0.00000000000E+00 0. -1.
</event>
<event>
 5   0  0.4143600E+04  0.9118800E+02  0.7546771E-02  0.1180000E+00
      -11   -1    0    0    0    0  0.00000000000E+00  0.00000000000E+00  0.34996269501E-01  0.35000000000E-01  0.51099999109E-03 0. -1.
       11   -1    0    0    0    0 -0.00000000000E+00 -0.00000000000E+00 -0.34996269501E-01  0.35000000000E-01  0.51099999109E-03 0.  1.
       22    1    1    2    0    0  0.14899094730E-02 -0.10930448442E-03 -0.34290880394E-01  0.34323406822E-01  0.00000000000E+00 0.  1.
       22    1    1    2    0    0  0.20246304090E-03 -0.16936767849E-03 -0.64588989638E-03  0.69774669594E-03  0.00000000000E+00 0. -1.
       22    1    1    2    0    0 -0.16923725139E-02  0.27867216291E-03  0.34936770290E-01  0.34978846482E-01  0.00000000000E+00 0. -1.
</event>
<event>
 5   0  0.4143600E+04  0.9118800E+02  0.7546771E-02  0.1180000E+00
      -11   -1    0    0    0    0  0.00000000000E+00  0.00000000000E+00  0.34996269501E-01  0.35000000000E-01  0.51099999109E-03 0.  1.
       11   -1    0    0    0    0 -0.00000000000E+00 -0.00000000000E+00 -0.34996269501E-01  0.35000000000E-01  0.51099999109E-03 0. -1.
       22    1    1    2    0    0  0.12047611281E-01 -0.62194559092E-02  0.10714002173E-01  0.17280521171E-01  0.00000000000E+00 0.  1.
       22    1    1    2    0    0  0.21425799741E-03 -0.38394204192E-02  0.18813356438E-01  0.19202328924E-01  0.00000000000E+00 0.  1.
       22    1    1    2    0    0 -0.12261869279E-01  0.10058876328E-01 -0.29527358611E-01  0.33517149905E-01  0.00000000000E+00 0. -1.
</event>
<event>
 5   0  0.4143600E+04  0.9118800E+02  0.7546771E-02  0.1180000E+00
      -11   -1    0    0    0    0  0.00000000000E+00  0.00000000000E+00  0.34996269501E-01  0.35000000000E-01  0.51099999109E-03 0. -1.
       11   -1    0    0    0    0 -0.00000000000E+00 -0.00000000000E+00 -0.34996269501E-01  0.35000000000E-01  0.51099999109E-03 0.  1.
       22    1    1    2    0    0  0.43008824186E-03 -0.12791302294E-02 -0.26918949462E-01  0.26952754779E-01  0.00000000000E+00 0.  1.
       22    1    1    2    0    0  0.43428901816E-02  0.51504222114E-03 -0.72885370736E-02  0.84999256639E-02  0.00000000000E+00 0.  1.
       22    1    1    2    0    0 -0.47729784235E-02  0.76408800827E-03  0.34207486535E-01  0.34547319557E-01  0.00000000000E+00 0. -1.
</event>
<event>
 5   0  0.4143600E+04  0.9118800E+02  0.7546771E-02  0.1180000E+00
      -11   -1    0    0    0    0  0.00000000000E+00  0.00000000000E+00  0.34996269501E-01  0.35000000000E-01  0.51099999109E-03 0. -1.
       11   -1    0    0    0    0 -0.00000000000E+00 -0.00000000000E+00 -0.34996269501E-01  0.35000000000E-01  0.51099999109E-03 0.  1.
       22    1    1    2    0    0 -0.16891884995E-01 -0.25286118241E-02 -0.28023657036E-01  0.32818516269E-01  0.00000000000E+00 0.  1.
       22    1    1    2    0    0  0.16963912123E-01  0.28370969279E-02  0.30322546984E-01  0.34860870458E-01  0.00000000000E+00 0. -1.
       22    1    1    2    0    0 -0.72027127657E-04 -0.30848510378E-03 -0.22988899483E-02  0.23206132725E-02  0.00000000000E+00 0.  1.
</event>
<event>
 5   0  0.4143600E+04  0.9118800E+02  0.7546771E-02  0.1180000E+00
      -11   -1    0    0    0    0  0.00000000000E+00  0.00000000000E+00  0.34996269501E-01  0.35000000000E-01  0.51099999109E-03 0. -1.
       11   -1    0    0    0    0 -0.00000000000E+00 -0.00000000000E+00 -0.34996269501E-01  0.35000000000E-01  0.51099999109E-03 0.  1.
       22    1    1    2    0    0  0.51437698643E-02 -0.20451475805E-01  0.27320941864E-01  0.34513114831E-01  0.00000000000E+00 0. -1.
       22    1    1    2    0    0 -0.64115643346E-02  0.19989152908E-01 -0.26794196366E-01  0.34038263030E-01  0.00000000000E+00 0.  1.
       22    1    1    2    0    0  0.12677944704E-02  0.46232289671E-03 -0.52674549780E-03  0.14486221382E-02  0.00000000000E+00 0.  1.
</event>
<event>
 5   0  0.4143600E+04  0.9118800E+02  0.7546771E-02  0.1180000E+00
      -11   -1    0    0    0    0  0.00000000000E+00  0.00000000000E+00  0.34996269501E-01  0.35000000000E-01  0.51099999109E-03 0. -1.
       11   -1    0    0    0    0 -0.00000000000E+00 -0.00000000000E+00 -0.34996269501E-01  0.35000000000E-01  0.51099999109E-03 0.  1.
       22    1    1    2    0    0 -0.20513819038E-01 -0.26507811664E-02 -0.22205973817E-01  0.30347136364E-01  0.00000000000E+00 0.  1.
       22    1    1    2    0    0  0.25613500915E-01  0.64455381751E-02  0.18980592909E-01  0.32524749018E-01  0.00000000000E+00 0. -1.
       22    1    1    2    0    0 -0.50996818776E-02 -0.37947570087E-02  0.32253809083E-02  0.71281146183E-02  0.00000000000E+00 0.  1.
</event>
<event>
 5   0  0.4143600E+04  0.9118800E+02  0.7546771E-02  0.1180000E+00
      -11   -1    0    0    0    0  0.00000000000E+00  0.00000000000E+00  0.34996269501E-01  0.35000000000E-01  0.51099999109E-03 0. -1.
       11   -1    0    0    0    0 -0.00000000000E+00 -0.00000000000E+00 -0.34996269501E-01  0.35000000000E-01  0.51099999109E-03 0. -1.
       22    1    1    2    0    0  0.00000000000E+00  0.00000000000E+00  0.34917950579E-01  0.34915255641E-01  0.00000000000E+00 0. -1.
       22    1    1    2    0    0  0.63757853302E-03  0.59184734090E-03 -0.32557007058E-01  0.32568627516E-01  0.00000000000E+00 0. -1.
       22    1    1    2    0    0 -0.63757853302E-03 -0.59184734090E-03 -0.23609435204E-02  0.25161168430E-02  0.00000000000E+00 0.  1.
</event>
<event>
 5   0  0.4143600E+04  0.9118800E+02  0.7546771E-02  0.1180000E+00
      -11   -1    0    0    0    0  0.00000000000E+00  0.00000000000E+00  0.34996269501E-01  0.35000000000E-01  0.51099999109E-03 0. -1.
       11   -1    0    0    0    0 -0.00000000000E+00 -0.00000000000E+00 -0.34996269501E-01  0.35000000000E-01  0.51099999109E-03 0.  1.
       22    1    1    2    0    0  0.62322790037E-03 -0.64267625128E-04 -0.33134816290E-01  0.33140739188E-01  0.00000000000E+00 0.  1.
       22    1    1    2    0    0  0.10764333124E-02  0.41607350582E-03 -0.16596933433E-02  0.20214865402E-02  0.00000000000E+00 0.  1.
       22    1    1    2    0    0 -0.16996612128E-02 -0.35180588070E-03  0.34794509633E-01  0.34837774272E-01  0.00000000000E+00 0. -1.
</event>
<event>
 5   0  0.4143600E+04  0.9118800E+02  0.7546771E-02  0.1180000E+00
      -11   -1    0    0    0    0  0.00000000000E+00  0.00000000000E+00  0.34996269501E-01  0.35000000000E-01  0.51099999109E-03 0. -1.
       11   -1    0    0    0    0 -0.00000000000E+00 -0.00000000000E+00 -0.34996269501E-01  0.35000000000E-01  0.51099999109E-03 0.  1.
       22    1    1    2    0    0 -0.55148672595E-02  0.25098200284E-02  0.33884964181E-01  0.34422430986E-01  0.00000000000E+00 0. -1.
       22    1    1    2    0    0  0.58943821551E-02 -0.29102181394E-02 -0.11975027193E-01  0.13660687643E-01  0.00000000000E+00 0.  1.
       22    1    1    2    0    0 -0.37951489564E-03  0.40039811097E-03 -0.21909936988E-01  0.21916881371E-01  0.00000000000E+00 0.  1.
</event>
<event>
 5   0  0.4143600E+04  0.9118800E+02  0.7546771E-02  0.1180000E+00
      -11   -1    0    0    0    0  0.00000000000E+00  0.00000000000E+00  0.34996269501E-01  0.35000000000E-01  0.51099999109E-03 0.  1.
       11   -1    0    0    0    0 -0.00000000000E+00 -0.00000000000E+00 -0.34996269501E-01  0.35000000000E-01  0.51099999109E-03 0. -1.
       22    1    1    2    0    0  0.29216644613E-02  0.39419875258E-02 -0.94796275388E-02  0.10674208502E-01  0.00000000000E+00 0. -1.
       22    1    1    2    0    0  0.14346053914E-02 -0.19036059903E-01  0.28720335824E-01  0.34486045861E-01  0.00000000000E+00 0.  1.
       22    1    1    2    0    0 -0.43562698526E-02  0.15094072377E-01 -0.19240708286E-01  0.24839745637E-01  0.00000000000E+00 0. -1.
</event>
<event>
 5   0  0.4143600E+04  0.9118800E+02  0.7546771E-02  0.1180000E+00
      -11   -1    0    0    0    0  0.00000000000E+00  0.00000000000E+00  0.34996269501E-01  0.35000000000E-01  0.51099999109E-03 0. -1.
       11   -1    0    0    0    0 -0.00000000000E+00 -0.00000000000E+00 -0.34996269501E-01  0.35000000000E-01  0.51099999109E-03 0.  1.
       22    1    1    2    0    0 -0.96502151967E-04 -0.23439825461E-04  0.24285781678E-02  0.24306077446E-02  0.00000000000E+00 0.  1.
       22    1    1    2    0    0 -0.13721433251E-01  0.37930662611E-02 -0.31827955704E-01  0.34866658091E-01  0.00000000000E+00 0.  1.
       22    1    1    2    0    0  0.13817935403E-01 -0.37696264357E-02  0.29399377537E-01  0.32702734164E-01  0.00000000000E+00 0. -1.
</event>
<event>
 5   0  0.4143600E+04  0.9118800E+02  0.7546771E-02  0.1180000E+00
      -11   -1    0    0    0    0  0.00000000000E+00  0.00000000000E+00  0.34996269501E-01  0.35000000000E-01  0.51099999109E-03 0.  1.
       11   -1    0    0    0    0 -0.00000000000E+00 -0.00000000000E+00 -0.34996269501E-01  0.35000000000E-01  0.51099999109E-03 0. -1.
       22    1    1    2    0    0 -0.20419474206E-03  0.40128308212E-02 -0.78269125441E-02  0.87980149275E-02  0.00000000000E+00 0. -1.
       22    1    1    2    0    0 -0.48277752897E-02  0.17319981727E-02  0.33770457679E-01  0.34157737685E-01  0.00000000000E+00 0.  1.
       22    1    1    2    0    0  0.50319700318E-02 -0.57448289939E-02 -0.25943545135E-01  0.27044247387E-01  0.00000000000E+00 0. -1.
</event>
<event>
 5   0  0.4143600E+04  0.9118800E+02  0.7546771E-02  0.1180000E+00
      -11   -1    0    0    0    0  0.00000000000E+00  0.00000000000E+00  0.34996269501E-01  0.35000000000E-01  0.51099999109E-03 0. -1.
       11   -1    0    0    0    0 -0.00000000000E+00 -0.00000000000E+00 -0.34996269501E-01  0.35000000000E-01  0.51099999109E-03 0.  1.
       22    1    1    2    0    0 -0.86133694918E-02  0.82653960821E-02 -0.32893053384E-01  0.34992282968E-01  0.00000000000E+00 0.  1.
       22    1    1    2    0    0  0.86283282048E-02 -0.82258162427E-02  0.32592970454E-01  0.34704665731E-01  0.00000000000E+00 0. -1.
       22    1    1    2    0    0 -0.14958713018E-04 -0.39579839342E-04  0.30008292979E-03  0.30305130181E-03  0.00000000000E+00 0. -1.
</event>
<event>
 5   0  0.4143600E+04  0.9118800E+02  0.7546771E-02  0.1180000E+00
      -11   -1    0    0    0    0  0.00000000000E+00  0.00000000000E+00  0.34996269501E-01  0.35000000000E-01  0.51099999109E-03 0.  1.
       11   -1    0    0    0    0 -0.00000000000E+00 -0.00000000000E+00 -0.34996269501E-01  0.35000000000E-01  0.51099999109E-03 0.  1.
       22    1    1    2    0    0  0.52772022190E-02  0.87803648704E-03 -0.20540837662E-01  0.21226064713E-01  0.00000000000E+00 0. -1.
       22    1    1    2    0    0 -0.00000000000E+00  0.00000000000E+00  0.34152297202E-01  0.34148900514E-01  0.00000000000E+00 0.  1.
       22    1    1    2    0    0 -0.52772022190E-02 -0.87803648704E-03 -0.13611459539E-01  0.14625034774E-01  0.00000000000E+00 0.  1.
</event>
<event>
 5   0  0.4143600E+04  0.9118800E+02  0.7546771E-02  0.1180000E+00
      -11   -1    0    0    0    0  0.00000000000E+00  0.00000000000E+00  0.34996269501E-01  0.35000000000E-01  0.51099999109E-03 0.  1.
       11   -1    0    0    0    0 -0.00000000000E+00 -0.00000000000E+00 -0.34996269501E-01  0.35000000000E-01  0.51099999109E-03 0. -1.
       22    1    1    2    0    0  0.15182293897E-01  0.18202208487E-01  0.23883626850E-01  0.33648923805E-01  0.00000000000E+00 0.  1.
       22    1    1    2    0    0 -0.28771260453E-03  0.20100657258E-03  0.15583334129E-02  0.15973682139E-02  0.00000000000E+00 0. -1.
       22    1    1    2    0    0 -0.14894581292E-01 -0.18403215059E-01 -0.25441960263E-01  0.34753707981E-01  0.00000000000E+00 0. -1.
</event>
<event>
 5   0  0.4143600E+04  0.9118800E+02  0.7546771E-02  0.1180000E+00
      -11   -1    0    0    0    0  0.00000000000E+00  0.00000000000E+00  0.34996269501E-01  0.35000000000E-01  0.51099999109E-03 0.  1.
       11   -1    0    0    0    0 -0.00000000000E+00 -0.00000000000E+00 -0.34996269501E-01  0.35000000000E-01  0.51099999109E-03 0. -1.
       22    1    1    2    0    0 -0.40805010626E-02 -0.13334957463E-01  0.14258225864E-01  0.19944136589E-01  0.00000000000E+00 0.  1.
       22    1    1    2    0    0  0.83813456178E-03 -0.14838992409E-02  0.16062262034E-01  0.16152420504E-01  0.00000000000E+00 0. -1.
       22    1    1    2    0    0  0.32423665008E-02  0.14818856704E-01 -0.30320487898E-01  0.33903442907E-01  0.00000000000E+00 0. -1.
</event>
<event>
 5   0  0.4143600E+04  0.9118800E+02  0.7546771E-02  0.1180000E+00
      -11   -1    0    0    0    0  0.00000000000E+00  0.00000000000E+00  0.34996269501E-01  0.35000000000E-01  0.51099999109E-03 0. -1.
       11   -1    0    0    0    0 -0.00000000000E+00 -0.00000000000E+00 -0.34996269501E-01  0.35000000000E-01  0.51099999109E-03 0.  1.
       22    1    1    2    0    0  0.12124051301E-01  0.56416145552E-02 -0.11438626880E-01  0.17597233295E-01  0.00000000000E+00 0.  1.
       22    1    1    2    0    0 -0.15303855321E-01  0.22472380113E-02  0.29012762508E-01  0.32878540946E-01  0.00000000000E+00 0. -1.
       22    1    1    2    0    0  0.31798040197E-02 -0.78888525665E-02 -0.17574135628E-01  0.19524225759E-01  0.00000000000E+00 0.  1.
</event>
<event>
 5   0  0.4143600E+04  0.9118800E+02  0.7546771E-02  0.1180000E+00
      -11   -1    0    0    0    0  0.00000000000E+00  0.00000000000E+00  0.34996269501E-01  0.35000000000E-01  0.51099999109E-03 0. -1.
       11   -1    0    0    0    0 -0.00000000000E+00 -0.00000000000E+00 -0.34996269501E-01  0.35000000000E-01  0.51099999109E-03 0.  1.
       22    1    1    2    0    0  0.95821785416E-03 -0.23321445722E-02 -0.35213463327E-02  0.43309305879E-02  0.00000000000E+00 0.  1.
       22    1    1    2    0    0  0.28468269593E-01  0.69793221053E-02  0.15972326362E-01  0.33380660870E-01  0.00000000000E+00 0. -1.
       22    1    1    2    0    0 -0.29426487447E-01 -0.46471775330E-02 -0.12450980029E-01  0.32288408542E-01  0.00000000000E+00 0.  1.
</event>
<event>
 5   0  0.4143600E+04  0.9118800E+02  0.7546771E-02  0.1180000E+00
      -11   -1    0    0    0    0  0.00000000000E+00  0.00000000000E+00  0.34996269501E-01  0.35000000000E-01  0.51099999109E-03 0.  1.
       11   -1    0    0    0    0 -0.00000000000E+00 -0.00000000000E+00 -0.34996269501E-01  0.35000000000E-01  0.51099999109E-03 0. -1.
       22    1    1    2    0    0 -0.18771360657E-01 -0.16545021641E-02  0.29012957501E-01  0.34595564185E-01  0.00000000000E+00 0.  1.
       22    1    1    2    0    0 -0.22892142368E-03  0.32380237184E-03  0.26447844665E-03  0.47665694474E-03  0.00000000000E+00 0.  1.
       22    1    1    2    0    0  0.19000282081E-01  0.13306997923E-02 -0.29277435948E-01  0.34927778870E-01  0.00000000000E+00 0. -1.
</event>
<event>
 5   0  0.4143600E+04  0.9118800E+02  0.7546771E-02  0.1180000E+00
      -11   -1    0    0    0    0  0.00000000000E+00  0.00000000000E+00  0.34996269501E-01  0.35000000000E-01  0.51099999109E-03 0.  1.
       11   -1    0    0    0    0 -0.00000000000E+00 -0.00000000000E+00 -0.34996269501E-01  0.35000000000E-01  0.51099999109E-03 0. -1.
       22    1    1    2    0    0 -0.52256604209E-02  0.40825286057E-02 -0.33995026264E-01  0.34635767312E-01  0.00000000000E+00 0. -1.
       22    1    1    2    0    0  0.53798137560E-02 -0.40828395289E-02  0.34333956594E-01  0.34991892633E-01  0.00000000000E+00 0.  1.
       22    1    1    2    0    0 -0.15415333506E-03  0.31092318015E-06 -0.33893033032E-03  0.37234005451E-03  0.00000000000E+00 0.  1.
</event>
<event>
 5   0  0.4143600E+04  0.9118800E+02  0.7546771E-02  0.1180000E+00
      -11   -1    0    0    0    0  0.00000000000E+00  0.00000000000E+00  0.34996269501E-01  0.35000000000E-01  0.51099999109E-03 0. -1.
       11   -1    0    0    0    0 -0.00000000000E+00 -0.00000000000E+00 -0.34996269501E-01  0.35000000000E-01  0.51099999109E-03 0.  1.
       22    1    1    2    0    0  0.16870619575E-02  0.89113525925E-02  0.33214951416E-01  0.34430965433E-01  0.00000000000E+00 0. -1.
       22    1    1    2    0    0 -0.44228002396E-02 -0.62436695653E-02 -0.13777610189E-01  0.15759667323E-01  0.00000000000E+00 0.  1.
       22    1    1    2    0    0  0.27357382822E-02 -0.26676830272E-02 -0.19437341226E-01  0.19809367245E-01  0.00000000000E+00 0. -1.
</event>
<event>
 5   0  0.4143600E+04  0.9118800E+02  0.7546771E-02  0.1180000E+00
      -11   -1    0    0    0    0  0.00000000000E+00  0.00000000000E+00  0.34996269501E-01  0.35000000000E-01  0.51099999109E-03 0. -1.
       11   -1    0    0    0    0 -0.00000000000E+00 -0.00000000000E+00 -0.34996269501E-01  0.35000000000E-01  0.51099999109E-03 0.  1.
       22    1    1    2    0    0 -0.18663537528E-01 -0.16131929564E-01  0.23532489191E-01  0.34093178673E-01  0.00000000000E+00 0. -1.
       22    1    1    2    0    0  0.18670506908E-01  0.16124681874E-01 -0.24600177195E-01  0.34839085978E-01  0.00000000000E+00 0.  1.
       22    1    1    2    0    0 -0.69693791877E-05  0.72476891541E-05  0.10676880041E-02  0.10677353489E-02  0.00000000000E+00 0.  1.
</event>
<event>
 5   0  0.4143600E+04  0.9118800E+02  0.7546771E-02  0.1180000E+00
      -11   -1    0    0    0    0  0.00000000000E+00  0.00000000000E+00  0.34996269501E-01  0.35000000000E-01  0.51099999109E-03 0. -1.
       11   -1    0    0    0    0 -0.00000000000E+00 -0.00000000000E+00 -0.34996269501E-01  0.35000000000E-01  0.51099999109E-03 0.  1.
       22    1    1    2    0    0  0.70687966619E-02 -0.11888191583E-01  0.31611534068E-01  0.34504870257E-01  0.00000000000E+00 0. -1.
       22    1    1    2    0    0 -0.70653103962E-02  0.11853395300E-01 -0.32133924652E-01  0.34971569949E-01  0.00000000000E+00 0.  1.
       22    1    1    2    0    0 -0.34862656605E-05  0.34796283301E-04  0.52239058445E-03  0.52355979420E-03  0.00000000000E+00 0. -1.
</event>
<event>
 5   0  0.4143600E+04  0.9118800E+02  0.7546771E-02  0.1180000E+00
      -11   -1    0    0    0    0  0.00000000000E+00  0.00000000000E+00  0.34996269501E-01  0.35000000000E-01  0.51099999109E-03 0. -1.
       11   -1    0    0    0    0 -0.00000000000E+00 -0.00000000000E+00 -0.34996269501E-01  0.35000000000E-01  0.51099999109E-03 0.  1.
       22    1    1    2    0    0 -0.21397393650E-01 -0.12175905823E-01  0.24165026116E-01  0.34497095889E-01  0.00000000000E+00 0. -1.
       22    1    1    2    0    0  0.21098759732E-01  0.93511824831E-02 -0.20518196695E-01  0.30880392998E-01  0.00000000000E+00 0.  1.
       22    1    1    2    0    0  0.29863391766E-03  0.28247233397E-02 -0.36468294208E-02  0.46225111127E-02  0.00000000000E+00 0.  1.
</event>
<event>
 5   0  0.4143600E+04  0.9118800E+02  0.7546771E-02  0.1180000E+00
      -11   -1    0    0    0    0  0.00000000000E+00  0.00000000000E+00  0.34996269501E-01  0.35000000000E-01  0.51099999109E-03 0.  1.
       11   -1    0    0    0    0 -0.00000000000E+00 -0.00000000000E+00 -0.34996269501E-01  0.35000000000E-01  0.51099999109E-03 0. -1.
       22    1    1    2    0    0 -0.16369683038E-02 -0.39633350565E-02  0.33816582656E-01  0.34087372332E-01  0.00000000000E+00 0.  1.
       22    1    1    2    0    0 -0.45528842583E-02  0.14114714759E-02 -0.19988096294E-01  0.20548600932E-01  0.00000000000E+00 0.  1.
       22    1    1    2    0    0  0.61898525621E-02  0.25518635806E-02 -0.13828486362E-01  0.15364026736E-01  0.00000000000E+00 0. -1.
</event>
<event>
 5   0  0.4143600E+04  0.9118800E+02  0.7546771E-02  0.1180000E+00
      -11   -1    0    0    0    0  0.00000000000E+00  0.00000000000E+00  0.34996269501E-01  0.35000000000E-01  0.51099999109E-03 0. -1.
       11   -1    0    0    0    0 -0.00000000000E+00 -0.00000000000E+00 -0.34996269501E-01  0.35000000000E-01  0.51099999109E-03 0.  1.
       22    1    1    2    0    0 -0.15742643586E-01 -0.92586293354E-02  0.29804039560E-01  0.34954739569E-01  0.00000000000E+00 0. -1.
       22    1    1    2    0    0  0.15712157976E-01  0.89604993736E-02 -0.28907322658E-01  0.34099791210E-01  0.00000000000E+00 0.  1.
       22    1    1    2    0    0  0.30485609757E-04  0.29812996184E-03 -0.89671690152E-03  0.94546922108E-03  0.00000000000E+00 0.  1.
</event>
<event>
 5   0  0.4143600E+04  0.9118800E+02  0.7546771E-02  0.1180000E+00
      -11   -1    0    0    0    0  0.00000000000E+00  0.00000000000E+00  0.34996269501E-01  0.35000000000E-01  0.51099999109E-03 0.  1.
       11   -1    0    0    0    0 -0.00000000000E+00 -0.00000000000E+00 -0.34996269501E-01  0.35000000000E-01  0.51099999109E-03 0. -1.
       22    1    1    2    0    0  0.92560340319E-02  0.82345709074E-02  0.18884842399E-01  0.22585827336E-01  0.00000000000E+00 0. -1.
       22    1    1    2    0    0  0.50998695184E-02  0.13473361358E-01 -0.15513968996E-01  0.21171286438E-01  0.00000000000E+00 0. -1.
       22    1    1    2    0    0 -0.14355903550E-01 -0.21707932266E-01 -0.33708734022E-02  0.26242886227E-01  0.00000000000E+00 0.  1.
</event>
<event>
 5   0  0.4143600E+04  0.9118800E+02  0.7546771E-02  0.1180000E+00
      -11   -1    0    0    0    0  0.00000000000E+00  0.00000000000E+00  0.34996269501E-01  0.35000000000E-01  0.51099999109E-03 0.  1.
       11   -1    0    0    0    0 -0.00000000000E+00 -0.00000000000E+00 -0.34996269501E-01  0.35000000000E-01  0.51099999109E-03 0. -1.
       22    1    1    2    0    0 -0.14937917062E-01  0.13729573747E-02 -0.29266490902E-01  0.32886986299E-01  0.00000000000E+00 0. -1.
       22    1    1    2    0    0 -0.20911741123E-02  0.11666786200E-03 -0.10244532030E-02  0.23315498972E-02  0.00000000000E+00 0.  1.
       22    1    1    2    0    0  0.17029091174E-01 -0.14896252367E-02  0.30290944105E-01  0.34781463804E-01  0.00000000000E+00 0.  1.
</event>
<event>
 5   0  0.4143600E+04  0.9118800E+02  0.7546771E-02  0.1180000E+00
      -11   -1    0    0    0    0  0.00000000000E+00  0.00000000000E+00  0.34996269501E-01  0.35000000000E-01  0.51099999109E-03 0.  1.
       11   -1    0    0    0    0 -0.00000000000E+00 -0.00000000000E+00 -0.34996269501E-01  0.35000000000E-01  0.51099999109E-03 0. -1.
       22    1    1    2    0    0 -0.16543343409E-01 -0.90777644528E-02 -0.29394217047E-01  0.34930044581E-01  0.00000000000E+00 0. -1.
       22    1    1    2    0    0  0.16569485534E-01  0.91052193676E-02  0.28657575634E-01  0.34332339154E-01  0.00000000000E+00 0.  1.
       22    1    1    2    0    0 -0.26142125328E-04 -0.27454914778E-04  0.73664141319E-03  0.73761626520E-03  0.00000000000E+00 0. -1.
</event>
<event>
 5   0  0.4143600E+04  0.9118800E+02  0.7546771E-02  0.1180000E+00
      -11   -1    0    0    0    0  0.00000000000E+00  0.00000000000E+00  0.34996269501E-01  0.35000000000E-01  0.51099999109E-03 0.  1.
       11   -1    0    0    0    0 -0.00000000000E+00 -0.00000000000E+00 -0.34996269501E-01  0.35000000000E-01  0.51099999109E-03 0. -1.
       22    1    1    2    0    0 -0.67306997219E-02  0.93662244511E-02 -0.33009570004E-01  0.34966558181E-01  0.00000000000E+00 0. -1.
       22    1    1    2    0    0  0.54726991110E-02 -0.84368114867E-02  0.30017297769E-01  0.31657043276E-01  0.00000000000E+00 0.  1.
       22    1    1    2    0    0  0.12580006109E-02 -0.92941296438E-03  0.29922722345E-02  0.33763985430E-02  0.00000000000E+00 0. -1.
</event>
<event>
 5   0  0.4143600E+04  0.9118800E+02  0.7546771E-02  0.1180000E+00
      -11   -1    0    0    0    0  0.00000000000E+00  0.00000000000E+00  0.34996269501E-01  0.35000000000E-01  0.51099999109E-03 0. -1.
       11   -1    0    0    0    0 -0.00000000000E+00 -0.00000000000E+00 -0.34996269501E-01  0.35000000000E-01  0.51099999109E-03 0.  1.
       22    1    1    2    0    0  0.29669059198E-03  0.25577762276E-02 -0.34575026558E-01  0.34670775965E-01  0.00000000000E+00 0.  1.
       22    1    1    2    0    0 -0.85697255519E-04 -0.26625316162E-02  0.34858786579E-01  0.34960426490E-01  0.00000000000E+00 0. -1.
       22    1    1    2    0    0 -0.21099333646E-03  0.10475538853E-03 -0.28376002076E-03  0.36879754451E-03  0.00000000000E+00 0. -1.
</event>
<event>
 5   0  0.4143600E+04  0.9118800E+02  0.7546771E-02  0.1180000E+00
      -11   -1    0    0    0    0  0.00000000000E+00  0.00000000000E+00  0.34996269501E-01  0.35000000000E-01  0.51099999109E-03 0.  1.
       11   -1    0    0    0    0 -0.00000000000E+00 -0.00000000000E+00 -0.34996269501E-01  0.35000000000E-01  0.51099999109E-03 0. -1.
       22    1    1    2    0    0 -0.22901023794E-01 -0.65630942580E-02 -0.24584604790E-01  0.34233519973E-01  0.00000000000E+00 0. -1.
       22    1    1    2    0    0  0.23575403040E-01  0.71407658720E-02  0.24684587607E-01  0.34872898232E-01  0.00000000000E+00 0.  1.
       22    1    1    2    0    0 -0.67437924559E-03 -0.57767161391E-03 -0.99982817146E-04  0.89358179487E-03  0.00000000000E+00 0.  1.
</event>
<event>
 5   0  0.4143600E+04  0.9118800E+02  0.7546771E-02  0.1180000E+00
      -11   -1    0    0    0    0  0.00000000000E+00  0.00000000000E+00  0.34996269501E-01  0.35000000000E-01  0.51099999109E-03 0. -1.
       11   -1    0    0    0    0 -0.00000000000E+00 -0.00000000000E+00 -0.34996269501E-01  0.35000000000E-01  0.51099999109E-03 0.  1.
       22    1    1    2    0    0 -0.17079023703E-01 -0.13669033108E-02 -0.27382185548E-01  0.32300860061E-01  0.00000000000E+00 0.  1.
       22    1    1    2    0    0 -0.23040323781E-02  0.53445094116E-02  0.39686697699E-02  0.70443371436E-02  0.00000000000E+00 0.  1.
       22    1    1    2    0    0  0.19383056082E-01 -0.39776061007E-02  0.23413515778E-01  0.30654802795E-01  0.00000000000E+00 0. -1.
</event>
<event>
 5   0  0.4143600E+04  0.9118800E+02  0.7546771E-02  0.1180000E+00
      -11   -1    0    0    0    0  0.00000000000E+00  0.00000000000E+00  0.34996269501E-01  0.35000000000E-01  0.51099999109E-03 0.  1.
       11   -1    0    0    0    0 -0.00000000000E+00 -0.00000000000E+00 -0.34996269501E-01  0.35000000000E-01  0.51099999109E-03 0. -1.
       22    1    1    2    0    0 -0.26016717322E-03  0.92283761861E-03 -0.17677971421E-02  0.20110750766E-02  0.00000000000E+00 0. -1.
       22    1    1    2    0    0 -0.71261513606E-03  0.23078833743E-02 -0.32984704106E-01  0.33073023009E-01  0.00000000000E+00 0. -1.
       22    1    1    2    0    0  0.97278230929E-03 -0.32307209929E-02  0.34752501248E-01  0.34915901915E-01  0.00000000000E+00 0.  1.
</event>
<event>
 5   0  0.4143600E+04  0.9118800E+02  0.7546771E-02  0.1180000E+00
      -11   -1    0    0    0    0  0.00000000000E+00  0.00000000000E+00  0.34996269501E-01  0.35000000000E-01  0.51099999109E-03 0. -1.
       11   -1    0    0    0    0 -0.00000000000E+00 -0.00000000000E+00 -0.34996269501E-01  0.35000000000E-01  0.51099999109E-03 0.  1.
       22    1    1    2    0    0 -0.92891060863E-03 -0.39552744765E-02 -0.26508536149E-03  0.40715281348E-02  0.00000000000E+00 0.  1.
       22    1    1    2    0    0  0.11388142012E-01 -0.10015466565E-02 -0.30759466926E-01  0.32815205009E-01  0.00000000000E+00 0.  1.
       22    1    1    2    0    0 -0.10459231404E-01  0.49568211330E-02  0.31024552287E-01  0.33113266857E-01  0.00000000000E+00 0. -1.
</event>
<event>
 5   0  0.4143600E+04  0.9118800E+02  0.7546771E-02  0.1180000E+00
      -11   -1    0    0    0    0  0.00000000000E+00  0.00000000000E+00  0.34996269501E-01  0.35000000000E-01  0.51099999109E-03 0.  1.
       11   -1    0    0    0    0 -0.00000000000E+00 -0.00000000000E+00 -0.34996269501E-01  0.35000000000E-01  0.51099999109E-03 0. -1.
       22    1    1    2    0    0 -0.42908831368E-03  0.28199562778E-03  0.24227313402E-02  0.24765430466E-02  0.00000000000E+00 0.  1.
       22    1    1    2    0    0 -0.45098994210E-02  0.13923971747E-01 -0.31529270275E-01  0.34760769066E-01  0.00000000000E+00 0. -1.
       22    1    1    2    0    0  0.49389877347E-02 -0.14205967375E-01  0.29106538934E-01  0.32762687888E-01  0.00000000000E+00 0.  1.
</event>
<event>
 5   0  0.4143600E+04  0.9118800E+02  0.7546771E-02  0.1180000E+00
      -11   -1    0    0    0    0  0.00000000000E+00  0.00000000000E+00  0.34996269501E-01  0.35000000000E-01  0.51099999109E-03 0.  1.
       11   -1    0    0    0    0 -0.00000000000E+00 -0.00000000000E+00 -0.34996269501E-01  0.35000000000E-01  0.51099999109E-03 0. -1.
       22    1    1    2    0    0 -0.47154819593E-04 -0.69170167571E-04  0.16424890530E-02  0.16446210440E-02  0.00000000000E+00 0. -1.
       22    1    1    2    0    0 -0.18980595986E-01 -0.10087322329E-01  0.25716720748E-01  0.33516664837E-01  0.00000000000E+00 0.  1.
       22    1    1    2    0    0  0.19027750805E-01  0.10156492496E-01 -0.27359209801E-01  0.34838714119E-01  0.00000000000E+00 0. -1.
</event>
<event>
 5   0  0.4143600E+04  0.9118800E+02  0.7546771E-02  0.1180000E+00
      -11   -1    0    0    0    0  0.00000000000E+00  0.00000000000E+00  0.34996269501E-01  0.35000000000E-01  0.51099999109E-03 0.  1.
       11   -1    0    0    0    0 -0.00000000000E+00 -0.00000000000E+00 -0.34996269501E-01  0.35000000000E-01  0.51099999109E-03 0. -1.
       22    1    1    2    0    0 -0.91412562047E-02  0.88893537525E-02  0.32571056141E-01  0.34977948386E-01  0.00000000000E+00 0.  1.
       22    1    1    2    0    0  0.92048882281E-02 -0.88813842297E-02 -0.32236789828E-01  0.34681689283E-01  0.00000000000E+00 0. -1.
       22    1    1    2    0    0 -0.63632023450E-04 -0.79695227860E-05 -0.33426631367E-03  0.34036233069E-03  0.00000000000E+00 0. -1.
</event>
<event>
 5   0  0.4143600E+04  0.9118800E+02  0.7546771E-02  0.1180000E+00
      -11   -1    0    0    0    0  0.00000000000E+00  0.00000000000E+00  0.34996269501E-01  0.35000000000E-01  0.51099999109E-03 0. -1.
       11   -1    0    0    0    0 -0.00000000000E+00 -0.00000000000E+00 -0.34996269501E-01  0.35000000000E-01  0.51099999109E-03 0.  1.
       22    1    1    2    0    0 -0.21413813790E-02  0.26131380742E-03 -0.26123082960E-02  0.33879128899E-02  0.00000000000E+00 0. -1.
       22    1    1    2    0    0 -0.16868642733E-01 -0.98767439150E-02 -0.25001307589E-01  0.31735887559E-01  0.00000000000E+00 0.  1.
       22    1    1    2    0    0  0.19010024112E-01  0.96154301076E-02  0.27613615885E-01  0.34876199551E-01  0.00000000000E+00 0. -1.
</event>
<event>
 5   0  0.4143600E+04  0.9118800E+02  0.7546771E-02  0.1180000E+00
      -11   -1    0    0    0    0  0.00000000000E+00  0.00000000000E+00  0.34996269501E-01  0.35000000000E-01  0.51099999109E-03 0. -1.
       11   -1    0    0    0    0 -0.00000000000E+00 -0.00000000000E+00 -0.34996269501E-01  0.35000000000E-01  0.51099999109E-03 0.  1.
       22    1    1    2    0    0 -0.20584725495E-02  0.16977626053E-02  0.21748379012E-02  0.34423287172E-02  0.00000000000E+00 0.  1.
       22    1    1    2    0    0 -0.10561666915E-01 -0.11115869714E-01 -0.30506904898E-01  0.34143558894E-01  0.00000000000E+00 0.  1.
       22    1    1    2    0    0  0.12620139465E-01  0.94181071083E-02  0.28332066997E-01  0.32414112388E-01  0.00000000000E+00 0. -1.
</event>
<event>
 5   0  0.4143600E+04  0.9118800E+02  0.7546771E-02  0.1180000E+00
      -11   -1    0    0    0    0  0.00000000000E+00  0.00000000000E+00  0.34996269501E-01  0.35000000000E-01  0.51099999109E-03 0.  1.
       11   -1    0    0    0    0 -0.00000000000E+00 -0.00000000000E+00 -0.34996269501E-01  0.35000000000E-01  0.51099999109E-03 0. -1.
       22    1    1    2    0    0  0.69323065813E-02 -0.19777693099E-01 -0.27951589133E-01  0.34935731764E-01  0.00000000000E+00 0. -1.
       22    1    1    2    0    0 -0.76389726715E-05 -0.36291906963E-05  0.62957479231E-03  0.62963159390E-03  0.00000000000E+00 0. -1.
       22    1    1    2    0    0 -0.69246676086E-02  0.19781322290E-01  0.27322014340E-01  0.34434636642E-01  0.00000000000E+00 0.  1.
</event>
<event>
 5   0  0.4143600E+04  0.9118800E+02  0.7546771E-02  0.1180000E+00
      -11   -1    0    0    0    0  0.00000000000E+00  0.00000000000E+00  0.34996269501E-01  0.35000000000E-01  0.51099999109E-03 0. -1.
       11   -1    0    0    0    0 -0.00000000000E+00 -0.00000000000E+00 -0.34996269501E-01  0.35000000000E-01  0.51099999109E-03 0.  1.
       22    1    1    2    0    0  0.10584660263E-01  0.93662512878E-02  0.31928467292E-01  0.34916883018E-01  0.00000000000E+00 0. -1.
       22    1    1    2    0    0 -0.57433558516E-03  0.27129566596E-03 -0.16620289590E-02  0.17792703458E-02  0.00000000000E+00 0.  1.
       22    1    1    2    0    0 -0.10010324678E-01 -0.96375469538E-02 -0.30266438333E-01  0.33303846637E-01  0.00000000000E+00 0.  1.
</event>
<event>
 5   0  0.4143600E+04  0.9118800E+02  0.7546771E-02  0.1180000E+00
      -11   -1    0    0    0    0  0.00000000000E+00  0.00000000000E+00  0.34996269501E-01  0.35000000000E-01  0.51099999109E-03 0. -1.
       11   -1    0    0    0    0 -0.00000000000E+00 -0.00000000000E+00 -0.34996269501E-01  0.35000000000E-01  0.51099999109E-03 0.  1.
       22    1    1    2    0    0 -0.20505546554E-01 -0.13599074891E-02  0.27831689108E-01  0.34596671899E-01  0.00000000000E+00 0. -1.
       22    1    1    2    0    0  0.20256252498E-01  0.15673372489E-02 -0.28297570985E-01  0.34835683358E-01  0.00000000000E+00 0.  1.
       22    1    1    2    0    0  0.24929405598E-03 -0.20742975977E-03  0.46588187680E-03  0.56764474340E-03  0.00000000000E+00 0.  1.
</event>
<event>
 5   0  0.4143600E+04  0.9118800E+02  0.7546771E-02  0.1180000E+00
      -11   -1    0    0    0    0  0.00000000000E+00  0.00000000000E+00  0.34996269501E-01  0.35000000000E-01  0.51099999109E-03 0. -1.
       11   -1    0    0    0    0 -0.00000000000E+00 -0.00000000000E+00 -0.34996269501E-01  0.35000000000E-01  0.51099999109E-03 0.  1.
       22    1    1    2    0    0  0.19626485358E-01 -0.56801802396E-02 -0.26142109474E-01  0.33179410224E-01  0.00000000000E+00 0.  1.
       22    1    1    2    0    0  0.64782438946E-03  0.25176850047E-03 -0.17678223174E-02  0.18995419351E-02  0.00000000000E+00 0.  1.
       22    1    1    2    0    0 -0.20274309747E-01  0.54284117392E-02  0.27909931791E-01  0.34921047841E-01  0.00000000000E+00 0. -1.
</event>
<event>
 5   0  0.4143600E+04  0.9118800E+02  0.7546771E-02  0.1180000E+00
      -11   -1    0    0    0    0  0.00000000000E+00  0.00000000000E+00  0.34996269501E-01  0.35000000000E-01  0.51099999109E-03 0.  1.
       11   -1    0    0    0    0 -0.00000000000E+00 -0.00000000000E+00 -0.34996269501E-01  0.35000000000E-01  0.51099999109E-03 0. -1.
       22    1    1    2    0    0  0.30095202172E-02  0.25399833606E-03 -0.32052679679E-01  0.32194657968E-01  0.00000000000E+00 0. -1.
       22    1    1    2    0    0  0.11914890269E-02  0.56465387020E-03 -0.25862670652E-02  0.29029738936E-02  0.00000000000E+00 0.  1.
       22    1    1    2    0    0 -0.42010092441E-02 -0.81865220627E-03  0.34638946744E-01  0.34902368138E-01  0.00000000000E+00 0.  1.
</event>
<event>
 5   0  0.4143600E+04  0.9118800E+02  0.7546771E-02  0.1180000E+00
      -11   -1    0    0    0    0  0.00000000000E+00  0.00000000000E+00  0.34996269501E-01  0.35000000000E-01  0.51099999109E-03 0.  1.
       11   -1    0    0    0    0 -0.00000000000E+00 -0.00000000000E+00 -0.34996269501E-01  0.35000000000E-01  0.51099999109E-03 0. -1.
       22    1    1    2    0    0  0.27801268289E-02  0.74202070744E-02 -0.33669545378E-01  0.34589403929E-01  0.00000000000E+00 0. -1.
       22    1    1    2    0    0 -0.26854718074E-02 -0.75649648487E-02  0.34054884535E-01  0.34988221057E-01  0.00000000000E+00 0.  1.
       22    1    1    2    0    0 -0.94655021546E-04  0.14475777433E-03 -0.38533915730E-03  0.42237501404E-03  0.00000000000E+00 0.  1.
</event>
<event>
 5   0  0.4143600E+04  0.9118800E+02  0.7546771E-02  0.1180000E+00
      -11   -1    0    0    0    0  0.00000000000E+00  0.00000000000E+00  0.34996269501E-01  0.35000000000E-01  0.51099999109E-03 0. -1.
       11   -1    0    0    0    0 -0.00000000000E+00 -0.00000000000E+00 -0.34996269501E-01  0.35000000000E-01  0.51099999109E-03 0.  1.
       22    1    1    2    0    0 -0.18822144851E-01 -0.78102699161E-02 -0.20968257563E-01  0.29239378896E-01  0.00000000000E+00 0.  1.
       22    1    1    2    0    0 -0.35896706690E-03  0.59127054053E-03 -0.64735161681E-02  0.65103663327E-02  0.00000000000E+00 0.  1.
       22    1    1    2    0    0  0.19181111918E-01  0.72189993756E-02  0.27441773732E-01  0.34250254772E-01  0.00000000000E+00 0. -1.
</event>
<event>
 5   0  0.4143600E+04  0.9118800E+02  0.7546771E-02  0.1180000E+00
      -11   -1    0    0    0    0  0.00000000000E+00  0.00000000000E+00  0.34996269501E-01  0.35000000000E-01  0.51099999109E-03 0. -1.
       11   -1    0    0    0    0 -0.00000000000E+00 -0.00000000000E+00 -0.34996269501E-01  0.35000000000E-01  0.51099999109E-03 0.  1.
       22    1    1    2    0    0  0.16512258821E-01 -0.30898759230E-02 -0.29734839853E-01  0.34152053023E-01  0.00000000000E+00 0.  1.
       22    1    1    2    0    0 -0.10312141502E-01 -0.59742454134E-03  0.83597976316E-02  0.13288468493E-01  0.00000000000E+00 0. -1.
       22    1    1    2    0    0 -0.62001173195E-02  0.36873004644E-02  0.21375042222E-01  0.22559478484E-01  0.00000000000E+00 0. -1.
</event>
<event>
 5   0  0.4143600E+04  0.9118800E+02  0.7546771E-02  0.1180000E+00
      -11   -1    0    0    0    0  0.00000000000E+00  0.00000000000E+00  0.34996269501E-01  0.35000000000E-01  0.51099999109E-03 0.  1.
       11   -1    0    0    0    0 -0.00000000000E+00 -0.00000000000E+00 -0.34996269501E-01  0.35000000000E-01  0.51099999109E-03 0. -1.
       22    1    1    2    0    0  0.10354750595E-01  0.50052037951E-02 -0.18036767503E-01  0.21391538207E-01  0.00000000000E+00 0. -1.
       22    1    1    2    0    0 -0.10662357964E-01 -0.62579393145E-02 -0.12770317126E-01  0.17774382726E-01  0.00000000000E+00 0.  1.
       22    1    1    2    0    0  0.30760736833E-03  0.12527355194E-02  0.30807084629E-01  0.30834079067E-01  0.00000000000E+00 0.  1.
</event>
<event>
 5   0  0.4143600E+04  0.9118800E+02  0.7546771E-02  0.1180000E+00
      -11   -1    0    0    0    0  0.00000000000E+00  0.00000000000E+00  0.34996269501E-01  0.35000000000E-01  0.51099999109E-03 0. -1.
       11   -1    0    0    0    0 -0.00000000000E+00 -0.00000000000E+00 -0.34996269501E-01  0.35000000000E-01  0.51099999109E-03 0.  1.
       22    1    1    2    0    0 -0.13908142133E-01  0.28582154464E-02  0.30864819790E-01  0.33974150671E-01  0.00000000000E+00 0. -1.
       22    1    1    2    0    0  0.11056964270E-01 -0.45281036742E-02 -0.30431866473E-01  0.32693404209E-01  0.00000000000E+00 0.  1.
       22    1    1    2    0    0  0.28511778631E-02  0.16698882278E-02 -0.43295331736E-03  0.33324451196E-02  0.00000000000E+00 0.  1.
</event>
<event>
 5   0  0.4143600E+04  0.9118800E+02  0.7546771E-02  0.1180000E+00
      -11   -1    0    0    0    0  0.00000000000E+00  0.00000000000E+00  0.34996269501E-01  0.35000000000E-01  0.51099999109E-03 0.  1.
       11   -1    0    0    0    0 -0.00000000000E+00 -0.00000000000E+00 -0.34996269501E-01  0.35000000000E-01  0.51099999109E-03 0. -1.
       22    1    1    2    0    0  0.10587968261E-01  0.57779998155E-02  0.31950485198E-01  0.34151483982E-01  0.00000000000E+00 0.  1.
       22    1    1    2    0    0 -0.10605412416E-01 -0.59573515105E-02 -0.32798527044E-01  0.34981540643E-01  0.00000000000E+00 0. -1.
       22    1    1    2    0    0  0.17444155602E-04  0.17935169507E-03  0.84804184552E-03  0.86697537499E-03  0.00000000000E+00 0. -1.
</event>
<event>
 5   0  0.4143600E+04  0.9118800E+02  0.7546771E-02  0.1180000E+00
      -11   -1    0    0    0    0  0.00000000000E+00  0.00000000000E+00  0.34996269501E-01  0.35000000000E-01  0.51099999109E-03 0.  1.
       11   -1    0    0    0    0 -0.00000000000E+00 -0.00000000000E+00 -0.34996269501E-01  0.35000000000E-01  0.51099999109E-03 0. -1.
       22    1    1    2    0    0  0.10464556166E-01 -0.59990598262E-02 -0.32317490600E-01  0.34495156953E-01  0.00000000000E+00 0. -1.
       22    1    1    2    0    0 -0.40011366339E-03  0.82015658462E-03 -0.31477806142E-03  0.96531497185E-03  0.00000000000E+00 0. -1.
       22    1    1    2    0    0 -0.10064442503E-01  0.51789032416E-02  0.32632268661E-01  0.34539528075E-01  0.00000000000E+00 0.  1.
</event>
<event>
 5   0  0.4143600E+04  0.9118800E+02  0.7546771E-02  0.1180000E+00
      -11   -1    0    0    0    0  0.00000000000E+00  0.00000000000E+00  0.34996269501E-01  0.35000000000E-01  0.51099999109E-03 0.  1.
       11   -1    0    0    0    0 -0.00000000000E+00 -0.00000000000E+00 -0.34996269501E-01  0.35000000000E-01  0.51099999109E-03 0. -1.
       22    1    1    2    0    0 -0.13737336558E-01 -0.85720085330E-02  0.30239527995E-01  0.34301935796E-01  0.00000000000E+00 0.  1.
       22    1    1    2    0    0  0.13368975447E-01  0.10047753208E-01 -0.29698767020E-01  0.34083773434E-01  0.00000000000E+00 0. -1.
       22    1    1    2    0    0  0.36836111162E-03 -0.14757446754E-02 -0.54076097513E-03  0.16142907693E-02  0.00000000000E+00 0. -1.
</event>
<event>
 5   0  0.4143600E+04  0.9118800E+02  0.7546771E-02  0.1180000E+00
      -11   -1    0    0    0    0  0.00000000000E+00  0.00000000000E+00  0.34996269501E-01  0.35000000000E-01  0.51099999109E-03 0.  1.
       11   -1    0    0    0    0 -0.00000000000E+00 -0.00000000000E+00 -0.34996269501E-01  0.35000000000E-01  0.51099999109E-03 0. -1.
       22    1    1    2    0    0  0.64483535343E-02  0.10322957043E-01  0.31053621059E-01  0.33353741713E-01  0.00000000000E+00 0.  1.
       22    1    1    2    0    0  0.21093757999E-03 -0.59020439655E-04  0.16834168925E-02  0.16976072894E-02  0.00000000000E+00 0. -1.
       22    1    1    2    0    0 -0.66592911143E-02 -0.10263936603E-01 -0.32737037951E-01  0.34948650998E-01  0.00000000000E+00 0. -1.
</event>
<event>
 5   0  0.4143600E+04  0.9118800E+02  0.7546771E-02  0.1180000E+00
      -11   -1    0    0    0    0  0.00000000000E+00  0.00000000000E+00  0.34996269501E-01  0.35000000000E-01  0.51099999109E-03 0.  1.
       11   -1    0    0    0    0 -0.00000000000E+00 -0.00000000000E+00 -0.34996269501E-01  0.35000000000E-01  0.51099999109E-03 0. -1.
       22    1    1    2    0    0  0.11119430322E-02  0.17076252727E-03 -0.31829306327E-01  0.31849180812E-01  0.00000000000E+00 0. -1.
       22    1    1    2    0    0 -0.47891558064E-03  0.14474440999E-02  0.34733257033E-01  0.34766702442E-01  0.00000000000E+00 0.  1.
       22    1    1    2    0    0 -0.63302745155E-03 -0.16182066272E-02 -0.29039507064E-02  0.33841167456E-02  0.00000000000E+00 0.  1.
</event>
<event>
 5   0  0.4143600E+04  0.9118800E+02  0.7546771E-02  0.1180000E+00
      -11   -1    0    0    0    0  0.00000000000E+00  0.00000000000E+00  0.34996269501E-01  0.35000000000E-01  0.51099999109E-03 0.  1.
       11   -1    0    0    0    0 -0.00000000000E+00 -0.00000000000E+00 -0.34996269501E-01  0.35000000000E-01  0.51099999109E-03 0.  1.
       22    1    1    2    0    0 -0.41289124734E-03 -0.31228912154E-03 -0.34083184489E-01  0.34087115874E-01  0.00000000000E+00 0.  1.
       22    1    1    2    0    0  0.77280083603E-03  0.46915836374E-03  0.34949795496E-01  0.34961486466E-01  0.00000000000E+00 0.  1.
       22    1    1    2    0    0 -0.35990958870E-03 -0.15686924220E-03 -0.86661100649E-03  0.95139766016E-03  0.00000000000E+00 0. -1.
</event>
<event>
 5   0  0.4143600E+04  0.9118800E+02  0.7546771E-02  0.1180000E+00
      -11   -1    0    0    0    0  0.00000000000E+00  0.00000000000E+00  0.34996269501E-01  0.35000000000E-01  0.51099999109E-03 0. -1.
       11   -1    0    0    0    0 -0.00000000000E+00 -0.00000000000E+00 -0.34996269501E-01  0.35000000000E-01  0.51099999109E-03 0.  1.
       22    1    1    2    0    0 -0.19343041649E-01  0.91962458124E-02  0.27366804708E-01  0.34751492014E-01  0.00000000000E+00 0. -1.
       22    1    1    2    0    0  0.19311419400E-01 -0.89556147400E-02 -0.24853640415E-01  0.32723651943E-01  0.00000000000E+00 0.  1.
       22    1    1    2    0    0  0.31622249235E-04 -0.24063107240E-03 -0.25131642928E-02  0.25248560439E-02  0.00000000000E+00 0.  1.
</event>
<event>
 5   0  0.4143600E+04  0.9118800E+02  0.7546771E-02  0.1180000E+00
      -11   -1    0    0    0    0  0.00000000000E+00  0.00000000000E+00  0.34996269501E-01  0.35000000000E-01  0.51099999109E-03 0. -1.
       11   -1    0    0    0    0 -0.00000000000E+00 -0.00000000000E+00 -0.34996269501E-01  0.35000000000E-01  0.51099999109E-03 0.  1.
       22    1    1    2    0    0  0.14743938285E-04 -0.15856747762E-04  0.13264562086E-02  0.13266329158E-02  0.00000000000E+00 0. -1.
       22    1    1    2    0    0  0.11322133324E-01 -0.18068752026E-01  0.26238829493E-01  0.33810452170E-01  0.00000000000E+00 0. -1.
       22    1    1    2    0    0 -0.11336877262E-01  0.18084608773E-01 -0.27565285701E-01  0.34862914915E-01  0.00000000000E+00 0.  1.
</event>
<event>
 5   0  0.4143600E+04  0.9118800E+02  0.7546771E-02  0.1180000E+00
      -11   -1    0    0    0    0  0.00000000000E+00  0.00000000000E+00  0.34996269501E-01  0.35000000000E-01  0.51099999109E-03 0. -1.
       11   -1    0    0    0    0 -0.00000000000E+00 -0.00000000000E+00 -0.34996269501E-01  0.35000000000E-01  0.51099999109E-03 0.  1.
       22    1    1    2    0    0  0.92574542190E-02 -0.17486215663E-01  0.54619129754E-02  0.20525610592E-01  0.00000000000E+00 0. -1.
       22    1    1    2    0    0 -0.37321532469E-03  0.78500483459E-03  0.18737922314E-01  0.18758071727E-01  0.00000000000E+00 0. -1.
       22    1    1    2    0    0 -0.88842388943E-02  0.16701210829E-01 -0.24199835289E-01  0.30716317681E-01  0.00000000000E+00 0.  1.
</event>
<event>
 5   0  0.4143600E+04  0.9118800E+02  0.7546771E-02  0.1180000E+00
      -11   -1    0    0    0    0  0.00000000000E+00  0.00000000000E+00  0.34996269501E-01  0.35000000000E-01  0.51099999109E-03 0. -1.
       11   -1    0    0    0    0 -0.00000000000E+00 -0.00000000000E+00 -0.34996269501E-01  0.35000000000E-01  0.51099999109E-03 0.  1.
       22    1    1    2    0    0 -0.20230925762E-01  0.51611310540E-02 -0.25491321049E-01  0.32950494378E-01  0.00000000000E+00 0.  1.
       22    1    1    2    0    0  0.20911211266E-01 -0.48594424941E-02  0.27511486237E-01  0.34896630395E-01  0.00000000000E+00 0. -1.
       22    1    1    2    0    0 -0.68028550357E-03 -0.30168855988E-03 -0.20201651883E-02  0.21528752267E-02  0.00000000000E+00 0. -1.
</event>
<event>
 5   0  0.4143600E+04  0.9118800E+02  0.7546771E-02  0.1180000E+00
      -11   -1    0    0    0    0  0.00000000000E+00  0.00000000000E+00  0.34996269501E-01  0.35000000000E-01  0.51099999109E-03 0.  1.
       11   -1    0    0    0    0 -0.00000000000E+00 -0.00000000000E+00 -0.34996269501E-01  0.35000000000E-01  0.51099999109E-03 0. -1.
       22    1    1    2    0    0 -0.36601213267E-02  0.13552165396E-01  0.25421340000E-01  0.29039666018E-01  0.00000000000E+00 0.  1.
       22    1    1    2    0    0  0.15320458574E-03 -0.26552284678E-03  0.63433065227E-02  0.63507095405E-02  0.00000000000E+00 0.  1.
       22    1    1    2    0    0  0.35069167410E-02 -0.13286642549E-01 -0.31764646523E-01  0.34609624441E-01  0.00000000000E+00 0. -1.
</event>
<event>
 5   0  0.4143600E+04  0.9118800E+02  0.7546771E-02  0.1180000E+00
      -11   -1    0    0    0    0  0.00000000000E+00  0.00000000000E+00  0.34996269501E-01  0.35000000000E-01  0.51099999109E-03 0. -1.
       11   -1    0    0    0    0 -0.00000000000E+00 -0.00000000000E+00 -0.34996269501E-01  0.35000000000E-01  0.51099999109E-03 0.  1.
       22    1    1    2    0    0 -0.41800384899E-02 -0.24597053504E-01  0.23455914334E-01  0.34244235721E-01  0.00000000000E+00 0. -1.
       22    1    1    2    0    0  0.20385889845E-02  0.28637393095E-02 -0.87435549115E-02  0.94237253977E-02  0.00000000000E+00 0.  1.
       22    1    1    2    0    0  0.21414495054E-02  0.21733314195E-01 -0.14712359423E-01  0.26332038881E-01  0.00000000000E+00 0.  1.
</event>
<event>
 5   0  0.4143600E+04  0.9118800E+02  0.7546771E-02  0.1180000E+00
      -11   -1    0    0    0    0  0.00000000000E+00  0.00000000000E+00  0.34996269501E-01  0.35000000000E-01  0.51099999109E-03 0. -1.
       11   -1    0    0    0    0 -0.00000000000E+00 -0.00000000000E+00 -0.34996269501E-01  0.35000000000E-01  0.51099999109E-03 0.  1.
       22    1    1    2    0    0 -0.24486503125E-02  0.39191829492E-02  0.61035629242E-02  0.76556752617E-02  0.00000000000E+00 0. -1.
       22    1    1    2    0    0 -0.98051873940E-02  0.21761453904E-02  0.25769228616E-01  0.27657376088E-01  0.00000000000E+00 0. -1.
       22    1    1    2    0    0  0.12253837707E-01 -0.60953283396E-02 -0.31872791540E-01  0.34686948650E-01  0.00000000000E+00 0.  1.
</event>
<event>
 5   0  0.4143600E+04  0.9118800E+02  0.7546771E-02  0.1180000E+00
      -11   -1    0    0    0    0  0.00000000000E+00  0.00000000000E+00  0.34996269501E-01  0.35000000000E-01  0.51099999109E-03 0. -1.
       11   -1    0    0    0    0 -0.00000000000E+00 -0.00000000000E+00 -0.34996269501E-01  0.35000000000E-01  0.51099999109E-03 0.  1.
       22    1    1    2    0    0 -0.18391255442E-02  0.42707922858E-03 -0.41466281146E-02  0.45562379388E-02  0.00000000000E+00 0. -1.
       22    1    1    2    0    0 -0.16424535988E-01 -0.38183464993E-02  0.29520453110E-01  0.33997092585E-01  0.00000000000E+00 0. -1.
       22    1    1    2    0    0  0.18263661533E-01  0.33912672707E-02 -0.25373824995E-01  0.31446669476E-01  0.00000000000E+00 0.  1.
</event>
<event>
 5   0  0.4143600E+04  0.9118800E+02  0.7546771E-02  0.1180000E+00
      -11   -1    0    0    0    0  0.00000000000E+00  0.00000000000E+00  0.34996269501E-01  0.35000000000E-01  0.51099999109E-03 0.  1.
       11   -1    0    0    0    0 -0.00000000000E+00 -0.00000000000E+00 -0.34996269501E-01  0.35000000000E-01  0.51099999109E-03 0. -1.
       22    1    1    2    0    0  0.20042548860E-01 -0.20591011379E-02  0.28320565985E-01  0.34756267349E-01  0.00000000000E+00 0.  1.
       22    1    1    2    0    0 -0.19634712117E-01  0.30191790355E-02 -0.27455026680E-01  0.33888284878E-01  0.00000000000E+00 0. -1.
       22    1    1    2    0    0 -0.40783674264E-03 -0.96007789762E-03 -0.86553930498E-03  0.13554477735E-02  0.00000000000E+00 0. -1.
</event>
<event>
 5   0  0.4143600E+04  0.9118800E+02  0.7546771E-02  0.1180000E+00
      -11   -1    0    0    0    0  0.00000000000E+00  0.00000000000E+00  0.34996269501E-01  0.35000000000E-01  0.51099999109E-03 0.  1.
       11   -1    0    0    0    0 -0.00000000000E+00 -0.00000000000E+00 -0.34996269501E-01  0.35000000000E-01  0.51099999109E-03 0. -1.
       22    1    1    2    0    0  0.89592722981E-02 -0.11184758505E-01 -0.28080099539E-01  0.31525535254E-01  0.00000000000E+00 0. -1.
       22    1    1    2    0    0  0.11523251437E-02 -0.15463671560E-02  0.20404736402E-01  0.20495667158E-01  0.00000000000E+00 0. -1.
       22    1    1    2    0    0 -0.10111597442E-01  0.12731125661E-01  0.76753631369E-02  0.17978797588E-01  0.00000000000E+00 0.  1.
</event>
<event>
 5   0  0.4143600E+04  0.9118800E+02  0.7546771E-02  0.1180000E+00
      -11   -1    0    0    0    0  0.00000000000E+00  0.00000000000E+00  0.34996269501E-01  0.35000000000E-01  0.51099999109E-03 0.  1.
       11   -1    0    0    0    0 -0.00000000000E+00 -0.00000000000E+00 -0.34996269501E-01  0.35000000000E-01  0.51099999109E-03 0. -1.
       22    1    1    2    0    0 -0.14911587068E-02  0.66049369897E-02 -0.16717138534E-02  0.69744802053E-02  0.00000000000E+00 0. -1.
       22    1    1    2    0    0  0.18159194811E-01  0.69087826093E-02  0.24781421616E-01  0.31489783909E-01  0.00000000000E+00 0.  1.
       22    1    1    2    0    0 -0.16668036105E-01 -0.13513719599E-01 -0.23109707762E-01  0.31535735886E-01  0.00000000000E+00 0. -1.
</event>
<event>
 5   0  0.4143600E+04  0.9118800E+02  0.7546771E-02  0.1180000E+00
      -11   -1    0    0    0    0  0.00000000000E+00  0.00000000000E+00  0.34996269501E-01  0.35000000000E-01  0.51099999109E-03 0. -1.
       11   -1    0    0    0    0 -0.00000000000E+00 -0.00000000000E+00 -0.34996269501E-01  0.35000000000E-01  0.51099999109E-03 0.  1.
       22    1    1    2    0    0  0.69949459632E-03  0.98458359668E-02  0.33103765423E-01  0.34544016323E-01  0.00000000000E+00 0. -1.
       22    1    1    2    0    0 -0.45147043013E-03 -0.99598770407E-02 -0.19980467573E-01  0.22329846857E-01  0.00000000000E+00 0.  1.
       22    1    1    2    0    0 -0.24802416619E-03  0.11404107384E-03 -0.13123297850E-01  0.13126136820E-01  0.00000000000E+00 0.  1.
</event>
<event>
 5   0  0.4143600E+04  0.9118800E+02  0.7546771E-02  0.1180000E+00
      -11   -1    0    0    0    0  0.00000000000E+00  0.00000000000E+00  0.34996269501E-01  0.35000000000E-01  0.51099999109E-03 0. -1.
       11   -1    0    0    0    0 -0.00000000000E+00 -0.00000000000E+00 -0.34996269501E-01  0.35000000000E-01  0.51099999109E-03 0.  1.
       22    1    1    2    0    0  0.88489932485E-02 -0.88103155469E-03 -0.33137745283E-01  0.34310218019E-01  0.00000000000E+00 0.  1.
       22    1    1    2    0    0 -0.90328350282E-02  0.11051506352E-02  0.33780443549E-01  0.34984737143E-01  0.00000000000E+00 0. -1.
       22    1    1    2    0    0  0.18384177971E-03 -0.22411908054E-03 -0.64269826618E-03  0.70504483799E-03  0.00000000000E+00 0. -1.
</event>
<event>
 5   0  0.4143600E+04  0.9118800E+02  0.7546771E-02  0.1180000E+00
      -11   -1    0    0    0    0  0.00000000000E+00  0.00000000000E+00  0.34996269501E-01  0.35000000000E-01  0.51099999109E-03 0.  1.
       11   -1    0    0    0    0 -0.00000000000E+00 -0.00000000000E+00 -0.34996269501E-01  0.35000000000E-01  0.51099999109E-03 0. -1.
       22    1    1    2    0    0  0.34551617606E-03 -0.11755953950E-03  0.78257213254E-02  0.78342272073E-02  0.00000000000E+00 0. -1.
       22    1    1    2    0    0 -0.74980498692E-02  0.21213706596E-01  0.17451042964E-01  0.28474216405E-01  0.00000000000E+00 0. -1.
       22    1    1    2    0    0  0.71525336932E-02 -0.21096147056E-01 -0.25276764289E-01  0.33691556387E-01  0.00000000000E+00 0.  1.
</event>
<event>
 5   0  0.4143600E+04  0.9118800E+02  0.7546771E-02  0.1180000E+00
      -11   -1    0    0    0    0  0.00000000000E+00  0.00000000000E+00  0.34996269501E-01  0.35000000000E-01  0.51099999109E-03 0.  1.
       11   -1    0    0    0    0 -0.00000000000E+00 -0.00000000000E+00 -0.34996269501E-01  0.35000000000E-01  0.51099999109E-03 0. -1.
       22    1    1    2    0    0  0.48985606024E-02 -0.15721816110E-01 -0.17779922287E-01  0.24234212063E-01  0.00000000000E+00 0. -1.
       22    1    1    2    0    0 -0.20276372876E-02  0.95654044853E-03 -0.12103948442E-01  0.12309827394E-01  0.00000000000E+00 0. -1.
       22    1    1    2    0    0 -0.28709233148E-02  0.14765275662E-01  0.29883870729E-01  0.33455960542E-01  0.00000000000E+00 0.  1.
</event>
<event>
 5   0  0.4143600E+04  0.9118800E+02  0.7546771E-02  0.1180000E+00
      -11   -1    0    0    0    0  0.00000000000E+00  0.00000000000E+00  0.34996269501E-01  0.35000000000E-01  0.51099999109E-03 0.  1.
       11   -1    0    0    0    0 -0.00000000000E+00 -0.00000000000E+00 -0.34996269501E-01  0.35000000000E-01  0.51099999109E-03 0. -1.
       22    1    1    2    0    0  0.43831940787E-03 -0.21955541588E-02 -0.59176251562E-02  0.63269952945E-02  0.00000000000E+00 0. -1.
       22    1    1    2    0    0 -0.28111936546E-01 -0.12218666470E-01  0.99132546227E-02  0.32215670160E-01  0.00000000000E+00 0.  1.
       22    1    1    2    0    0  0.27673617138E-01  0.14414220629E-01 -0.39956294665E-02  0.31457334545E-01  0.00000000000E+00 0. -1.
</event>
<event>
 5   0  0.4143600E+04  0.9118800E+02  0.7546771E-02  0.1180000E+00
      -11   -1    0    0    0    0  0.00000000000E+00  0.00000000000E+00  0.34996269501E-01  0.35000000000E-01  0.51099999109E-03 0. -1.
       11   -1    0    0    0    0 -0.00000000000E+00 -0.00000000000E+00 -0.34996269501E-01  0.35000000000E-01  0.51099999109E-03 0.  1.
       22    1    1    2    0    0  0.28513962589E-03  0.66058172902E-03  0.27778531967E-02  0.28695193342E-02  0.00000000000E+00 0. -1.
       22    1    1    2    0    0 -0.19463666557E-02 -0.21446101311E-01 -0.27410177150E-01  0.34857444198E-01  0.00000000000E+00 0.  1.
       22    1    1    2    0    0  0.16612270299E-02  0.20785519582E-01  0.24632323954E-01  0.32273036468E-01  0.00000000000E+00 0. -1.
</event>
<event>
 5   0  0.4143600E+04  0.9118800E+02  0.7546771E-02  0.1180000E+00
      -11   -1    0    0    0    0  0.00000000000E+00  0.00000000000E+00  0.34996269501E-01  0.35000000000E-01  0.51099999109E-03 0. -1.
       11   -1    0    0    0    0 -0.00000000000E+00 -0.00000000000E+00 -0.34996269501E-01  0.35000000000E-01  0.51099999109E-03 0.  1.
       22    1    1    2    0    0  0.94707543708E-03  0.17484729469E-02 -0.25674676761E-01  0.25751565706E-01  0.00000000000E+00 0.  1.
       22    1    1    2    0    0  0.36420169907E-02  0.20820427668E-02  0.33856586546E-01  0.34115504428E-01  0.00000000000E+00 0. -1.
       22    1    1    2    0    0 -0.45890924278E-02 -0.38305157137E-02 -0.81819097846E-02  0.10132929866E-01  0.00000000000E+00 0.  1.
</event>
<event>
 5   0  0.4143600E+04  0.9118800E+02  0.7546771E-02  0.1180000E+00
      -11   -1    0    0    0    0  0.00000000000E+00  0.00000000000E+00  0.34996269501E-01  0.35000000000E-01  0.51099999109E-03 0.  1.
       11   -1    0    0    0    0 -0.00000000000E+00 -0.00000000000E+00 -0.34996269501E-01  0.35000000000E-01  0.51099999109E-03 0. -1.
       22    1    1    2    0    0  0.11989332134E-02  0.27084614090E-03  0.34826362611E-01  0.34848046304E-01  0.00000000000E+00 0.  1.
       22    1    1    2    0    0 -0.85108240707E-03 -0.62277867784E-04 -0.96512862260E-03  0.12882907492E-02  0.00000000000E+00 0. -1.
       22    1    1    2    0    0 -0.34785080629E-03 -0.20856827311E-03 -0.33861233989E-01  0.33863662946E-01  0.00000000000E+00 0. -1.
</event>
<event>
 5   0  0.4143600E+04  0.9118800E+02  0.7546771E-02  0.1180000E+00
      -11   -1    0    0    0    0  0.00000000000E+00  0.00000000000E+00  0.34996269501E-01  0.35000000000E-01  0.51099999109E-03 0. -1.
       11   -1    0    0    0    0 -0.00000000000E+00 -0.00000000000E+00 -0.34996269501E-01  0.35000000000E-01  0.51099999109E-03 0.  1.
       22    1    1    2    0    0  0.44198703997E-02 -0.17046118728E-02 -0.32620634771E-01  0.32962808874E-01  0.00000000000E+00 0.  1.
       22    1    1    2    0    0 -0.83343850890E-03  0.16271729374E-03 -0.20127148793E-02  0.21845177617E-02  0.00000000000E+00 0. -1.
       22    1    1    2    0    0 -0.35864318908E-02  0.15418945791E-02  0.34633349651E-01  0.34852673364E-01  0.00000000000E+00 0. -1.
</event>
<event>
 5   0  0.4143600E+04  0.9118800E+02  0.7546771E-02  0.1180000E+00
      -11   -1    0    0    0    0  0.00000000000E+00  0.00000000000E+00  0.34996269501E-01  0.35000000000E-01  0.51099999109E-03 0.  1.
       11   -1    0    0    0    0 -0.00000000000E+00 -0.00000000000E+00 -0.34996269501E-01  0.35000000000E-01  0.51099999109E-03 0. -1.
       22    1    1    2    0    0 -0.20925326548E-01 -0.50500150350E-02 -0.27111580978E-01  0.34618055493E-01  0.00000000000E+00 0. -1.
       22    1    1    2    0    0  0.21194149611E-01  0.49365186173E-02  0.27387388155E-01  0.34980426295E-01  0.00000000000E+00 0.  1.
       22    1    1    2    0    0 -0.26882306244E-03  0.11349641771E-03 -0.27580717761E-03  0.40151821248E-03  0.00000000000E+00 0. -1.
</event>
<event>
 5   0  0.4143600E+04  0.9118800E+02  0.7546771E-02  0.1180000E+00
      -11   -1    0    0    0    0  0.00000000000E+00  0.00000000000E+00  0.34996269501E-01  0.35000000000E-01  0.51099999109E-03 0.  1.
       11   -1    0    0    0    0 -0.00000000000E+00 -0.00000000000E+00 -0.34996269501E-01  0.35000000000E-01  0.51099999109E-03 0. -1.
       22    1    1    2    0    0 -0.86676751111E-02 -0.35408404662E-02  0.24704372483E-01  0.26419162795E-01  0.00000000000E+00 0.  1.
       22    1    1    2    0    0  0.78396967467E-02 -0.76309692577E-02  0.48554652354E-02  0.11969464464E-01  0.00000000000E+00 0.  1.
       22    1    1    2    0    0  0.82797836439E-03  0.11171809724E-01 -0.29559837718E-01  0.31611372741E-01  0.00000000000E+00 0. -1.
</event>
<event>
 5   0  0.4143600E+04  0.9118800E+02  0.7546771E-02  0.1180000E+00
      -11   -1    0    0    0    0  0.00000000000E+00  0.00000000000E+00  0.34996269501E-01  0.35000000000E-01  0.51099999109E-03 0. -1.
       11   -1    0    0    0    0 -0.00000000000E+00 -0.00000000000E+00 -0.34996269501E-01  0.35000000000E-01  0.51099999109E-03 0.  1.
       22    1    1    2    0    0 -0.21871896614E-04  0.21013045189E-03 -0.85165440056E-03  0.87746703908E-03  0.00000000000E+00 0.  1.
       22    1    1    2    0    0 -0.19197243894E-01 -0.12213917884E-01 -0.25627856351E-01  0.34270993338E-01  0.00000000000E+00 0.  1.
       22    1    1    2    0    0  0.19219115791E-01  0.12003787432E-01  0.26479510751E-01  0.34851539623E-01  0.00000000000E+00 0. -1.
</event>
<event>
 5   0  0.4143600E+04  0.9118800E+02  0.7546771E-02  0.1180000E+00
      -11   -1    0    0    0    0  0.00000000000E+00  0.00000000000E+00  0.34996269501E-01  0.35000000000E-01  0.51099999109E-03 0. -1.
       11   -1    0    0    0    0 -0.00000000000E+00 -0.00000000000E+00 -0.34996269501E-01  0.35000000000E-01  0.51099999109E-03 0.  1.
       22    1    1    2    0    0 -0.51711004459E-03  0.97222331637E-02  0.26163422935E-01  0.27916194586E-01  0.00000000000E+00 0. -1.
       22    1    1    2    0    0  0.11121659205E-01 -0.80432941782E-02  0.83688840525E-04  0.13725628894E-01  0.00000000000E+00 0.  1.
       22    1    1    2    0    0 -0.10604549161E-01 -0.16789389855E-02 -0.26247111775E-01  0.28358176520E-01  0.00000000000E+00 0.  1.
</event>
<event>
 5   0  0.4143600E+04  0.9118800E+02  0.7546771E-02  0.1180000E+00
      -11   -1    0    0    0    0  0.00000000000E+00  0.00000000000E+00  0.34996269501E-01  0.35000000000E-01  0.51099999109E-03 0. -1.
       11   -1    0    0    0    0 -0.00000000000E+00 -0.00000000000E+00 -0.34996269501E-01  0.35000000000E-01  0.51099999109E-03 0.  1.
       22    1    1    2    0    0  0.10092314505E-01 -0.84083236410E-03 -0.28139707057E-01  0.29906603358E-01  0.00000000000E+00 0.  1.
       22    1    1    2    0    0 -0.69975810635E-02  0.18282599642E-02  0.33255777683E-01  0.34033151846E-01  0.00000000000E+00 0. -1.
       22    1    1    2    0    0 -0.30947334414E-02 -0.98742760008E-03 -0.51160706265E-02  0.60602447965E-02  0.00000000000E+00 0. -1.
</event>
<event>
 5   0  0.4143600E+04  0.9118800E+02  0.7546771E-02  0.1180000E+00
      -11   -1    0    0    0    0  0.00000000000E+00  0.00000000000E+00  0.34996269501E-01  0.35000000000E-01  0.51099999109E-03 0.  1.
       11   -1    0    0    0    0 -0.00000000000E+00 -0.00000000000E+00 -0.34996269501E-01  0.35000000000E-01  0.51099999109E-03 0. -1.
       22    1    1    2    0    0  0.15049236292E-01  0.12603786374E-01 -0.28858004777E-01  0.34901567066E-01  0.00000000000E+00 0. -1.
       22    1    1    2    0    0 -0.15210490106E-01 -0.12499947577E-01  0.28060982067E-01  0.34278658276E-01  0.00000000000E+00 0.  1.
       22    1    1    2    0    0  0.16125381398E-03 -0.10383879721E-03  0.79702271061E-03  0.81977465779E-03  0.00000000000E+00 0. -1.
</event>
<event>
 5   0  0.4143600E+04  0.9118800E+02  0.7546771E-02  0.1180000E+00
      -11   -1    0    0    0    0  0.00000000000E+00  0.00000000000E+00  0.34996269501E-01  0.35000000000E-01  0.51099999109E-03 0. -1.
       11   -1    0    0    0    0 -0.00000000000E+00 -0.00000000000E+00 -0.34996269501E-01  0.35000000000E-01  0.51099999109E-03 0.  1.
       22    1    1    2    0    0 -0.32428409076E-03 -0.13967759556E-03  0.35964813262E-03  0.50400077532E-03  0.00000000000E+00 0. -1.
       22    1    1    2    0    0  0.18897907734E-01 -0.15574014580E-01 -0.24911074607E-01  0.34931969382E-01  0.00000000000E+00 0.  1.
       22    1    1    2    0    0 -0.18573623643E-01  0.15713692176E-01  0.24551426474E-01  0.34564029842E-01  0.00000000000E+00 0. -1.
</event>
<event>
 5   0  0.4143600E+04  0.9118800E+02  0.7546771E-02  0.1180000E+00
      -11   -1    0    0    0    0  0.00000000000E+00  0.00000000000E+00  0.34996269501E-01  0.35000000000E-01  0.51099999109E-03 0.  1.
       11   -1    0    0    0    0 -0.00000000000E+00 -0.00000000000E+00 -0.34996269501E-01  0.35000000000E-01  0.51099999109E-03 0. -1.
       22    1    1    2    0    0  0.46493239536E-04 -0.14567053013E-03 -0.51873839684E-03  0.54080592548E-03  0.00000000000E+00 0.  1.
       22    1    1    2    0    0 -0.11507584104E-01 -0.68414210530E-02  0.32297297961E-01  0.34962050706E-01  0.00000000000E+00 0.  1.
       22    1    1    2    0    0  0.11461090865E-01  0.69870915831E-02 -0.31778559565E-01  0.34497143369E-01  0.00000000000E+00 0. -1.
</event>
<event>
 5   0  0.4143600E+04  0.9118800E+02  0.7546771E-02  0.1180000E+00
      -11   -1    0    0    0    0  0.00000000000E+00  0.00000000000E+00  0.34996269501E-01  0.35000000000E-01  0.51099999109E-03 0.  1.
       11   -1    0    0    0    0 -0.00000000000E+00 -0.00000000000E+00 -0.34996269501E-01  0.35000000000E-01  0.51099999109E-03 0. -1.
       22    1    1    2    0    0 -0.61534711130E-04 -0.10364865361E-04  0.16425388186E-02  0.16437237364E-02  0.00000000000E+00 0. -1.
       22    1    1    2    0    0  0.10392683775E-01 -0.14173088170E-01  0.28497039667E-01  0.33480823976E-01  0.00000000000E+00 0.  1.
       22    1    1    2    0    0 -0.10331149064E-01  0.14183453035E-01 -0.30139578486E-01  0.34875452288E-01  0.00000000000E+00 0. -1.
</event>
<event>
 5   0  0.4143600E+04  0.9118800E+02  0.7546771E-02  0.1180000E+00
      -11   -1    0    0    0    0  0.00000000000E+00  0.00000000000E+00  0.34996269501E-01  0.35000000000E-01  0.51099999109E-03 0.  1.
       11   -1    0    0    0    0 -0.00000000000E+00 -0.00000000000E+00 -0.34996269501E-01  0.35000000000E-01  0.51099999109E-03 0. -1.
       22    1    1    2    0    0  0.18217380705E-03  0.32102054945E-02  0.34734197894E-01  0.34882705027E-01  0.00000000000E+00 0.  1.
       22    1    1    2    0    0 -0.25243009526E-03 -0.11976409890E-02 -0.21738505414E-02  0.24947326647E-02  0.00000000000E+00 0.  1.
       22    1    1    2    0    0  0.70256288208E-04 -0.20125645054E-02 -0.32560347353E-01  0.32622562309E-01  0.00000000000E+00 0. -1.
</event>
<event>
 5   0  0.4143600E+04  0.9118800E+02  0.7546771E-02  0.1180000E+00
      -11   -1    0    0    0    0  0.00000000000E+00  0.00000000000E+00  0.34996269501E-01  0.35000000000E-01  0.51099999109E-03 0.  1.
       11   -1    0    0    0    0 -0.00000000000E+00 -0.00000000000E+00 -0.34996269501E-01  0.35000000000E-01  0.51099999109E-03 0. -1.
       22    1    1    2    0    0 -0.84637619464E-03 -0.89723206492E-03  0.32702343130E-01  0.32725595858E-01  0.00000000000E+00 0.  1.
       22    1    1    2    0    0  0.83742579767E-02 -0.31986810210E-02 -0.20384985540E-01  0.22268978252E-01  0.00000000000E+00 0. -1.
       22    1    1    2    0    0 -0.75278817821E-02  0.40959130859E-02 -0.12317357591E-01  0.15005425890E-01  0.00000000000E+00 0.  1.
</event>
<event>
 5   0  0.4143600E+04  0.9118800E+02  0.7546771E-02  0.1180000E+00
      -11   -1    0    0    0    0  0.00000000000E+00  0.00000000000E+00  0.34996269501E-01  0.35000000000E-01  0.51099999109E-03 0. -1.
       11   -1    0    0    0    0 -0.00000000000E+00 -0.00000000000E+00 -0.34996269501E-01  0.35000000000E-01  0.51099999109E-03 0. -1.
       22    1    1    2    0    0 -0.10195615465E-02 -0.29775750852E-02 -0.27389334594E-01  0.27569568525E-01  0.00000000000E+00 0. -1.
       22    1    1    2    0    0  0.10195615465E-02  0.29775750852E-02 -0.71923256932E-02  0.78507966482E-02  0.00000000000E+00 0.  1.
       22    1    1    2    0    0  0.00000000000E+00 -0.00000000000E+00  0.34581660287E-01  0.34579634827E-01  0.00000000000E+00 0. -1.
</event>
<event>
 5   0  0.4143600E+04  0.9118800E+02  0.7546771E-02  0.1180000E+00
      -11   -1    0    0    0    0  0.00000000000E+00  0.00000000000E+00  0.34996269501E-01  0.35000000000E-01  0.51099999109E-03 0. -1.
       11   -1    0    0    0    0 -0.00000000000E+00 -0.00000000000E+00 -0.34996269501E-01  0.35000000000E-01  0.51099999109E-03 0.  1.
       22    1    1    2    0    0 -0.16642262924E-04  0.39053530796E-04  0.64453726155E-03  0.64593376186E-03  0.00000000000E+00 0.  1.
       22    1    1    2    0    0 -0.11845201975E-01  0.77242246621E-02  0.31332295885E-01  0.34375648676E-01  0.00000000000E+00 0. -1.
       22    1    1    2    0    0  0.11861844238E-01 -0.77632781929E-02 -0.31976833147E-01  0.34978417562E-01  0.00000000000E+00 0.  1.
</event>
<event>
 5   0  0.4143600E+04  0.9118800E+02  0.7546771E-02  0.1180000E+00
      -11   -1    0    0    0    0  0.00000000000E+00  0.00000000000E+00  0.34996269501E-01  0.35000000000E-01  0.51099999109E-03 0.  1.
       11   -1    0    0    0    0 -0.00000000000E+00 -0.00000000000E+00 -0.34996269501E-01  0.35000000000E-01  0.51099999109E-03 0.  1.
       22    1    1    2    0    0  0.29559565295E-03  0.27720138404E-03 -0.34470204571E-01  0.34472586509E-01  0.00000000000E+00 0.  1.
       22    1    1    2    0    0 -0.00000000000E+00 -0.00000000000E+00  0.34921839953E-01  0.34920625295E-01  0.00000000000E+00 0.  1.
       22    1    1    2    0    0 -0.29559565295E-03 -0.27720138404E-03 -0.45163538166E-03  0.60678819643E-03  0.00000000000E+00 0. -1.
</event>
<event>
 5   0  0.4143600E+04  0.9118800E+02  0.7546771E-02  0.1180000E+00
      -11   -1    0    0    0    0  0.00000000000E+00  0.00000000000E+00  0.34996269501E-01  0.35000000000E-01  0.51099999109E-03 0.  1.
       11   -1    0    0    0    0 -0.00000000000E+00 -0.00000000000E+00 -0.34996269501E-01  0.35000000000E-01  0.51099999109E-03 0. -1.
       22    1    1    2    0    0 -0.23834941326E-02 -0.13775264928E-02  0.33243987715E-01  0.33357777844E-01  0.00000000000E+00 0.  1.
       22    1    1    2    0    0 -0.61497807287E-02  0.12088255705E-02 -0.19314011924E-01  0.20305470171E-01  0.00000000000E+00 0. -1.
       22    1    1    2    0    0  0.85332748613E-02  0.16870092238E-03 -0.13929975791E-01  0.16336751985E-01  0.00000000000E+00 0.  1.
</event>
<event>
 5   0  0.4143600E+04  0.9118800E+02  0.7546771E-02  0.1180000E+00
      -11   -1    0    0    0    0  0.00000000000E+00  0.00000000000E+00  0.34996269501E-01  0.35000000000E-01  0.51099999109E-03 0. -1.
       11   -1    0    0    0    0 -0.00000000000E+00 -0.00000000000E+00 -0.34996269501E-01  0.35000000000E-01  0.51099999109E-03 0.  1.
       22    1    1    2    0    0  0.99436612660E-02 -0.17273885360E-01  0.22529299261E-01  0.30080439491E-01  0.00000000000E+00 0. -1.
       22    1    1    2    0    0 -0.10662298880E-01  0.17750050138E-01 -0.27752408640E-01  0.34625786383E-01  0.00000000000E+00 0.  1.
       22    1    1    2    0    0  0.71863761438E-03 -0.47616477844E-03  0.52231093784E-02  0.52937741259E-02  0.00000000000E+00 0. -1.
</event>
<event>
 5   0  0.4143600E+04  0.9118800E+02  0.7546771E-02  0.1180000E+00
      -11   -1    0    0    0    0  0.00000000000E+00  0.00000000000E+00  0.34996269501E-01  0.35000000000E-01  0.51099999109E-03 0.  1.
       11   -1    0    0    0    0 -0.00000000000E+00 -0.00000000000E+00 -0.34996269501E-01  0.35000000000E-01  0.51099999109E-03 0. -1.
       22    1    1    2    0    0  0.50332593750E-02 -0.31630591411E-02  0.34437541564E-01  0.34946858400E-01  0.00000000000E+00 0.  1.
       22    1    1    2    0    0 -0.45697452667E-02  0.22235019897E-02 -0.31984828818E-01  0.32386043405E-01  0.00000000000E+00 0. -1.
       22    1    1    2    0    0 -0.46351410831E-03  0.93955715143E-03 -0.24527127455E-02  0.26670981949E-02  0.00000000000E+00 0.  1.
</event>
<event>
 5   0  0.4143600E+04  0.9118800E+02  0.7546771E-02  0.1180000E+00
      -11   -1    0    0    0    0  0.00000000000E+00  0.00000000000E+00  0.34996269501E-01  0.35000000000E-01  0.51099999109E-03 0. -1.
       11   -1    0    0    0    0 -0.00000000000E+00 -0.00000000000E+00 -0.34996269501E-01  0.35000000000E-01  0.51099999109E-03 0.  1.
       22    1    1    2    0    0 -0.22941949807E-01  0.22815503990E-01 -0.76759949862E-02  0.33253589013E-01  0.00000000000E+00 0.  1.
       22    1    1    2    0    0  0.25463005978E-02 -0.19050536145E-02 -0.41541545689E-02  0.52316227110E-02  0.00000000000E+00 0. -1.
       22    1    1    2    0    0  0.20395649209E-01 -0.20910450375E-01  0.11830149555E-01  0.31514788276E-01  0.00000000000E+00 0. -1.
</event>
<event>
 5   0  0.4143600E+04  0.9118800E+02  0.7546771E-02  0.1180000E+00
      -11   -1    0    0    0    0  0.00000000000E+00  0.00000000000E+00  0.34996269501E-01  0.35000000000E-01  0.51099999109E-03 0. -1.
       11   -1    0    0    0    0 -0.00000000000E+00 -0.00000000000E+00 -0.34996269501E-01  0.35000000000E-01  0.51099999109E-03 0.  1.
       22    1    1    2    0    0 -0.24075810123E-03  0.40778743659E-04 -0.71346312835E-03  0.75409349868E-03  0.00000000000E+00 0.  1.
       22    1    1    2    0    0  0.21165221814E-01  0.87382485578E-02  0.26416678327E-01  0.34959469334E-01  0.00000000000E+00 0. -1.
       22    1    1    2    0    0 -0.20924463713E-01 -0.87790273014E-02 -0.25703215199E-01  0.34286437167E-01  0.00000000000E+00 0.  1.
</event>
<event>
 5   0  0.4143600E+04  0.9118800E+02  0.7546771E-02  0.1180000E+00
      -11   -1    0    0    0    0  0.00000000000E+00  0.00000000000E+00  0.34996269501E-01  0.35000000000E-01  0.51099999109E-03 0.  1.
       11   -1    0    0    0    0 -0.00000000000E+00 -0.00000000000E+00 -0.34996269501E-01  0.35000000000E-01  0.51099999109E-03 0. -1.
       22    1    1    2    0    0  0.89300404053E-02 -0.82096723821E-02  0.32782578738E-01  0.34954853898E-01  0.00000000000E+00 0.  1.
       22    1    1    2    0    0  0.10816010973E-04 -0.13204574967E-03 -0.67561858132E-03  0.68848640765E-03  0.00000000000E+00 0. -1.
       22    1    1    2    0    0 -0.89408564163E-02  0.83417181317E-02 -0.32106960157E-01  0.34356659695E-01  0.00000000000E+00 0. -1.
</event>
<event>
 5   0  0.4143600E+04  0.9118800E+02  0.7546771E-02  0.1180000E+00
      -11   -1    0    0    0    0  0.00000000000E+00  0.00000000000E+00  0.34996269501E-01  0.35000000000E-01  0.51099999109E-03 0.  1.
       11   -1    0    0    0    0 -0.00000000000E+00 -0.00000000000E+00 -0.34996269501E-01  0.35000000000E-01  0.51099999109E-03 0. -1.
       22    1    1    2    0    0  0.25367278156E-03 -0.28360345806E-03 -0.99777255876E-03  0.10678627630E-02  0.00000000000E+00 0. -1.
       22    1    1    2    0    0 -0.41130326154E-03 -0.15569542746E-02 -0.33923669208E-01  0.33961869935E-01  0.00000000000E+00 0. -1.
       22    1    1    2    0    0  0.15763047998E-03  0.18405577327E-02  0.34921441766E-01  0.34970267302E-01  0.00000000000E+00 0.  1.
</event>
<event>
 5   0  0.4143600E+04  0.9118800E+02  0.7546771E-02  0.1180000E+00
      -11   -1    0    0    0    0  0.00000000000E+00  0.00000000000E+00  0.34996269501E-01  0.35000000000E-01  0.51099999109E-03 0. -1.
       11   -1    0    0    0    0 -0.00000000000E+00 -0.00000000000E+00 -0.34996269501E-01  0.35000000000E-01  0.51099999109E-03 0.  1.
       22    1    1    2    0    0 -0.87272883474E-02  0.94740604500E-02  0.32469464881E-01  0.34931211444E-01  0.00000000000E+00 0. -1.
       22    1    1    2    0    0  0.71228980154E-03 -0.13161297239E-02 -0.68663781858E-02  0.70275674029E-02  0.00000000000E+00 0.  1.
       22    1    1    2    0    0  0.80149985459E-02 -0.81579307261E-02 -0.25603086695E-01  0.28041221153E-01  0.00000000000E+00 0.  1.
</event>
<event>
 5   0  0.4143600E+04  0.9118800E+02  0.7546771E-02  0.1180000E+00
      -11   -1    0    0    0    0  0.00000000000E+00  0.00000000000E+00  0.34996269501E-01  0.35000000000E-01  0.51099999109E-03 0. -1.
       11   -1    0    0    0    0 -0.00000000000E+00 -0.00000000000E+00 -0.34996269501E-01  0.35000000000E-01  0.51099999109E-03 0.  1.
       22    1    1    2    0    0  0.77211499504E-03  0.12522115716E-01 -0.30177240158E-01  0.32681269362E-01  0.00000000000E+00 0.  1.
       22    1    1    2    0    0 -0.68744205824E-03 -0.12337106855E-01  0.32612594290E-01  0.34874891949E-01  0.00000000000E+00 0. -1.
       22    1    1    2    0    0 -0.84672936795E-04 -0.18500886072E-03 -0.24353541328E-02  0.24438386888E-02  0.00000000000E+00 0. -1.
</event>
<event>
 5   0  0.4143600E+04  0.9118800E+02  0.7546771E-02  0.1180000E+00
      -11   -1    0    0    0    0  0.00000000000E+00  0.00000000000E+00  0.34996269501E-01  0.35000000000E-01  0.51099999109E-03 0.  1.
       11   -1    0    0    0    0 -0.00000000000E+00 -0.00000000000E+00 -0.34996269501E-01  0.35000000000E-01  0.51099999109E-03 0. -1.
       22    1    1    2    0    0 -0.77526443411E-02  0.33667076010E-01  0.46148791172E-02  0.34855022746E-01  0.00000000000E+00 0.  1.
       22    1    1    2    0    0  0.20090048930E-03 -0.45769130091E-04 -0.37269141988E-03  0.42585762213E-03  0.00000000000E+00 0. -1.
       22    1    1    2    0    0  0.75517438518E-02 -0.33621306880E-01 -0.42421876973E-02  0.34719119632E-01  0.00000000000E+00 0. -1.
</event>
<event>
 5   0  0.4143600E+04  0.9118800E+02  0.7546771E-02  0.1180000E+00
      -11   -1    0    0    0    0  0.00000000000E+00  0.00000000000E+00  0.34996269501E-01  0.35000000000E-01  0.51099999109E-03 0.  1.
       11   -1    0    0    0    0 -0.00000000000E+00 -0.00000000000E+00 -0.34996269501E-01  0.35000000000E-01  0.51099999109E-03 0. -1.
       22    1    1    2    0    0 -0.84865466463E-04  0.42898486880E-04  0.19692395976E-02  0.19715341794E-02  0.00000000000E+00 0.  1.
       22    1    1    2    0    0  0.59414199945E-02 -0.17706351277E-01  0.27459893305E-01  0.33209352409E-01  0.00000000000E+00 0.  1.
       22    1    1    2    0    0 -0.58565545280E-02  0.17663452790E-01 -0.29429132903E-01  0.34819113412E-01  0.00000000000E+00 0. -1.
</event>
<event>
 5   0  0.4143600E+04  0.9118800E+02  0.7546771E-02  0.1180000E+00
      -11   -1    0    0    0    0  0.00000000000E+00  0.00000000000E+00  0.34996269501E-01  0.35000000000E-01  0.51099999109E-03 0. -1.
       11   -1    0    0    0    0 -0.00000000000E+00 -0.00000000000E+00 -0.34996269501E-01  0.35000000000E-01  0.51099999109E-03 0. -1.
       22    1    1    2    0    0  0.00000000000E+00 -0.00000000000E+00  0.96949053482E-02  0.96939288354E-02  0.00000000000E+00 0. -1.
       22    1    1    2    0    0  0.91350336059E-02 -0.97860627183E-02 -0.31777642080E-01  0.34482378089E-01  0.00000000000E+00 0. -1.
       22    1    1    2    0    0 -0.91350336059E-02  0.97860627183E-02  0.22082736732E-01  0.25823693076E-01  0.00000000000E+00 0.  1.
</event>
<event>
 5   0  0.4143600E+04  0.9118800E+02  0.7546771E-02  0.1180000E+00
      -11   -1    0    0    0    0  0.00000000000E+00  0.00000000000E+00  0.34996269501E-01  0.35000000000E-01  0.51099999109E-03 0.  1.
       11   -1    0    0    0    0 -0.00000000000E+00 -0.00000000000E+00 -0.34996269501E-01  0.35000000000E-01  0.51099999109E-03 0.  1.
       22    1    1    2    0    0 -0.91895542145E-02 -0.22392810643E-01 -0.24454900342E-01  0.34408255200E-01  0.00000000000E+00 0.  1.
       22    1    1    2    0    0  0.91589378805E-02  0.22346281966E-01  0.20617996036E-01  0.31754436247E-01  0.00000000000E+00 0. -1.
       22    1    1    2    0    0  0.30616333974E-04  0.46528676890E-04  0.38369043062E-02  0.38373085533E-02  0.00000000000E+00 0.  1.
</event>
<event>
 5   0  0.4143600E+04  0.9118800E+02  0.7546771E-02  0.1180000E+00
      -11   -1    0    0    0    0  0.00000000000E+00  0.00000000000E+00  0.34996269501E-01  0.35000000000E-01  0.51099999109E-03 0.  1.
       11   -1    0    0    0    0 -0.00000000000E+00 -0.00000000000E+00 -0.34996269501E-01  0.35000000000E-01  0.51099999109E-03 0. -1.
       22    1    1    2    0    0  0.63963043886E-03 -0.10661226331E-02 -0.36112080758E-02  0.38192366166E-02  0.00000000000E+00 0. -1.
       22    1    1    2    0    0  0.30319176415E-03  0.32515855728E-02 -0.31158758100E-01  0.31329426109E-01  0.00000000000E+00 0. -1.
       22    1    1    2    0    0 -0.94282220302E-03 -0.21854629397E-02  0.34769966176E-01  0.34851337275E-01  0.00000000000E+00 0.  1.
</event>
<event>
 5   0  0.4143600E+04  0.9118800E+02  0.7546771E-02  0.1180000E+00
      -11   -1    0    0    0    0  0.00000000000E+00  0.00000000000E+00  0.34996269501E-01  0.35000000000E-01  0.51099999109E-03 0. -1.
       11   -1    0    0    0    0 -0.00000000000E+00 -0.00000000000E+00 -0.34996269501E-01  0.35000000000E-01  0.51099999109E-03 0. -1.
       22    1    1    2    0    0 -0.56834583882E-06 -0.24379858848E-03 -0.34659208623E-01  0.34660066077E-01  0.00000000000E+00 0. -1.
       22    1    1    2    0    0 -0.00000000000E+00 -0.00000000000E+00  0.34957784291E-01  0.34954466020E-01  0.00000000000E+00 0. -1.
       22    1    1    2    0    0  0.56834583882E-06  0.24379858848E-03 -0.29857566767E-03  0.38546790280E-03  0.00000000000E+00 0.  1.
</event>
<event>
 5   0  0.4143600E+04  0.9118800E+02  0.7546771E-02  0.1180000E+00
      -11   -1    0    0    0    0  0.00000000000E+00  0.00000000000E+00  0.34996269501E-01  0.35000000000E-01  0.51099999109E-03 0. -1.
       11   -1    0    0    0    0 -0.00000000000E+00 -0.00000000000E+00 -0.34996269501E-01  0.35000000000E-01  0.51099999109E-03 0.  1.
       22    1    1    2    0    0  0.67192759611E-04  0.71250439005E-04 -0.54566766380E-03  0.55438677051E-03  0.00000000000E+00 0.  1.
       22    1    1    2    0    0 -0.11457245723E-01 -0.17256896276E-01 -0.27629868922E-01  0.34532283522E-01  0.00000000000E+00 0.  1.
       22    1    1    2    0    0  0.11390052963E-01  0.17185645837E-01  0.28175536586E-01  0.34913329707E-01  0.00000000000E+00 0. -1.
</event>
<event>
 5   0  0.4143600E+04  0.9118800E+02  0.7546771E-02  0.1180000E+00
      -11   -1    0    0    0    0  0.00000000000E+00  0.00000000000E+00  0.34996269501E-01  0.35000000000E-01  0.51099999109E-03 0.  1.
       11   -1    0    0    0    0 -0.00000000000E+00 -0.00000000000E+00 -0.34996269501E-01  0.35000000000E-01  0.51099999109E-03 0. -1.
       22    1    1    2    0    0 -0.40514850120E-02  0.54361161978E-02 -0.60654682838E-02  0.90970212499E-02  0.00000000000E+00 0. -1.
       22    1    1    2    0    0 -0.94220224019E-02 -0.48746540870E-02  0.30885263193E-01  0.32656335390E-01  0.00000000000E+00 0.  1.
       22    1    1    2    0    0  0.13473507414E-01 -0.56146211075E-03 -0.24819794910E-01  0.28246643360E-01  0.00000000000E+00 0. -1.
</event>
<event>
 5   0  0.4143600E+04  0.9118800E+02  0.7546771E-02  0.1180000E+00
      -11   -1    0    0    0    0  0.00000000000E+00  0.00000000000E+00  0.34996269501E-01  0.35000000000E-01  0.51099999109E-03 0. -1.
       11   -1    0    0    0    0 -0.00000000000E+00 -0.00000000000E+00 -0.34996269501E-01  0.35000000000E-01  0.51099999109E-03 0.  1.
       22    1    1    2    0    0 -0.13491494473E-01  0.74646490444E-02  0.53359529441E-02  0.16316059643E-01  0.00000000000E+00 0. -1.
       22    1    1    2    0    0  0.75720660283E-02  0.42544798119E-02  0.21839446228E-01  0.23503152852E-01  0.00000000000E+00 0.  1.
       22    1    1    2    0    0  0.59194284444E-02 -0.11719128856E-01 -0.27175399172E-01  0.30180787505E-01  0.00000000000E+00 0.  1.
</event>
<event>
 5   0  0.4143600E+04  0.9118800E+02  0.7546771E-02  0.1180000E+00
      -11   -1    0    0    0    0  0.00000000000E+00  0.00000000000E+00  0.34996269501E-01  0.35000000000E-01  0.51099999109E-03 0. -1.
       11   -1    0    0    0    0 -0.00000000000E+00 -0.00000000000E+00 -0.34996269501E-01  0.35000000000E-01  0.51099999109E-03 0.  1.
       22    1    1    2    0    0 -0.24087173500E-02  0.10001346176E-02 -0.89462089810E-03  0.27572694966E-02  0.00000000000E+00 0. -1.
       22    1    1    2    0    0 -0.73905808761E-02 -0.10359960036E-01 -0.30499957352E-01  0.33048401718E-01  0.00000000000E+00 0.  1.
       22    1    1    2    0    0  0.97992982262E-02  0.93598254180E-02  0.31394578250E-01  0.34194328785E-01  0.00000000000E+00 0. -1.
</event>
<event>
 5   0  0.4143600E+04  0.9118800E+02  0.7546771E-02  0.1180000E+00
      -11   -1    0    0    0    0  0.00000000000E+00  0.00000000000E+00  0.34996269501E-01  0.35000000000E-01  0.51099999109E-03 0. -1.
       11   -1    0    0    0    0 -0.00000000000E+00 -0.00000000000E+00 -0.34996269501E-01  0.35000000000E-01  0.51099999109E-03 0.  1.
       22    1    1    2    0    0  0.55612816110E-03 -0.22770116774E-01  0.26386980360E-01  0.34857714052E-01  0.00000000000E+00 0. -1.
       22    1    1    2    0    0 -0.15593729029E-03  0.20543612342E-01 -0.21394708169E-01  0.29661386720E-01  0.00000000000E+00 0.  1.
       22    1    1    2    0    0 -0.40019087080E-03  0.22265044320E-02 -0.49922721907E-02  0.54808992278E-02  0.00000000000E+00 0.  1.
</event>
<event>
 5   0  0.4143600E+04  0.9118800E+02  0.7546771E-02  0.1180000E+00
      -11   -1    0    0    0    0  0.00000000000E+00  0.00000000000E+00  0.34996269501E-01  0.35000000000E-01  0.51099999109E-03 0.  1.
       11   -1    0    0    0    0 -0.00000000000E+00 -0.00000000000E+00 -0.34996269501E-01  0.35000000000E-01  0.51099999109E-03 0. -1.
       22    1    1    2    0    0 -0.37371720541E-02 -0.14901128393E-02 -0.26929571209E-01  0.27228453807E-01  0.00000000000E+00 0. -1.
       22    1    1    2    0    0 -0.18547189380E-02 -0.18577893872E-02  0.33449702134E-01  0.33552554845E-01  0.00000000000E+00 0.  1.
       22    1    1    2    0    0  0.55918909921E-02  0.33479022265E-02 -0.65201309252E-02  0.92189913476E-02  0.00000000000E+00 0. -1.
</event>
<event>
 5   0  0.4143600E+04  0.9118800E+02  0.7546771E-02  0.1180000E+00
      -11   -1    0    0    0    0  0.00000000000E+00  0.00000000000E+00  0.34996269501E-01  0.35000000000E-01  0.51099999109E-03 0.  1.
       11   -1    0    0    0    0 -0.00000000000E+00 -0.00000000000E+00 -0.34996269501E-01  0.35000000000E-01  0.51099999109E-03 0. -1.
       22    1    1    2    0    0  0.10899459338E-01  0.41630950699E-02 -0.30811667188E-01  0.32946751120E-01  0.00000000000E+00 0. -1.
       22    1    1    2    0    0 -0.11102641960E-01 -0.25750540182E-02  0.74045154714E-02  0.13591409458E-01  0.00000000000E+00 0.  1.
       22    1    1    2    0    0  0.20318262216E-03 -0.15880410517E-02  0.23407151717E-01  0.23461839422E-01  0.00000000000E+00 0.  1.
</event>
<event>
 5   0  0.4143600E+04  0.9118800E+02  0.7546771E-02  0.1180000E+00
      -11   -1    0    0    0    0  0.00000000000E+00  0.00000000000E+00  0.34996269501E-01  0.35000000000E-01  0.51099999109E-03 0.  1.
       11   -1    0    0    0    0 -0.00000000000E+00 -0.00000000000E+00 -0.34996269501E-01  0.35000000000E-01  0.51099999109E-03 0. -1.
       22    1    1    2    0    0 -0.34186210293E-02  0.40320134220E-02 -0.11050802591E-01  0.12250075097E-01  0.00000000000E+00 0. -1.
       22    1    1    2    0    0  0.39857814177E-02  0.33918896331E-02 -0.22644691523E-01  0.23241631246E-01  0.00000000000E+00 0. -1.
       22    1    1    2    0    0 -0.56716038840E-03 -0.74239030552E-02  0.33695494115E-01  0.34508293657E-01  0.00000000000E+00 0.  1.
</event>
<event>
 5   0  0.4143600E+04  0.9118800E+02  0.7546771E-02  0.1180000E+00
      -11   -1    0    0    0    0  0.00000000000E+00  0.00000000000E+00  0.34996269501E-01  0.35000000000E-01  0.51099999109E-03 0.  1.
       11   -1    0    0    0    0 -0.00000000000E+00 -0.00000000000E+00 -0.34996269501E-01  0.35000000000E-01  0.51099999109E-03 0. -1.
       22    1    1    2    0    0 -0.51783888373E-03 -0.44902772852E-03  0.34962779938E-01  0.34969497623E-01  0.00000000000E+00 0.  1.
       22    1    1    2    0    0 -0.25186089275E-03  0.52451044089E-04 -0.55389186042E-03  0.61072187971E-03  0.00000000000E+00 0.  1.
       22    1    1    2    0    0  0.76969977648E-03  0.39657668443E-03 -0.34408888077E-01  0.34419780498E-01  0.00000000000E+00 0. -1.
</event>
<event>
 5   0  0.4143600E+04  0.9118800E+02  0.7546771E-02  0.1180000E+00
      -11   -1    0    0    0    0  0.00000000000E+00  0.00000000000E+00  0.34996269501E-01  0.35000000000E-01  0.51099999109E-03 0. -1.
       11   -1    0    0    0    0 -0.00000000000E+00 -0.00000000000E+00 -0.34996269501E-01  0.35000000000E-01  0.51099999109E-03 0.  1.
       22    1    1    2    0    0 -0.17831314742E-02 -0.87995539917E-03 -0.85355380231E-03  0.21638931240E-02  0.00000000000E+00 0. -1.
       22    1    1    2    0    0 -0.12564414384E-01  0.10396345094E-01  0.29907152029E-01  0.34064442497E-01  0.00000000000E+00 0. -1.
       22    1    1    2    0    0  0.14347545858E-01 -0.95163896952E-02 -0.29053598227E-01  0.33771664379E-01  0.00000000000E+00 0.  1.
</event>
<event>
 5   0  0.4143600E+04  0.9118800E+02  0.7546771E-02  0.1180000E+00
      -11   -1    0    0    0    0  0.00000000000E+00  0.00000000000E+00  0.34996269501E-01  0.35000000000E-01  0.51099999109E-03 0.  1.
       11   -1    0    0    0    0 -0.00000000000E+00 -0.00000000000E+00 -0.34996269501E-01  0.35000000000E-01  0.51099999109E-03 0. -1.
       22    1    1    2    0    0  0.49669744922E-02  0.10711829986E-01 -0.24143455516E-01  0.26876022427E-01  0.00000000000E+00 0. -1.
       22    1    1    2    0    0 -0.10146654141E-01  0.24529052372E-02 -0.43521537245E-02  0.11309844225E-01  0.00000000000E+00 0. -1.
       22    1    1    2    0    0  0.51796796484E-02 -0.13164735223E-01  0.28495609240E-01  0.31814133348E-01  0.00000000000E+00 0.  1.
</event>
<event>
 5   0  0.4143600E+04  0.9118800E+02  0.7546771E-02  0.1180000E+00
      -11   -1    0    0    0    0  0.00000000000E+00  0.00000000000E+00  0.34996269501E-01  0.35000000000E-01  0.51099999109E-03 0.  1.
       11   -1    0    0    0    0 -0.00000000000E+00 -0.00000000000E+00 -0.34996269501E-01  0.35000000000E-01  0.51099999109E-03 0. -1.
       22    1    1    2    0    0  0.89044867213E-02 -0.29830601694E-02  0.32621543090E-01  0.33946334195E-01  0.00000000000E+00 0.  1.
       22    1    1    2    0    0 -0.33377506711E-03  0.57971557833E-02 -0.84427189986E-02  0.10246849519E-01  0.00000000000E+00 0. -1.
       22    1    1    2    0    0 -0.85707116542E-02 -0.28140956139E-02 -0.24178824091E-01  0.25806816286E-01  0.00000000000E+00 0. -1.
</event>
<event>
 5   0  0.4143600E+04  0.9118800E+02  0.7546771E-02  0.1180000E+00
      -11   -1    0    0    0    0  0.00000000000E+00  0.00000000000E+00  0.34996269501E-01  0.35000000000E-01  0.51099999109E-03 0.  1.
       11   -1    0    0    0    0 -0.00000000000E+00 -0.00000000000E+00 -0.34996269501E-01  0.35000000000E-01  0.51099999109E-03 0. -1.
       22    1    1    2    0    0  0.92159930617E-02  0.89067734304E-02 -0.32545911709E-01  0.34978586450E-01  0.00000000000E+00 0. -1.
       22    1    1    2    0    0 -0.39061548384E-03 -0.32660273421E-03  0.60410286599E-03  0.79005700738E-03  0.00000000000E+00 0.  1.
       22    1    1    2    0    0 -0.88253775778E-02 -0.85801706961E-02  0.31941808843E-01  0.34231356543E-01  0.00000000000E+00 0.  1.
</event>
<event>
 5   0  0.4143600E+04  0.9118800E+02  0.7546771E-02  0.1180000E+00
      -11   -1    0    0    0    0  0.00000000000E+00  0.00000000000E+00  0.34996269501E-01  0.35000000000E-01  0.51099999109E-03 0. -1.
       11   -1    0    0    0    0 -0.00000000000E+00 -0.00000000000E+00 -0.34996269501E-01  0.35000000000E-01  0.51099999109E-03 0.  1.
       22    1    1    2    0    0  0.10783256870E-01  0.97683981651E-02 -0.30189404367E-01  0.33512689649E-01  0.00000000000E+00 0.  1.
       22    1    1    2    0    0 -0.13404300038E-01 -0.91437044297E-02  0.19035902568E-01  0.25012960177E-01  0.00000000000E+00 0. -1.
       22    1    1    2    0    0  0.26210431685E-02 -0.62469373538E-03  0.11153501799E-01  0.11474350175E-01  0.00000000000E+00 0.  1.
</event>
<event>
 5   0  0.4143600E+04  0.9118800E+02  0.7546771E-02  0.1180000E+00
      -11   -1    0    0    0    0  0.00000000000E+00  0.00000000000E+00  0.34996269501E-01  0.35000000000E-01  0.51099999109E-03 0. -1.
       11   -1    0    0    0    0 -0.00000000000E+00 -0.00000000000E+00 -0.34996269501E-01  0.35000000000E-01  0.51099999109E-03 0.  1.
       22    1    1    2    0    0  0.81177627632E-03  0.68907212296E-04  0.23895959172E-03  0.84901743986E-03  0.00000000000E+00 0.  1.
       22    1    1    2    0    0 -0.84329306800E-02 -0.21361297085E-01  0.25880854472E-01  0.34601126589E-01  0.00000000000E+00 0. -1.
       22    1    1    2    0    0  0.76211544037E-02  0.21292389872E-01 -0.26119814064E-01  0.34549855972E-01  0.00000000000E+00 0.  1.
</event>
<event>
 5   0  0.4143600E+04  0.9118800E+02  0.7546771E-02  0.1180000E+00
      -11   -1    0    0    0    0  0.00000000000E+00  0.00000000000E+00  0.34996269501E-01  0.35000000000E-01  0.51099999109E-03 0. -1.
       11   -1    0    0    0    0 -0.00000000000E+00 -0.00000000000E+00 -0.34996269501E-01  0.35000000000E-01  0.51099999109E-03 0.  1.
       22    1    1    2    0    0 -0.30740931470E-02 -0.11516463700E-02  0.34643085161E-01  0.34798271329E-01  0.00000000000E+00 0. -1.
       22    1    1    2    0    0  0.64003838220E-03  0.16196940628E-02 -0.30549876018E-02  0.35165334116E-02  0.00000000000E+00 0.  1.
       22    1    1    2    0    0  0.24340547649E-02 -0.46804769280E-03 -0.31588097559E-01  0.31685195259E-01  0.00000000000E+00 0.  1.
</event>
<event>
 5   0  0.4143600E+04  0.9118800E+02  0.7546771E-02  0.1180000E+00
      -11   -1    0    0    0    0  0.00000000000E+00  0.00000000000E+00  0.34996269501E-01  0.35000000000E-01  0.51099999109E-03 0.  1.
       11   -1    0    0    0    0 -0.00000000000E+00 -0.00000000000E+00 -0.34996269501E-01  0.35000000000E-01  0.51099999109E-03 0. -1.
       22    1    1    2    0    0 -0.98335217205E-02 -0.43818663684E-02  0.32921079015E-01  0.34636633003E-01  0.00000000000E+00 0.  1.
       22    1    1    2    0    0  0.21157436974E-02  0.37400472505E-02 -0.62060816775E-02  0.75484948577E-02  0.00000000000E+00 0. -1.
       22    1    1    2    0    0  0.77177780230E-02  0.64181911793E-03 -0.26714997337E-01  0.27814872139E-01  0.00000000000E+00 0. -1.
</event>
<event>
 5   0  0.4143600E+04  0.9118800E+02  0.7546771E-02  0.1180000E+00
      -11   -1    0    0    0    0  0.00000000000E+00  0.00000000000E+00  0.34996269501E-01  0.35000000000E-01  0.51099999109E-03 0.  1.
       11   -1    0    0    0    0 -0.00000000000E+00 -0.00000000000E+00 -0.34996269501E-01  0.35000000000E-01  0.51099999109E-03 0. -1.
       22    1    1    2    0    0 -0.13367773038E-01  0.12079079315E-02 -0.25855975167E-01  0.29132247586E-01  0.00000000000E+00 0. -1.
       22    1    1    2    0    0 -0.32793670432E-03 -0.79953181432E-03  0.27096166407E-01  0.27109943334E-01  0.00000000000E+00 0.  1.
       22    1    1    2    0    0  0.13695709742E-01 -0.40837611717E-03 -0.12401912400E-02  0.13757809081E-01  0.00000000000E+00 0.  1.
</event>
<event>
 5   0  0.4143600E+04  0.9118800E+02  0.7546771E-02  0.1180000E+00
      -11   -1    0    0    0    0  0.00000000000E+00  0.00000000000E+00  0.34996269501E-01  0.35000000000E-01  0.51099999109E-03 0.  1.
       11   -1    0    0    0    0 -0.00000000000E+00 -0.00000000000E+00 -0.34996269501E-01  0.35000000000E-01  0.51099999109E-03 0. -1.
       22    1    1    2    0    0  0.11201652725E-01  0.42216184948E-02  0.30675610032E-01  0.32928591487E-01  0.00000000000E+00 0.  1.
       22    1    1    2    0    0 -0.12420812479E-01 -0.25021888236E-02 -0.32111632653E-01  0.34520928192E-01  0.00000000000E+00 0. -1.
       22    1    1    2    0    0  0.12191597542E-02 -0.17194296711E-02  0.14360226210E-02  0.25504803211E-02  0.00000000000E+00 0. -1.
</event>
<event>
 5   0  0.4143600E+04  0.9118800E+02  0.7546771E-02  0.1180000E+00
      -11   -1    0    0    0    0  0.00000000000E+00  0.00000000000E+00  0.34996269501E-01  0.35000000000E-01  0.51099999109E-03 0. -1.
       11   -1    0    0    0    0 -0.00000000000E+00 -0.00000000000E+00 -0.34996269501E-01  0.35000000000E-01  0.51099999109E-03 0.  1.
       22    1    1    2    0    0  0.15975602575E-02 -0.39185735724E-02  0.34594526038E-01  0.34852383698E-01  0.00000000000E+00 0. -1.
       22    1    1    2    0    0  0.97038330147E-03  0.92623068488E-03 -0.27484839276E-02  0.30583837126E-02  0.00000000000E+00 0.  1.
       22    1    1    2    0    0 -0.25679435590E-02  0.29923428875E-02 -0.31846042111E-01  0.32089232590E-01  0.00000000000E+00 0.  1.
</event>
<event>
 5   0  0.4143600E+04  0.9118800E+02  0.7546771E-02  0.1180000E+00
      -11   -1    0    0    0    0  0.00000000000E+00  0.00000000000E+00  0.34996269501E-01  0.35000000000E-01  0.51099999109E-03 0.  1.
       11   -1    0    0    0    0 -0.00000000000E+00 -0.00000000000E+00 -0.34996269501E-01  0.35000000000E-01  0.51099999109E-03 0. -1.
       22    1    1    2    0    0  0.14107343620E-01 -0.10877028335E-01  0.28929461321E-01  0.33974116938E-01  0.00000000000E+00 0.  1.
       22    1    1    2    0    0 -0.10512627590E-03 -0.19826967809E-04  0.11222468137E-02  0.11273342688E-02  0.00000000000E+00 0.  1.
       22    1    1    2    0    0 -0.14002217344E-01  0.10896855303E-01 -0.30051708135E-01  0.34898548793E-01  0.00000000000E+00 0. -1.
</event>
<event>
 5   0  0.4143600E+04  0.9118800E+02  0.7546771E-02  0.1180000E+00
      -11   -1    0    0    0    0  0.00000000000E+00  0.00000000000E+00  0.34996269501E-01  0.35000000000E-01  0.51099999109E-03 0. -1.
       11   -1    0    0    0    0 -0.00000000000E+00 -0.00000000000E+00 -0.34996269501E-01  0.35000000000E-01  0.51099999109E-03 0.  1.
       22    1    1    2    0    0  0.35297770692E-02 -0.11090292165E-02 -0.78286431559E-02  0.86589217356E-02  0.00000000000E+00 0. -1.
       22    1    1    2    0    0 -0.54739757967E-02  0.26332378377E-02 -0.26366316157E-01  0.27056995033E-01  0.00000000000E+00 0.  1.
       22    1    1    2    0    0  0.19441987275E-02 -0.15242086211E-02  0.34194959313E-01  0.34284083231E-01  0.00000000000E+00 0. -1.
</event>
<event>
 5   0  0.4143600E+04  0.9118800E+02  0.7546771E-02  0.1180000E+00
      -11   -1    0    0    0    0  0.00000000000E+00  0.00000000000E+00  0.34996269501E-01  0.35000000000E-01  0.51099999109E-03 0. -1.
       11   -1    0    0    0    0 -0.00000000000E+00 -0.00000000000E+00 -0.34996269501E-01  0.35000000000E-01  0.51099999109E-03 0.  1.
       22    1    1    2    0    0 -0.19485377568E-01  0.38423681501E-02  0.28729113007E-01  0.34925716401E-01  0.00000000000E+00 0. -1.
       22    1    1    2    0    0 -0.55906018630E-04 -0.27828466175E-04 -0.64807399509E-03  0.65107588618E-03  0.00000000000E+00 0.  1.
       22    1    1    2    0    0  0.19541283587E-01 -0.38145396839E-02 -0.28081039012E-01  0.34423207712E-01  0.00000000000E+00 0.  1.
</event>
<event>
 5   0  0.4143600E+04  0.9118800E+02  0.7546771E-02  0.1180000E+00
      -11   -1    0    0    0    0  0.00000000000E+00  0.00000000000E+00  0.34996269501E-01  0.35000000000E-01  0.51099999109E-03 0. -1.
       11   -1    0    0    0    0 -0.00000000000E+00 -0.00000000000E+00 -0.34996269501E-01  0.35000000000E-01  0.51099999109E-03 0.  1.
       22    1    1    2    0    0 -0.97384713658E-02 -0.22262230690E-02 -0.21988343697E-01  0.24151214301E-01  0.00000000000E+00 0.  1.
       22    1    1    2    0    0  0.56165112843E-03 -0.44511037797E-02 -0.10509076304E-01  0.11426655750E-01  0.00000000000E+00 0.  1.
       22    1    1    2    0    0  0.91768202374E-02  0.66773268486E-02  0.32497420001E-01  0.34422129949E-01  0.00000000000E+00 0. -1.
</event>
<event>
 5   0  0.4143600E+04  0.9118800E+02  0.7546771E-02  0.1180000E+00
      -11   -1    0    0    0    0  0.00000000000E+00  0.00000000000E+00  0.34996269501E-01  0.35000000000E-01  0.51099999109E-03 0.  1.
       11   -1    0    0    0    0 -0.00000000000E+00 -0.00000000000E+00 -0.34996269501E-01  0.35000000000E-01  0.51099999109E-03 0. -1.
       22    1    1    2    0    0 -0.16507303322E-03  0.19242577217E-04 -0.15536866088E-02  0.15625496669E-02  0.00000000000E+00 0.  1.
       22    1    1    2    0    0  0.97619097160E-02  0.50642629767E-02 -0.31648243912E-01  0.33504521837E-01  0.00000000000E+00 0. -1.
       22    1    1    2    0    0 -0.95968366828E-02 -0.50835055539E-02  0.33201930521E-01  0.34932928496E-01  0.00000000000E+00 0.  1.
</event>
<event>
 5   0  0.4143600E+04  0.9118800E+02  0.7546771E-02  0.1180000E+00
      -11   -1    0    0    0    0  0.00000000000E+00  0.00000000000E+00  0.34996269501E-01  0.35000000000E-01  0.51099999109E-03 0. -1.
       11   -1    0    0    0    0 -0.00000000000E+00 -0.00000000000E+00 -0.34996269501E-01  0.35000000000E-01  0.51099999109E-03 0.  1.
       22    1    1    2    0    0 -0.18174179866E-02 -0.55549441001E-02 -0.32771985486E-01  0.33289088975E-01  0.00000000000E+00 0.  1.
       22    1    1    2    0    0  0.24434758284E-02  0.54978670162E-02  0.34422711358E-01  0.34944529945E-01  0.00000000000E+00 0. -1.
       22    1    1    2    0    0 -0.62605784172E-03  0.57077083854E-04 -0.16507258724E-02  0.17663810802E-02  0.00000000000E+00 0.  1.
</event>
<event>
 5   0  0.4143600E+04  0.9118800E+02  0.7546771E-02  0.1180000E+00
      -11   -1    0    0    0    0  0.00000000000E+00  0.00000000000E+00  0.34996269501E-01  0.35000000000E-01  0.51099999109E-03 0.  1.
       11   -1    0    0    0    0 -0.00000000000E+00 -0.00000000000E+00 -0.34996269501E-01  0.35000000000E-01  0.51099999109E-03 0. -1.
       22    1    1    2    0    0  0.67766221459E-02 -0.98379551913E-02  0.25837629884E-01  0.28465612378E-01  0.00000000000E+00 0.  1.
       22    1    1    2    0    0 -0.68150174864E-03 -0.86264241055E-03  0.66764298804E-02  0.67663367127E-02  0.00000000000E+00 0. -1.
       22    1    1    2    0    0 -0.60951203973E-02  0.10700597602E-01 -0.32514059764E-01  0.34768050909E-01  0.00000000000E+00 0. -1.
</event>
<event>
 5   0  0.4143600E+04  0.9118800E+02  0.7546771E-02  0.1180000E+00
      -11   -1    0    0    0    0  0.00000000000E+00  0.00000000000E+00  0.34996269501E-01  0.35000000000E-01  0.51099999109E-03 0. -1.
       11   -1    0    0    0    0 -0.00000000000E+00 -0.00000000000E+00 -0.34996269501E-01  0.35000000000E-01  0.51099999109E-03 0.  1.
       22    1    1    2    0    0  0.81531899899E-02  0.10364306903E-01 -0.23031185049E-01  0.26539194588E-01  0.00000000000E+00 0.  1.
       22    1    1    2    0    0 -0.78501511676E-02 -0.27691659793E-02 -0.79801347818E-02  0.11531509212E-01  0.00000000000E+00 0.  1.
       22    1    1    2    0    0 -0.30303882233E-03 -0.75951409239E-02  0.31011319831E-01  0.31929296200E-01  0.00000000000E+00 0. -1.
</event>
<event>
 5   0  0.4143600E+04  0.9118800E+02  0.7546771E-02  0.1180000E+00
      -11   -1    0    0    0    0  0.00000000000E+00  0.00000000000E+00  0.34996269501E-01  0.35000000000E-01  0.51099999109E-03 0. -1.
       11   -1    0    0    0    0 -0.00000000000E+00 -0.00000000000E+00 -0.34996269501E-01  0.35000000000E-01  0.51099999109E-03 0.  1.
       22    1    1    2    0    0 -0.24713579757E-03 -0.11864280777E-02 -0.14970176144E-02  0.19260709810E-02  0.00000000000E+00 0.  1.
       22    1    1    2    0    0  0.24186396908E-02  0.70634178213E-02  0.34082968608E-01  0.34891122631E-01  0.00000000000E+00 0. -1.
       22    1    1    2    0    0 -0.21715038932E-02 -0.58769897436E-02 -0.32585950994E-01  0.33182806388E-01  0.00000000000E+00 0.  1.
</event>
<event>
 5   0  0.4143600E+04  0.9118800E+02  0.7546771E-02  0.1180000E+00
      -11   -1    0    0    0    0  0.00000000000E+00  0.00000000000E+00  0.34996269501E-01  0.35000000000E-01  0.51099999109E-03 0. -1.
       11   -1    0    0    0    0 -0.00000000000E+00 -0.00000000000E+00 -0.34996269501E-01  0.35000000000E-01  0.51099999109E-03 0. -1.
       22    1    1    2    0    0 -0.44693686185E-02  0.81325179934E-02 -0.26144555474E-01  0.27742582534E-01  0.00000000000E+00 0. -1.
       22    1    1    2    0    0 -0.12445798566E-03 -0.32092806711E-04  0.31509789657E-01  0.31510051792E-01  0.00000000000E+00 0. -1.
       22    1    1    2    0    0  0.45938266041E-02 -0.81004251867E-02 -0.53652341831E-02  0.10747365673E-01  0.00000000000E+00 0.  1.
</event>
<event>
 5   0  0.4143600E+04  0.9118800E+02  0.7546771E-02  0.1180000E+00
      -11   -1    0    0    0    0  0.00000000000E+00  0.00000000000E+00  0.34996269501E-01  0.35000000000E-01  0.51099999109E-03 0.  1.
       11   -1    0    0    0    0 -0.00000000000E+00 -0.00000000000E+00 -0.34996269501E-01  0.35000000000E-01  0.51099999109E-03 0. -1.
       22    1    1    2    0    0 -0.50833948958E-02 -0.46766919421E-02  0.34002172974E-01  0.34696687423E-01  0.00000000000E+00 0.  1.
       22    1    1    2    0    0  0.49059725675E-02  0.47346708683E-02 -0.17227664221E-01  0.18527765370E-01  0.00000000000E+00 0. -1.
       22    1    1    2    0    0  0.17742232836E-03 -0.57978926235E-04 -0.16774508752E-01  0.16775547208E-01  0.00000000000E+00 0. -1.
</event>
<event>
 5   0  0.4143600E+04  0.9118800E+02  0.7546771E-02  0.1180000E+00
      -11   -1    0    0    0    0  0.00000000000E+00  0.00000000000E+00  0.34996269501E-01  0.35000000000E-01  0.51099999109E-03 0. -1.
       11   -1    0    0    0    0 -0.00000000000E+00 -0.00000000000E+00 -0.34996269501E-01  0.35000000000E-01  0.51099999109E-03 0.  1.
       22    1    1    2    0    0  0.12417417703E-01 -0.14465922754E-01 -0.28941669255E-01  0.34656534778E-01  0.00000000000E+00 0.  1.
       22    1    1    2    0    0 -0.11023885780E-01  0.13968837249E-01  0.28804156406E-01  0.33857553043E-01  0.00000000000E+00 0. -1.
       22    1    1    2    0    0 -0.13935319238E-02  0.49708550454E-03  0.13751284859E-03  0.14859121794E-02  0.00000000000E+00 0. -1.
</event>
<event>
 5   0  0.4143600E+04  0.9118800E+02  0.7546771E-02  0.1180000E+00
      -11   -1    0    0    0    0  0.00000000000E+00  0.00000000000E+00  0.34996269501E-01  0.35000000000E-01  0.51099999109E-03 0. -1.
       11   -1    0    0    0    0 -0.00000000000E+00 -0.00000000000E+00 -0.34996269501E-01  0.35000000000E-01  0.51099999109E-03 0. -1.
       22    1    1    2    0    0  0.42040049477E-02  0.20330848430E-02 -0.65986116187E-02  0.80838584149E-02  0.00000000000E+00 0.  1.
       22    1    1    2    0    0 -0.42226446655E-02 -0.19222164809E-02 -0.27464107165E-01  0.27853237273E-01  0.00000000000E+00 0. -1.
       22    1    1    2    0    0  0.18639717865E-04 -0.11086836206E-03  0.34062718784E-01  0.34062904312E-01  0.00000000000E+00 0. -1.
</event>
<event>
 5   0  0.4143600E+04  0.9118800E+02  0.7546771E-02  0.1180000E+00
      -11   -1    0    0    0    0  0.00000000000E+00  0.00000000000E+00  0.34996269501E-01  0.35000000000E-01  0.51099999109E-03 0.  1.
       11   -1    0    0    0    0 -0.00000000000E+00 -0.00000000000E+00 -0.34996269501E-01  0.35000000000E-01  0.51099999109E-03 0. -1.
       22    1    1    2    0    0 -0.85318373897E-02  0.19526881767E-02 -0.18371222341E-01  0.20349620406E-01  0.00000000000E+00 0. -1.
       22    1    1    2    0    0  0.14896619621E-01  0.17013248515E-01  0.18476120882E-03  0.22614023036E-01  0.00000000000E+00 0. -1.
       22    1    1    2    0    0 -0.63647822315E-02 -0.18965936691E-01  0.18186461132E-01  0.27036356558E-01  0.00000000000E+00 0.  1.
</event>
<event>
 5   0  0.4143600E+04  0.9118800E+02  0.7546771E-02  0.1180000E+00
      -11   -1    0    0    0    0  0.00000000000E+00  0.00000000000E+00  0.34996269501E-01  0.35000000000E-01  0.51099999109E-03 0. -1.
       11   -1    0    0    0    0 -0.00000000000E+00 -0.00000000000E+00 -0.34996269501E-01  0.35000000000E-01  0.51099999109E-03 0.  1.
       22    1    1    2    0    0  0.48388174434E-03 -0.59153738915E-02  0.34395209181E-01  0.34903527106E-01  0.00000000000E+00 0. -1.
       22    1    1    2    0    0 -0.71631485819E-03  0.29678908189E-03 -0.12026151535E-02  0.14308996969E-02  0.00000000000E+00 0. -1.
       22    1    1    2    0    0  0.23243311385E-03  0.56185848096E-02 -0.33192594028E-01  0.33665573197E-01  0.00000000000E+00 0.  1.
</event>
<event>
 5   0  0.4143600E+04  0.9118800E+02  0.7546771E-02  0.1180000E+00
      -11   -1    0    0    0    0  0.00000000000E+00  0.00000000000E+00  0.34996269501E-01  0.35000000000E-01  0.51099999109E-03 0.  1.
       11   -1    0    0    0    0 -0.00000000000E+00 -0.00000000000E+00 -0.34996269501E-01  0.35000000000E-01  0.51099999109E-03 0. -1.
       22    1    1    2    0    0  0.52489631087E-02  0.17286438755E-01  0.29741820519E-01  0.34798684836E-01  0.00000000000E+00 0.  1.
       22    1    1    2    0    0 -0.44483846642E-02 -0.17150370103E-01 -0.26632540309E-01  0.31987740215E-01  0.00000000000E+00 0. -1.
       22    1    1    2    0    0 -0.80057844451E-03 -0.13606865248E-03 -0.31092802101E-02  0.32135749484E-02  0.00000000000E+00 0. -1.
</event>
<event>
 5   0  0.4143600E+04  0.9118800E+02  0.7546771E-02  0.1180000E+00
      -11   -1    0    0    0    0  0.00000000000E+00  0.00000000000E+00  0.34996269501E-01  0.35000000000E-01  0.51099999109E-03 0.  1.
       11   -1    0    0    0    0 -0.00000000000E+00 -0.00000000000E+00 -0.34996269501E-01  0.35000000000E-01  0.51099999109E-03 0. -1.
       22    1    1    2    0    0  0.23080315948E-01  0.20993342994E-02 -0.68968708484E-02  0.24180054099E-01  0.00000000000E+00 0. -1.
       22    1    1    2    0    0 -0.21884076389E-01  0.33250243051E-02  0.21092947528E-01  0.30575824133E-01  0.00000000000E+00 0.  1.
       22    1    1    2    0    0 -0.11962395592E-02 -0.54243586045E-02 -0.14196076680E-01  0.15244121767E-01  0.00000000000E+00 0.  1.
</event>
<event>
 5   0  0.4143600E+04  0.9118800E+02  0.7546771E-02  0.1180000E+00
      -11   -1    0    0    0    0  0.00000000000E+00  0.00000000000E+00  0.34996269501E-01  0.35000000000E-01  0.51099999109E-03 0. -1.
       11   -1    0    0    0    0 -0.00000000000E+00 -0.00000000000E+00 -0.34996269501E-01  0.35000000000E-01  0.51099999109E-03 0.  1.
       22    1    1    2    0    0  0.13085144003E-01 -0.10175996296E-01  0.30790142977E-01  0.34968625920E-01  0.00000000000E+00 0. -1.
       22    1    1    2    0    0 -0.15083569262E-03  0.12346270756E-03 -0.11431216458E-02  0.11596212931E-02  0.00000000000E+00 0.  1.
       22    1    1    2    0    0 -0.12934308311E-01  0.10052533588E-01 -0.29647021331E-01  0.33871752787E-01  0.00000000000E+00 0.  1.
</event>
<event>
 5   0  0.4143600E+04  0.9118800E+02  0.7546771E-02  0.1180000E+00
      -11   -1    0    0    0    0  0.00000000000E+00  0.00000000000E+00  0.34996269501E-01  0.35000000000E-01  0.51099999109E-03 0.  1.
       11   -1    0    0    0    0 -0.00000000000E+00 -0.00000000000E+00 -0.34996269501E-01  0.35000000000E-01  0.51099999109E-03 0. -1.
       22    1    1    2    0    0 -0.27480220580E-02  0.41197875461E-03 -0.32997376859E-01  0.33114169646E-01  0.00000000000E+00 0. -1.
       22    1    1    2    0    0  0.34119128897E-02 -0.76400466566E-03  0.34777909365E-01  0.34953223492E-01  0.00000000000E+00 0.  1.
       22    1    1    2    0    0 -0.66389083163E-03  0.35202591105E-03 -0.17805325060E-02  0.19326068621E-02  0.00000000000E+00 0. -1.
</event>
<event>
 5   0  0.4143600E+04  0.9118800E+02  0.7546771E-02  0.1180000E+00
      -11   -1    0    0    0    0  0.00000000000E+00  0.00000000000E+00  0.34996269501E-01  0.35000000000E-01  0.51099999109E-03 0.  1.
       11   -1    0    0    0    0 -0.00000000000E+00 -0.00000000000E+00 -0.34996269501E-01  0.35000000000E-01  0.51099999109E-03 0. -1.
       22    1    1    2    0    0 -0.16373169185E-01 -0.83283870691E-02  0.28618268292E-01  0.34006587308E-01  0.00000000000E+00 0.  1.
       22    1    1    2    0    0 -0.23523885875E-04 -0.27193686429E-03 -0.90494229391E-02  0.90535384554E-02  0.00000000000E+00 0.  1.
       22    1    1    2    0    0  0.16396693070E-01  0.86003239334E-02 -0.19568845353E-01  0.26939874236E-01  0.00000000000E+00 0. -1.
</event>
<event>
 5   0  0.4143600E+04  0.9118800E+02  0.7546771E-02  0.1180000E+00
      -11   -1    0    0    0    0  0.00000000000E+00  0.00000000000E+00  0.34996269501E-01  0.35000000000E-01  0.51099999109E-03 0. -1.
       11   -1    0    0    0    0 -0.00000000000E+00 -0.00000000000E+00 -0.34996269501E-01  0.35000000000E-01  0.51099999109E-03 0.  1.
       22    1    1    2    0    0  0.12303525166E-01  0.79864395884E-03 -0.32660313582E-01  0.34910036479E-01  0.00000000000E+00 0.  1.
       22    1    1    2    0    0 -0.12351088158E-01 -0.71812722290E-03  0.30309640948E-01  0.32737431478E-01  0.00000000000E+00 0. -1.
       22    1    1    2    0    0  0.47562992096E-04 -0.80516735937E-04  0.23506726341E-02  0.23525320435E-02  0.00000000000E+00 0. -1.
</event>
<event>
 5   0  0.4143600E+04  0.9118800E+02  0.7546771E-02  0.1180000E+00
      -11   -1    0    0    0    0  0.00000000000E+00  0.00000000000E+00  0.34996269501E-01  0.35000000000E-01  0.51099999109E-03 0. -1.
       11   -1    0    0    0    0 -0.00000000000E+00 -0.00000000000E+00 -0.34996269501E-01  0.35000000000E-01  0.51099999109E-03 0.  1.
       22    1    1    2    0    0 -0.50977689046E-02  0.12769552444E-01 -0.31659863584E-01  0.34516600058E-01  0.00000000000E+00 0.  1.
       22    1    1    2    0    0  0.52588276780E-02 -0.12295717171E-01  0.21557161591E-01  0.25368309861E-01  0.00000000000E+00 0. -1.
       22    1    1    2    0    0 -0.16105877347E-03 -0.47383527257E-03  0.10102701993E-01  0.10115090081E-01  0.00000000000E+00 0. -1.
</event>
<event>
 5   0  0.4143600E+04  0.9118800E+02  0.7546771E-02  0.1180000E+00
      -11   -1    0    0    0    0  0.00000000000E+00  0.00000000000E+00  0.34996269501E-01  0.35000000000E-01  0.51099999109E-03 0.  1.
       11   -1    0    0    0    0 -0.00000000000E+00 -0.00000000000E+00 -0.34996269501E-01  0.35000000000E-01  0.51099999109E-03 0. -1.
       22    1    1    2    0    0 -0.10847568767E-01  0.17393098867E-02  0.24655172688E-01  0.26992081937E-01  0.00000000000E+00 0.  1.
       22    1    1    2    0    0  0.13048535740E-01 -0.21590831896E-02 -0.32373478067E-01  0.34970959486E-01  0.00000000000E+00 0. -1.
       22    1    1    2    0    0 -0.22009669730E-02  0.41977330299E-03  0.77183053792E-02  0.80369585770E-02  0.00000000000E+00 0.  1.
</event>
<event>
 5   0  0.4143600E+04  0.9118800E+02  0.7546771E-02  0.1180000E+00
      -11   -1    0    0    0    0  0.00000000000E+00  0.00000000000E+00  0.34996269501E-01  0.35000000000E-01  0.51099999109E-03 0. -1.
       11   -1    0    0    0    0 -0.00000000000E+00 -0.00000000000E+00 -0.34996269501E-01  0.35000000000E-01  0.51099999109E-03 0.  1.
       22    1    1    2    0    0  0.27289527132E-03 -0.54960598338E-03 -0.80899598582E-03  0.10153881382E-02  0.00000000000E+00 0.  1.
       22    1    1    2    0    0  0.31958850724E-02  0.54738121439E-02  0.34338388337E-01  0.34918493873E-01  0.00000000000E+00 0. -1.
       22    1    1    2    0    0 -0.34687803438E-02 -0.49242061606E-02 -0.33529392351E-01  0.34066117989E-01  0.00000000000E+00 0.  1.
</event>
<event>
 5   0  0.4143600E+04  0.9118800E+02  0.7546771E-02  0.1180000E+00
      -11   -1    0    0    0    0  0.00000000000E+00  0.00000000000E+00  0.34996269501E-01  0.35000000000E-01  0.51099999109E-03 0. -1.
       11   -1    0    0    0    0 -0.00000000000E+00 -0.00000000000E+00 -0.34996269501E-01  0.35000000000E-01  0.51099999109E-03 0.  1.
       22    1    1    2    0    0  0.24307017673E-02  0.19414087571E-02  0.10180119422E-01  0.10644820829E-01  0.00000000000E+00 0.  1.
       22    1    1    2    0    0  0.10182931980E-01 -0.48941951551E-02 -0.32024130117E-01  0.33958653679E-01  0.00000000000E+00 0.  1.
       22    1    1    2    0    0 -0.12613633748E-01  0.29527863980E-02  0.21844010695E-01  0.25396525492E-01  0.00000000000E+00 0. -1.
</event>
<event>
 5   0  0.4143600E+04  0.9118800E+02  0.7546771E-02  0.1180000E+00
      -11   -1    0    0    0    0  0.00000000000E+00  0.00000000000E+00  0.34996269501E-01  0.35000000000E-01  0.51099999109E-03 0.  1.
       11   -1    0    0    0    0 -0.00000000000E+00 -0.00000000000E+00 -0.34996269501E-01  0.35000000000E-01  0.51099999109E-03 0. -1.
       22    1    1    2    0    0  0.20732268570E-01 -0.16856841321E-02  0.23920913858E-01  0.31699820360E-01  0.00000000000E+00 0.  1.
       22    1    1    2    0    0 -0.21462277275E-01  0.46344200161E-02 -0.26429699756E-01  0.34360387424E-01  0.00000000000E+00 0. -1.
       22    1    1    2    0    0  0.73000870463E-03 -0.29487358840E-02  0.25087858978E-02  0.39397922158E-02  0.00000000000E+00 0.  1.
</event>
<event>
 5   0  0.4143600E+04  0.9118800E+02  0.7546771E-02  0.1180000E+00
      -11   -1    0    0    0    0  0.00000000000E+00  0.00000000000E+00  0.34996269501E-01  0.35000000000E-01  0.51099999109E-03 0.  1.
       11   -1    0    0    0    0 -0.00000000000E+00 -0.00000000000E+00 -0.34996269501E-01  0.35000000000E-01  0.51099999109E-03 0. -1.
       22    1    1    2    0    0 -0.46371784806E-02 -0.24429888167E-02 -0.31579127780E-01  0.32011137593E-01  0.00000000000E+00 0. -1.
       22    1    1    2    0    0  0.46726844856E-03 -0.12847686755E-02 -0.28221563729E-02  0.31358470858E-02  0.00000000000E+00 0. -1.
       22    1    1    2    0    0  0.41699100320E-02  0.37277574923E-02  0.34401284153E-01  0.34853015321E-01  0.00000000000E+00 0.  1.
</event>
<event>
 5   0  0.4143600E+04  0.9118800E+02  0.7546771E-02  0.1180000E+00
      -11   -1    0    0    0    0  0.00000000000E+00  0.00000000000E+00  0.34996269501E-01  0.35000000000E-01  0.51099999109E-03 0.  1.
       11   -1    0    0    0    0 -0.00000000000E+00 -0.00000000000E+00 -0.34996269501E-01  0.35000000000E-01  0.51099999109E-03 0.  1.
       22    1    1    2    0    0  0.12831454968E-01  0.87167074708E-02 -0.10573816816E-01  0.18773194395E-01  0.00000000000E+00 0. -1.
       22    1    1    2    0    0 -0.12831454968E-01 -0.87167074708E-02 -0.17367039779E-01  0.23286075162E-01  0.00000000000E+00 0.  1.
       22    1    1    2    0    0 -0.00000000000E+00  0.00000000000E+00  0.27940856595E-01  0.27940730444E-01  0.00000000000E+00 0.  1.
</event>
<event>
 5   0  0.4143600E+04  0.9118800E+02  0.7546771E-02  0.1180000E+00
      -11   -1    0    0    0    0  0.00000000000E+00  0.00000000000E+00  0.34996269501E-01  0.35000000000E-01  0.51099999109E-03 0.  1.
       11   -1    0    0    0    0 -0.00000000000E+00 -0.00000000000E+00 -0.34996269501E-01  0.35000000000E-01  0.51099999109E-03 0. -1.
       22    1    1    2    0    0  0.65864786442E-02  0.10507466124E-01  0.23471800019E-01  0.26546448754E-01  0.00000000000E+00 0.  1.
       22    1    1    2    0    0 -0.86516151447E-02 -0.75484444066E-02 -0.32105132993E-01  0.34096466416E-01  0.00000000000E+00 0. -1.
       22    1    1    2    0    0  0.20651365005E-02 -0.29590217176E-02  0.86333329735E-02  0.93570848303E-02  0.00000000000E+00 0.  1.
</event>
<event>
 5   0  0.4143600E+04  0.9118800E+02  0.7546771E-02  0.1180000E+00
      -11   -1    0    0    0    0  0.00000000000E+00  0.00000000000E+00  0.34996269501E-01  0.35000000000E-01  0.51099999109E-03 0. -1.
       11   -1    0    0    0    0 -0.00000000000E+00 -0.00000000000E+00 -0.34996269501E-01  0.35000000000E-01  0.51099999109E-03 0.  1.
       22    1    1    2    0    0  0.42226691273E-02  0.12713415910E-01 -0.29130414459E-01  0.32063108477E-01  0.00000000000E+00 0.  1.
       22    1    1    2    0    0 -0.28660441449E-02  0.18000339766E-02 -0.17344874421E-02  0.38029959301E-02  0.00000000000E+00 0.  1.
       22    1    1    2    0    0 -0.13566249824E-02 -0.14513449886E-01  0.30864901901E-01  0.34133895593E-01  0.00000000000E+00 0. -1.
</event>
<event>
 5   0  0.4143600E+04  0.9118800E+02  0.7546771E-02  0.1180000E+00
      -11   -1    0    0    0    0  0.00000000000E+00  0.00000000000E+00  0.34996269501E-01  0.35000000000E-01  0.51099999109E-03 0. -1.
       11   -1    0    0    0    0 -0.00000000000E+00 -0.00000000000E+00 -0.34996269501E-01  0.35000000000E-01  0.51099999109E-03 0.  1.
       22    1    1    2    0    0  0.17388041978E-04 -0.36380063108E-04  0.35599202636E-03  0.35826830146E-03  0.00000000000E+00 0. -1.
       22    1    1    2    0    0 -0.11617408971E-01 -0.19451710979E-01 -0.26609750485E-01  0.34948706301E-01  0.00000000000E+00 0.  1.
       22    1    1    2    0    0  0.11600020929E-01  0.19488091042E-01  0.26253758459E-01  0.34693025398E-01  0.00000000000E+00 0. -1.
</event>
<event>
 5   0  0.4143600E+04  0.9118800E+02  0.7546771E-02  0.1180000E+00
      -11   -1    0    0    0    0  0.00000000000E+00  0.00000000000E+00  0.34996269501E-01  0.35000000000E-01  0.51099999109E-03 0.  1.
       11   -1    0    0    0    0 -0.00000000000E+00 -0.00000000000E+00 -0.34996269501E-01  0.35000000000E-01  0.51099999109E-03 0. -1.
       22    1    1    2    0    0 -0.16851247382E-02 -0.52210278032E-03 -0.34663503098E-01  0.34708366192E-01  0.00000000000E+00 0. -1.
       22    1    1    2    0    0 -0.96225257998E-04  0.59003217434E-04 -0.27885535793E-03  0.30083382554E-03  0.00000000000E+00 0. -1.
       22    1    1    2    0    0  0.17813499962E-02  0.46309956288E-03  0.34942358455E-01  0.34990799983E-01  0.00000000000E+00 0.  1.
</event>
<event>
 5   0  0.4143600E+04  0.9118800E+02  0.7546771E-02  0.1180000E+00
      -11   -1    0    0    0    0  0.00000000000E+00  0.00000000000E+00  0.34996269501E-01  0.35000000000E-01  0.51099999109E-03 0. -1.
       11   -1    0    0    0    0 -0.00000000000E+00 -0.00000000000E+00 -0.34996269501E-01  0.35000000000E-01  0.51099999109E-03 0.  1.
       22    1    1    2    0    0  0.16113233458E-02  0.13573750841E-02 -0.25842757153E-02  0.33342631894E-02  0.00000000000E+00 0.  1.
       22    1    1    2    0    0  0.15662247023E-02 -0.26353425613E-02 -0.31882333105E-01  0.32029381113E-01  0.00000000000E+00 0.  1.
       22    1    1    2    0    0 -0.31775480481E-02  0.12779674772E-02  0.34466608820E-01  0.34636355698E-01  0.00000000000E+00 0. -1.
</event>
<event>
 5   0  0.4143600E+04  0.9118800E+02  0.7546771E-02  0.1180000E+00
      -11   -1    0    0    0    0  0.00000000000E+00  0.00000000000E+00  0.34996269501E-01  0.35000000000E-01  0.51099999109E-03 0.  1.
       11   -1    0    0    0    0 -0.00000000000E+00 -0.00000000000E+00 -0.34996269501E-01  0.35000000000E-01  0.51099999109E-03 0. -1.
       22    1    1    2    0    0  0.14184826602E-01 -0.57951381518E-02  0.29480152400E-01  0.33224574000E-01  0.00000000000E+00 0.  1.
       22    1    1    2    0    0 -0.41202667298E-02 -0.53728880530E-02 -0.70668240761E-02  0.97869569569E-02  0.00000000000E+00 0. -1.
       22    1    1    2    0    0 -0.10064559872E-01  0.11168026205E-01 -0.22413328324E-01  0.26988469043E-01  0.00000000000E+00 0. -1.
</event>
<event>
 5   0  0.4143600E+04  0.9118800E+02  0.7546771E-02  0.1180000E+00
      -11   -1    0    0    0    0  0.00000000000E+00  0.00000000000E+00  0.34996269501E-01  0.35000000000E-01  0.51099999109E-03 0.  1.
       11   -1    0    0    0    0 -0.00000000000E+00 -0.00000000000E+00 -0.34996269501E-01  0.35000000000E-01  0.51099999109E-03 0. -1.
       22    1    1    2    0    0  0.15333692436E-02 -0.14406577586E-02 -0.96095693647E-02  0.98372018069E-02  0.00000000000E+00 0. -1.
       22    1    1    2    0    0  0.90781447520E-02 -0.87614082542E-03  0.33072925137E-01  0.34307414826E-01  0.00000000000E+00 0.  1.
       22    1    1    2    0    0 -0.10611513996E-01  0.23167985840E-02 -0.23463355773E-01  0.25855383367E-01  0.00000000000E+00 0. -1.
</event>
<event>
 5   0  0.4143600E+04  0.9118800E+02  0.7546771E-02  0.1180000E+00
      -11   -1    0    0    0    0  0.00000000000E+00  0.00000000000E+00  0.34996269501E-01  0.35000000000E-01  0.51099999109E-03 0. -1.
       11   -1    0    0    0    0 -0.00000000000E+00 -0.00000000000E+00 -0.34996269501E-01  0.35000000000E-01  0.51099999109E-03 0.  1.
       22    1    1    2    0    0  0.15280739546E-01 -0.39933243301E-02  0.30973802573E-01  0.34768147580E-01  0.00000000000E+00 0. -1.
       22    1    1    2    0    0 -0.39584287558E-03 -0.32556848698E-03 -0.46960124075E-02  0.47238987027E-02  0.00000000000E+00 0.  1.
       22    1    1    2    0    0 -0.14884896670E-01  0.43188928171E-02 -0.26277790166E-01  0.30507953718E-01  0.00000000000E+00 0.  1.
</event>
<event>
 5   0  0.4143600E+04  0.9118800E+02  0.7546771E-02  0.1180000E+00
      -11   -1    0    0    0    0  0.00000000000E+00  0.00000000000E+00  0.34996269501E-01  0.35000000000E-01  0.51099999109E-03 0. -1.
       11   -1    0    0    0    0 -0.00000000000E+00 -0.00000000000E+00 -0.34996269501E-01  0.35000000000E-01  0.51099999109E-03 0.  1.
       22    1    1    2    0    0  0.72814938234E-03 -0.31825964645E-03 -0.77751899428E-03  0.11117672922E-02  0.00000000000E+00 0. -1.
       22    1    1    2    0    0 -0.11249673766E-01  0.14162288053E-01 -0.29132876347E-01  0.34290669970E-01  0.00000000000E+00 0.  1.
       22    1    1    2    0    0  0.10521524383E-01 -0.13844028407E-01  0.29910395342E-01  0.34597562737E-01  0.00000000000E+00 0. -1.
</event>
<event>
 5   0  0.4143600E+04  0.9118800E+02  0.7546771E-02  0.1180000E+00
      -11   -1    0    0    0    0  0.00000000000E+00  0.00000000000E+00  0.34996269501E-01  0.35000000000E-01  0.51099999109E-03 0. -1.
       11   -1    0    0    0    0 -0.00000000000E+00 -0.00000000000E+00 -0.34996269501E-01  0.35000000000E-01  0.51099999109E-03 0.  1.
       22    1    1    2    0    0  0.84229424310E-02 -0.11781815137E-01 -0.31388995722E-01  0.34569150692E-01  0.00000000000E+00 0.  1.
       22    1    1    2    0    0 -0.41031860639E-04 -0.35896460280E-04 -0.44844691399E-03  0.45174860720E-03  0.00000000000E+00 0. -1.
       22    1    1    2    0    0 -0.83819105704E-02  0.11817711597E-01  0.31837442636E-01  0.34979100701E-01  0.00000000000E+00 0. -1.
</event>
<event>
 5   0  0.4143600E+04  0.9118800E+02  0.7546771E-02  0.1180000E+00
      -11   -1    0    0    0    0  0.00000000000E+00  0.00000000000E+00  0.34996269501E-01  0.35000000000E-01  0.51099999109E-03 0.  1.
       11   -1    0    0    0    0 -0.00000000000E+00 -0.00000000000E+00 -0.34996269501E-01  0.35000000000E-01  0.51099999109E-03 0. -1.
       22    1    1    2    0    0 -0.15929200664E-02  0.17004153516E-01  0.29495470602E-01  0.34083154448E-01  0.00000000000E+00 0.  1.
       22    1    1    2    0    0 -0.17408838581E-03  0.76278502074E-03  0.55714536517E-03  0.96049919931E-03  0.00000000000E+00 0.  1.
       22    1    1    2    0    0  0.17670084522E-02 -0.17766938537E-01 -0.30052615967E-01  0.34956346352E-01  0.00000000000E+00 0. -1.
</event>
<event>
 5   0  0.4143600E+04  0.9118800E+02  0.7546771E-02  0.1180000E+00
      -11   -1    0    0    0    0  0.00000000000E+00  0.00000000000E+00  0.34996269501E-01  0.35000000000E-01  0.51099999109E-03 0. -1.
       11   -1    0    0    0    0 -0.00000000000E+00 -0.00000000000E+00 -0.34996269501E-01  0.35000000000E-01  0.51099999109E-03 0.  1.
       22    1    1    2    0    0 -0.13458953466E-01 -0.59612404460E-02  0.25187166650E-01  0.29173158552E-01  0.00000000000E+00 0. -1.
       22    1    1    2    0    0 -0.37007708629E-03 -0.77595056185E-04  0.60889593420E-02  0.61006888063E-02  0.00000000000E+00 0. -1.
       22    1    1    2    0    0  0.13829030552E-01  0.60388355021E-02 -0.31276125992E-01  0.34726152642E-01  0.00000000000E+00 0.  1.
</event>
<event>
 5   0  0.4143600E+04  0.9118800E+02  0.7546771E-02  0.1180000E+00
      -11   -1    0    0    0    0  0.00000000000E+00  0.00000000000E+00  0.34996269501E-01  0.35000000000E-01  0.51099999109E-03 0.  1.
       11   -1    0    0    0    0 -0.00000000000E+00 -0.00000000000E+00 -0.34996269501E-01  0.35000000000E-01  0.51099999109E-03 0. -1.
       22    1    1    2    0    0  0.15869268877E-03  0.75876438061E-04  0.37908669454E-03  0.41790827378E-03  0.00000000000E+00 0.  1.
       22    1    1    2    0    0 -0.13393726868E-01  0.13132428692E-01  0.29130459659E-01  0.34647312778E-01  0.00000000000E+00 0.  1.
       22    1    1    2    0    0  0.13235034180E-01 -0.13208305130E-01 -0.29509546354E-01  0.34934778948E-01  0.00000000000E+00 0. -1.
</event>
<event>
 5   0  0.4143600E+04  0.9118800E+02  0.7546771E-02  0.1180000E+00
      -11   -1    0    0    0    0  0.00000000000E+00  0.00000000000E+00  0.34996269501E-01  0.35000000000E-01  0.51099999109E-03 0. -1.
       11   -1    0    0    0    0 -0.00000000000E+00 -0.00000000000E+00 -0.34996269501E-01  0.35000000000E-01  0.51099999109E-03 0.  1.
       22    1    1    2    0    0 -0.14414784732E-01 -0.38632370586E-02  0.30078198485E-01  0.33576906402E-01  0.00000000000E+00 0. -1.
       22    1    1    2    0    0 -0.45730586707E-03 -0.55429479062E-03  0.12624742186E-02  0.14526570564E-02  0.00000000000E+00 0.  1.
       22    1    1    2    0    0  0.14872090599E-01  0.44175318492E-02 -0.31340672703E-01  0.34970436542E-01  0.00000000000E+00 0.  1.
</event>
<event>
 5   0  0.4143600E+04  0.9118800E+02  0.7546771E-02  0.1180000E+00
      -11   -1    0    0    0    0  0.00000000000E+00  0.00000000000E+00  0.34996269501E-01  0.35000000000E-01  0.51099999109E-03 0.  1.
       11   -1    0    0    0    0 -0.00000000000E+00 -0.00000000000E+00 -0.34996269501E-01  0.35000000000E-01  0.51099999109E-03 0. -1.
       22    1    1    2    0    0 -0.83329048062E-02  0.17003492489E-01  0.29376861631E-01  0.34950766210E-01  0.00000000000E+00 0.  1.
       22    1    1    2    0    0  0.82930808993E-02 -0.17081338485E-01 -0.29007165617E-01  0.34669337640E-01  0.00000000000E+00 0. -1.
       22    1    1    2    0    0  0.39823906855E-04  0.77845995627E-04 -0.36969601398E-03  0.37989615074E-03  0.00000000000E+00 0. -1.
</event>
<event>
 5   0  0.4143600E+04  0.9118800E+02  0.7546771E-02  0.1180000E+00
      -11   -1    0    0    0    0  0.00000000000E+00  0.00000000000E+00  0.34996269501E-01  0.35000000000E-01  0.51099999109E-03 0. -1.
       11   -1    0    0    0    0 -0.00000000000E+00 -0.00000000000E+00 -0.34996269501E-01  0.35000000000E-01  0.51099999109E-03 0. -1.
       22    1    1    2    0    0  0.21298626994E-03 -0.95230657595E-03 -0.34483179860E-01  0.34496984567E-01  0.00000000000E+00 0. -1.
       22    1    1    2    0    0 -0.38017462475E-03  0.13087219071E-02  0.34901779598E-01  0.34928376786E-01  0.00000000000E+00 0. -1.
       22    1    1    2    0    0  0.16718835482E-03 -0.35641533112E-03 -0.41859973811E-03  0.57463864732E-03  0.00000000000E+00 0. -1.
</event>
<event>
 5   0  0.4143600E+04  0.9118800E+02  0.7546771E-02  0.1180000E+00
      -11   -1    0    0    0    0  0.00000000000E+00  0.00000000000E+00  0.34996269501E-01  0.35000000000E-01  0.51099999109E-03 0. -1.
       11   -1    0    0    0    0 -0.00000000000E+00 -0.00000000000E+00 -0.34996269501E-01  0.35000000000E-01  0.51099999109E-03 0.  1.
       22    1    1    2    0    0 -0.88839172123E-02 -0.15763381537E-01  0.29939292279E-01  0.34982415650E-01  0.00000000000E+00 0. -1.
       22    1    1    2    0    0  0.88319002564E-02  0.15244428844E-01 -0.28747548978E-01  0.33716711660E-01  0.00000000000E+00 0.  1.
       22    1    1    2    0    0  0.52016955914E-04  0.51895269257E-03 -0.11917433008E-02  0.13008726901E-02  0.00000000000E+00 0.  1.
</event>
<event>
 5   0  0.4143600E+04  0.9118800E+02  0.7546771E-02  0.1180000E+00
      -11   -1    0    0    0    0  0.00000000000E+00  0.00000000000E+00  0.34996269501E-01  0.35000000000E-01  0.51099999109E-03 0. -1.
       11   -1    0    0    0    0 -0.00000000000E+00 -0.00000000000E+00 -0.34996269501E-01  0.35000000000E-01  0.51099999109E-03 0.  1.
       22    1    1    2    0    0  0.14352031541E-01 -0.25607230169E-02  0.27842937075E-01  0.31428764797E-01  0.00000000000E+00 0. -1.
       22    1    1    2    0    0 -0.18867083384E-01 -0.18705207381E-02 -0.25605957726E-01  0.31861116652E-01  0.00000000000E+00 0.  1.
       22    1    1    2    0    0  0.45150518425E-02  0.44312437550E-02 -0.22369793489E-02  0.67101185507E-02  0.00000000000E+00 0. -1.
</event>
<event>
 5   0  0.4143600E+04  0.9118800E+02  0.7546771E-02  0.1180000E+00
      -11   -1    0    0    0    0  0.00000000000E+00  0.00000000000E+00  0.34996269501E-01  0.35000000000E-01  0.51099999109E-03 0. -1.
       11   -1    0    0    0    0 -0.00000000000E+00 -0.00000000000E+00 -0.34996269501E-01  0.35000000000E-01  0.51099999109E-03 0.  1.
       22    1    1    2    0    0  0.16685938277E-03  0.16194920986E-03 -0.36067361470E-03  0.42913291243E-03  0.00000000000E+00 0. -1.
       22    1    1    2    0    0 -0.21261607803E-01  0.26708298510E-01  0.67985301535E-02  0.34808177027E-01  0.00000000000E+00 0.  1.
       22    1    1    2    0    0  0.21094748420E-01 -0.26870247720E-01 -0.64378565388E-02  0.34762690061E-01  0.00000000000E+00 0. -1.
</event>
<event>
 5   0  0.4143600E+04  0.9118800E+02  0.7546771E-02  0.1180000E+00
      -11   -1    0    0    0    0  0.00000000000E+00  0.00000000000E+00  0.34996269501E-01  0.35000000000E-01  0.51099999109E-03 0.  1.
       11   -1    0    0    0    0 -0.00000000000E+00 -0.00000000000E+00 -0.34996269501E-01  0.35000000000E-01  0.51099999109E-03 0. -1.
       22    1    1    2    0    0 -0.51053276845E-02  0.14600631761E-01 -0.31210806936E-01  0.34833278459E-01  0.00000000000E+00 0. -1.
       22    1    1    2    0    0 -0.60639690479E-03 -0.60984548621E-03  0.66467665801E-03  0.10869332008E-02  0.00000000000E+00 0.  1.
       22    1    1    2    0    0  0.57117245893E-02 -0.13990786275E-01  0.30546130278E-01  0.34079788340E-01  0.00000000000E+00 0.  1.
</event>
<event>
 5   0  0.4143600E+04  0.9118800E+02  0.7546771E-02  0.1180000E+00
      -11   -1    0    0    0    0  0.00000000000E+00  0.00000000000E+00  0.34996269501E-01  0.35000000000E-01  0.51099999109E-03 0. -1.
       11   -1    0    0    0    0 -0.00000000000E+00 -0.00000000000E+00 -0.34996269501E-01  0.35000000000E-01  0.51099999109E-03 0.  1.
       22    1    1    2    0    0 -0.14266959077E-01 -0.96480684523E-02  0.30008586285E-01  0.34599806315E-01  0.00000000000E+00 0. -1.
       22    1    1    2    0    0  0.82389447623E-04 -0.39901394872E-03  0.26867300855E-03  0.48804235254E-03  0.00000000000E+00 0.  1.
       22    1    1    2    0    0  0.14184569630E-01  0.10047082401E-01 -0.30277259294E-01  0.34912151333E-01  0.00000000000E+00 0.  1.
</event>
<event>
 5   0  0.4143600E+04  0.9118800E+02  0.7546771E-02  0.1180000E+00
      -11   -1    0    0    0    0  0.00000000000E+00  0.00000000000E+00  0.34996269501E-01  0.35000000000E-01  0.51099999109E-03 0. -1.
       11   -1    0    0    0    0 -0.00000000000E+00 -0.00000000000E+00 -0.34996269501E-01  0.35000000000E-01  0.51099999109E-03 0.  1.
       22    1    1    2    0    0  0.11653650994E-02 -0.82088272351E-02 -0.49395790700E-02  0.96510290529E-02  0.00000000000E+00 0. -1.
       22    1    1    2    0    0  0.12884190675E-01  0.24698214781E-02  0.29041390399E-01  0.31866985169E-01  0.00000000000E+00 0. -1.
       22    1    1    2    0    0 -0.14049555775E-01  0.57390057570E-02 -0.24101811329E-01  0.28481985778E-01  0.00000000000E+00 0.  1.
</event>
<event>
 5   0  0.4143600E+04  0.9118800E+02  0.7546771E-02  0.1180000E+00
      -11   -1    0    0    0    0  0.00000000000E+00  0.00000000000E+00  0.34996269501E-01  0.35000000000E-01  0.51099999109E-03 0. -1.
       11   -1    0    0    0    0 -0.00000000000E+00 -0.00000000000E+00 -0.34996269501E-01  0.35000000000E-01  0.51099999109E-03 0.  1.
       22    1    1    2    0    0 -0.85833691880E-02  0.14215700566E-01 -0.30749052906E-01  0.34946596741E-01  0.00000000000E+00 0.  1.
       22    1    1    2    0    0 -0.12845278140E-04  0.10396048685E-04  0.80714994152E-03  0.80731908630E-03  0.00000000000E+00 0.  1.
       22    1    1    2    0    0  0.85962144661E-02 -0.14226096615E-01  0.29941902964E-01  0.34246084172E-01  0.00000000000E+00 0. -1.
</event>
<event>
 5   0  0.4143600E+04  0.9118800E+02  0.7546771E-02  0.1180000E+00
      -11   -1    0    0    0    0  0.00000000000E+00  0.00000000000E+00  0.34996269501E-01  0.35000000000E-01  0.51099999109E-03 0. -1.
       11   -1    0    0    0    0 -0.00000000000E+00 -0.00000000000E+00 -0.34996269501E-01  0.35000000000E-01  0.51099999109E-03 0.  1.
       22    1    1    2    0    0 -0.16381569028E-01  0.15827211349E-01  0.14533017958E-01  0.27019715652E-01  0.00000000000E+00 0. -1.
       22    1    1    2    0    0  0.15142921069E-01 -0.15073011611E-01 -0.24729573353E-01  0.32681118949E-01  0.00000000000E+00 0.  1.
       22    1    1    2    0    0  0.12386479591E-02 -0.75419973813E-03  0.10196555395E-01  0.10299165400E-01  0.00000000000E+00 0. -1.
</event>
<event>
 5   0  0.4143600E+04  0.9118800E+02  0.7546771E-02  0.1180000E+00
      -11   -1    0    0    0    0  0.00000000000E+00  0.00000000000E+00  0.34996269501E-01  0.35000000000E-01  0.51099999109E-03 0. -1.
       11   -1    0    0    0    0 -0.00000000000E+00 -0.00000000000E+00 -0.34996269501E-01  0.35000000000E-01  0.51099999109E-03 0.  1.
       22    1    1    2    0    0  0.29048882857E-05  0.84529191473E-04 -0.38843402555E-03  0.39753567738E-03  0.00000000000E+00 0.  1.
       22    1    1    2    0    0  0.22473470857E-02  0.11175646921E-01  0.33060862906E-01  0.34970935205E-01  0.00000000000E+00 0. -1.
       22    1    1    2    0    0 -0.22502519740E-02 -0.11260176113E-01 -0.32672428881E-01  0.34631529117E-01  0.00000000000E+00 0.  1.
</event>
<event>
 5   0  0.4143600E+04  0.9118800E+02  0.7546771E-02  0.1180000E+00
      -11   -1    0    0    0    0  0.00000000000E+00  0.00000000000E+00  0.34996269501E-01  0.35000000000E-01  0.51099999109E-03 0. -1.
       11   -1    0    0    0    0 -0.00000000000E+00 -0.00000000000E+00 -0.34996269501E-01  0.35000000000E-01  0.51099999109E-03 0.  1.
       22    1    1    2    0    0 -0.19239082919E-03  0.14297352652E-03  0.99884020496E-03  0.10271988198E-02  0.00000000000E+00 0. -1.
       22    1    1    2    0    0 -0.15039717511E-01 -0.49987792605E-02 -0.31090969578E-01  0.34897410881E-01  0.00000000000E+00 0.  1.
       22    1    1    2    0    0  0.15232108340E-01  0.48558057340E-02  0.30092129373E-01  0.34075390299E-01  0.00000000000E+00 0. -1.
</event>
<event>
 5   0  0.4143600E+04  0.9118800E+02  0.7546771E-02  0.1180000E+00
      -11   -1    0    0    0    0  0.00000000000E+00  0.00000000000E+00  0.34996269501E-01  0.35000000000E-01  0.51099999109E-03 0.  1.
       11   -1    0    0    0    0 -0.00000000000E+00 -0.00000000000E+00 -0.34996269501E-01  0.35000000000E-01  0.51099999109E-03 0. -1.
       22    1    1    2    0    0 -0.14249484428E-01  0.10727298105E-01 -0.27070693286E-01  0.32418284441E-01  0.00000000000E+00 0. -1.
       22    1    1    2    0    0  0.14712679987E-01 -0.11538010974E-01  0.11432212289E-01  0.21915385633E-01  0.00000000000E+00 0.  1.
       22    1    1    2    0    0 -0.46319555845E-03  0.81071286930E-03  0.15638480996E-01  0.15666329926E-01  0.00000000000E+00 0. -1.
</event>
<event>
 5   0  0.4143600E+04  0.9118800E+02  0.7546771E-02  0.1180000E+00
      -11   -1    0    0    0    0  0.00000000000E+00  0.00000000000E+00  0.34996269501E-01  0.35000000000E-01  0.51099999109E-03 0.  1.
       11   -1    0    0    0    0 -0.00000000000E+00 -0.00000000000E+00 -0.34996269501E-01  0.35000000000E-01  0.51099999109E-03 0. -1.
       22    1    1    2    0    0  0.58174402997E-03  0.14420963845E-01  0.10973109625E-01  0.18130409791E-01  0.00000000000E+00 0.  1.
       22    1    1    2    0    0 -0.11208678850E-01 -0.11465645232E-01 -0.27598322238E-01  0.31918065300E-01  0.00000000000E+00 0. -1.
       22    1    1    2    0    0  0.10626934820E-01 -0.29553186133E-02  0.16625212613E-01  0.19951524909E-01  0.00000000000E+00 0.  1.
</event>
<event>
 5   0  0.4143600E+04  0.9118800E+02  0.7546771E-02  0.1180000E+00
      -11   -1    0    0    0    0  0.00000000000E+00  0.00000000000E+00  0.34996269501E-01  0.35000000000E-01  0.51099999109E-03 0.  1.
       11   -1    0    0    0    0 -0.00000000000E+00 -0.00000000000E+00 -0.34996269501E-01  0.35000000000E-01  0.51099999109E-03 0. -1.
       22    1    1    2    0    0  0.15589852167E-01  0.64158680183E-02  0.48772692191E-02  0.17549775157E-01  0.00000000000E+00 0. -1.
       22    1    1    2    0    0 -0.24308844155E-01 -0.54327829025E-02  0.16136190164E-01  0.29678471444E-01  0.00000000000E+00 0.  1.
       22    1    1    2    0    0  0.87189919883E-02 -0.98308511576E-03 -0.21013459383E-01  0.22771753399E-01  0.00000000000E+00 0. -1.
</event>
<event>
 5   0  0.4143600E+04  0.9118800E+02  0.7546771E-02  0.1180000E+00
      -11   -1    0    0    0    0  0.00000000000E+00  0.00000000000E+00  0.34996269501E-01  0.35000000000E-01  0.51099999109E-03 0. -1.
       11   -1    0    0    0    0 -0.00000000000E+00 -0.00000000000E+00 -0.34996269501E-01  0.35000000000E-01  0.51099999109E-03 0.  1.
       22    1    1    2    0    0  0.12046605437E-01 -0.70676931102E-02 -0.19539616111E-01  0.24018109547E-01  0.00000000000E+00 0.  1.
       22    1    1    2    0    0 -0.12135086608E-01  0.74708452531E-02  0.31207258233E-01  0.34306950057E-01  0.00000000000E+00 0. -1.
       22    1    1    2    0    0  0.88481171471E-04 -0.40315214284E-03 -0.11667642122E-01  0.11674940396E-01  0.00000000000E+00 0.  1.
</event>
<event>
 5   0  0.4143600E+04  0.9118800E+02  0.7546771E-02  0.1180000E+00
      -11   -1    0    0    0    0  0.00000000000E+00  0.00000000000E+00  0.34996269501E-01  0.35000000000E-01  0.51099999109E-03 0. -1.
       11   -1    0    0    0    0 -0.00000000000E+00 -0.00000000000E+00 -0.34996269501E-01  0.35000000000E-01  0.51099999109E-03 0.  1.
       22    1    1    2    0    0  0.24553383177E-02 -0.50494654654E-03 -0.33087644245E-02  0.41510937458E-02  0.00000000000E+00 0. -1.
       22    1    1    2    0    0 -0.55133005679E-02 -0.65175940107E-02 -0.30247760004E-01  0.31429325479E-01  0.00000000000E+00 0.  1.
       22    1    1    2    0    0  0.30579622501E-02  0.70225405572E-02  0.33556524428E-01  0.34419580775E-01  0.00000000000E+00 0. -1.
</event>
<event>
 5   0  0.4143600E+04  0.9118800E+02  0.7546771E-02  0.1180000E+00
      -11   -1    0    0    0    0  0.00000000000E+00  0.00000000000E+00  0.34996269501E-01  0.35000000000E-01  0.51099999109E-03 0. -1.
       11   -1    0    0    0    0 -0.00000000000E+00 -0.00000000000E+00 -0.34996269501E-01  0.35000000000E-01  0.51099999109E-03 0.  1.
       22    1    1    2    0    0  0.17611689310E-01 -0.88546619103E-02 -0.28837470248E-01  0.34931022433E-01  0.00000000000E+00 0.  1.
       22    1    1    2    0    0 -0.60437436502E-04  0.14578074264E-03  0.10887689664E-02  0.11001466133E-02  0.00000000000E+00 0. -1.
       22    1    1    2    0    0 -0.17551251874E-01  0.87088811676E-02  0.27748701282E-01  0.33968830954E-01  0.00000000000E+00 0. -1.
</event>
<event>
 5   0  0.4143600E+04  0.9118800E+02  0.7546771E-02  0.1180000E+00
      -11   -1    0    0    0    0  0.00000000000E+00  0.00000000000E+00  0.34996269501E-01  0.35000000000E-01  0.51099999109E-03 0. -1.
       11   -1    0    0    0    0 -0.00000000000E+00 -0.00000000000E+00 -0.34996269501E-01  0.35000000000E-01  0.51099999109E-03 0.  1.
       22    1    1    2    0    0  0.19494449422E-03  0.12699318103E-03 -0.26294597427E-03  0.35109999892E-03  0.00000000000E+00 0. -1.
       22    1    1    2    0    0  0.15988832863E-02  0.90695663689E-02  0.33693834772E-01  0.34929757565E-01  0.00000000000E+00 0. -1.
       22    1    1    2    0    0 -0.17938277805E-02 -0.91965595500E-02 -0.33430888798E-01  0.34719142436E-01  0.00000000000E+00 0.  1.
</event>
<event>
 5   0  0.4143600E+04  0.9118800E+02  0.7546771E-02  0.1180000E+00
      -11   -1    0    0    0    0  0.00000000000E+00  0.00000000000E+00  0.34996269501E-01  0.35000000000E-01  0.51099999109E-03 0.  1.
       11   -1    0    0    0    0 -0.00000000000E+00 -0.00000000000E+00 -0.34996269501E-01  0.35000000000E-01  0.51099999109E-03 0. -1.
       22    1    1    2    0    0  0.21542169091E-01  0.11390756535E-01 -0.24891693109E-01  0.34834046125E-01  0.00000000000E+00 0. -1.
       22    1    1    2    0    0  0.40429532799E-04  0.55360774130E-04  0.97629401249E-03  0.97869778852E-03  0.00000000000E+00 0. -1.
       22    1    1    2    0    0 -0.21582598624E-01 -0.11446117309E-01  0.23915399097E-01  0.34187256087E-01  0.00000000000E+00 0.  1.
</event>
<event>
 5   0  0.4143600E+04  0.9118800E+02  0.7546771E-02  0.1180000E+00
      -11   -1    0    0    0    0  0.00000000000E+00  0.00000000000E+00  0.34996269501E-01  0.35000000000E-01  0.51099999109E-03 0.  1.
       11   -1    0    0    0    0 -0.00000000000E+00 -0.00000000000E+00 -0.34996269501E-01  0.35000000000E-01  0.51099999109E-03 0. -1.
       22    1    1    2    0    0 -0.12618312135E-01  0.68221443911E-02 -0.19059552510E-01  0.23854349648E-01  0.00000000000E+00 0. -1.
       22    1    1    2    0    0 -0.65995220282E-03  0.67807524081E-03 -0.11739635508E-01  0.11777706263E-01  0.00000000000E+00 0. -1.
       22    1    1    2    0    0  0.13278264338E-01 -0.75002196319E-02  0.30799188018E-01  0.34367944090E-01  0.00000000000E+00 0.  1.
</event>
<event>
 5   0  0.4143600E+04  0.9118800E+02  0.7546771E-02  0.1180000E+00
      -11   -1    0    0    0    0  0.00000000000E+00  0.00000000000E+00  0.34996269501E-01  0.35000000000E-01  0.51099999109E-03 0. -1.
       11   -1    0    0    0    0 -0.00000000000E+00 -0.00000000000E+00 -0.34996269501E-01  0.35000000000E-01  0.51099999109E-03 0.  1.
       22    1    1    2    0    0  0.21055524091E-01  0.62141377551E-02  0.27051753883E-01  0.34838886190E-01  0.00000000000E+00 0. -1.
       22    1    1    2    0    0 -0.23002540497E-03  0.41156276473E-03 -0.13179513964E-02  0.13997469341E-02  0.00000000000E+00 0.  1.
       22    1    1    2    0    0 -0.20825498686E-01 -0.66257005199E-02 -0.25733802487E-01  0.33761366876E-01  0.00000000000E+00 0.  1.
</event>
<event>
 5   0  0.4143600E+04  0.9118800E+02  0.7546771E-02  0.1180000E+00
      -11   -1    0    0    0    0  0.00000000000E+00  0.00000000000E+00  0.34996269501E-01  0.35000000000E-01  0.51099999109E-03 0. -1.
       11   -1    0    0    0    0 -0.00000000000E+00 -0.00000000000E+00 -0.34996269501E-01  0.35000000000E-01  0.51099999109E-03 0.  1.
       22    1    1    2    0    0 -0.76807587967E-04 -0.34710329501E-03 -0.86023771342E-03  0.93080020765E-03  0.00000000000E+00 0. -1.
       22    1    1    2    0    0  0.65021420592E-02  0.49721068643E-02 -0.33152103851E-01  0.34147645420E-01  0.00000000000E+00 0.  1.
       22    1    1    2    0    0 -0.64253344713E-02 -0.46250035692E-02  0.34012341564E-01  0.34921554372E-01  0.00000000000E+00 0. -1.
</event>
<event>
 5   0  0.4143600E+04  0.9118800E+02  0.7546771E-02  0.1180000E+00
      -11   -1    0    0    0    0  0.00000000000E+00  0.00000000000E+00  0.34996269501E-01  0.35000000000E-01  0.51099999109E-03 0.  1.
       11   -1    0    0    0    0 -0.00000000000E+00 -0.00000000000E+00 -0.34996269501E-01  0.35000000000E-01  0.51099999109E-03 0. -1.
       22    1    1    2    0    0 -0.12075912898E-01  0.23217770483E-01  0.22573529885E-01  0.34560914195E-01  0.00000000000E+00 0.  1.
       22    1    1    2    0    0  0.26490293497E-02 -0.56408274057E-02 -0.14725719565E-02  0.64034958018E-02  0.00000000000E+00 0. -1.
       22    1    1    2    0    0  0.94268835484E-02 -0.17576943077E-01 -0.21100957928E-01  0.29035590004E-01  0.00000000000E+00 0. -1.
</event>
<event>
 5   0  0.4143600E+04  0.9118800E+02  0.7546771E-02  0.1180000E+00
      -11   -1    0    0    0    0  0.00000000000E+00  0.00000000000E+00  0.34996269501E-01  0.35000000000E-01  0.51099999109E-03 0.  1.
       11   -1    0    0    0    0 -0.00000000000E+00 -0.00000000000E+00 -0.34996269501E-01  0.35000000000E-01  0.51099999109E-03 0. -1.
       22    1    1    2    0    0  0.25552507759E-04  0.14424986022E-03 -0.29357147126E-03  0.32809322085E-03  0.00000000000E+00 0. -1.
       22    1    1    2    0    0  0.35651285268E-02 -0.40423724492E-04  0.34798412651E-01  0.34980584594E-01  0.00000000000E+00 0.  1.
       22    1    1    2    0    0 -0.35906810346E-02 -0.10382613573E-03 -0.34504841180E-01  0.34691322186E-01  0.00000000000E+00 0. -1.
</event>
<event>
 5   0  0.4143600E+04  0.9118800E+02  0.7546771E-02  0.1180000E+00
      -11   -1    0    0    0    0  0.00000000000E+00  0.00000000000E+00  0.34996269501E-01  0.35000000000E-01  0.51099999109E-03 0.  1.
       11   -1    0    0    0    0 -0.00000000000E+00 -0.00000000000E+00 -0.34996269501E-01  0.35000000000E-01  0.51099999109E-03 0. -1.
       22    1    1    2    0    0 -0.57107311612E-02 -0.22259546331E-01 -0.25613835563E-01  0.34411748364E-01  0.00000000000E+00 0. -1.
       22    1    1    2    0    0 -0.16049828537E-03 -0.22229938069E-04 -0.63797504368E-03  0.65822946312E-03  0.00000000000E+00 0. -1.
       22    1    1    2    0    0  0.58712294466E-02  0.22281776269E-01  0.26251810606E-01  0.34930022173E-01  0.00000000000E+00 0.  1.
</event>
<event>
 5   0  0.4143600E+04  0.9118800E+02  0.7546771E-02  0.1180000E+00
      -11   -1    0    0    0    0  0.00000000000E+00  0.00000000000E+00  0.34996269501E-01  0.35000000000E-01  0.51099999109E-03 0.  1.
       11   -1    0    0    0    0 -0.00000000000E+00 -0.00000000000E+00 -0.34996269501E-01  0.35000000000E-01  0.51099999109E-03 0. -1.
       22    1    1    2    0    0 -0.67404657066E-02 -0.10002197890E-01 -0.32711073997E-01  0.34863909743E-01  0.00000000000E+00 0. -1.
       22    1    1    2    0    0  0.68396310536E-02  0.89324078634E-02  0.31786381390E-01  0.33718578040E-01  0.00000000000E+00 0.  1.
       22    1    1    2    0    0 -0.99165346944E-04  0.10697900265E-02  0.92469260679E-03  0.14175122165E-02  0.00000000000E+00 0. -1.
</event>
<event>
 5   0  0.4143600E+04  0.9118800E+02  0.7546771E-02  0.1180000E+00
      -11   -1    0    0    0    0  0.00000000000E+00  0.00000000000E+00  0.34996269501E-01  0.35000000000E-01  0.51099999109E-03 0. -1.
       11   -1    0    0    0    0 -0.00000000000E+00 -0.00000000000E+00 -0.34996269501E-01  0.35000000000E-01  0.51099999109E-03 0.  1.
       22    1    1    2    0    0  0.19917762683E-01 -0.13524933113E-01  0.25074485373E-01  0.34761629748E-01  0.00000000000E+00 0. -1.
       22    1    1    2    0    0 -0.14441481335E-03  0.10051590200E-02 -0.11367452338E-03  0.10218229744E-02  0.00000000000E+00 0.  1.
       22    1    1    2    0    0 -0.19773347870E-01  0.12519774093E-01 -0.24960810849E-01  0.34216547278E-01  0.00000000000E+00 0.  1.
</event>
<event>
 5   0  0.4143600E+04  0.9118800E+02  0.7546771E-02  0.1180000E+00
      -11   -1    0    0    0    0  0.00000000000E+00  0.00000000000E+00  0.34996269501E-01  0.35000000000E-01  0.51099999109E-03 0.  1.
       11   -1    0    0    0    0 -0.00000000000E+00 -0.00000000000E+00 -0.34996269501E-01  0.35000000000E-01  0.51099999109E-03 0. -1.
       22    1    1    2    0    0 -0.24208759604E-03  0.31144447953E-02  0.15920715015E-01  0.16224288563E-01  0.00000000000E+00 0.  1.
       22    1    1    2    0    0 -0.80908982005E-02 -0.15998152071E-01 -0.28678516322E-01  0.33821011248E-01  0.00000000000E+00 0. -1.
       22    1    1    2    0    0  0.83329857966E-02  0.12883707276E-01  0.12757801307E-01  0.19954700189E-01  0.00000000000E+00 0.  1.
</event>
<event>
 5   0  0.4143600E+04  0.9118800E+02  0.7546771E-02  0.1180000E+00
      -11   -1    0    0    0    0  0.00000000000E+00  0.00000000000E+00  0.34996269501E-01  0.35000000000E-01  0.51099999109E-03 0. -1.
       11   -1    0    0    0    0 -0.00000000000E+00 -0.00000000000E+00 -0.34996269501E-01  0.35000000000E-01  0.51099999109E-03 0.  1.
       22    1    1    2    0    0 -0.61682251702E-03  0.10016792243E-02  0.46886259379E-02  0.48339470902E-02  0.00000000000E+00 0. -1.
       22    1    1    2    0    0  0.15114031328E-01 -0.49223544422E-03  0.26645191192E-01  0.30637272274E-01  0.00000000000E+00 0. -1.
       22    1    1    2    0    0 -0.14497208811E-01 -0.50944378009E-03 -0.31333817130E-01  0.34528780636E-01  0.00000000000E+00 0.  1.
</event>
<event>
 5   0  0.4143600E+04  0.9118800E+02  0.7546771E-02  0.1180000E+00
      -11   -1    0    0    0    0  0.00000000000E+00  0.00000000000E+00  0.34996269501E-01  0.35000000000E-01  0.51099999109E-03 0. -1.
       11   -1    0    0    0    0 -0.00000000000E+00 -0.00000000000E+00 -0.34996269501E-01  0.35000000000E-01  0.51099999109E-03 0.  1.
       22    1    1    2    0    0  0.22952213013E-03 -0.56455958531E-04 -0.36970954018E-03  0.43880841785E-03  0.00000000000E+00 0. -1.
       22    1    1    2    0    0 -0.18177220724E-01  0.17909641388E-01 -0.23556396720E-01  0.34728524794E-01  0.00000000000E+00 0.  1.
       22    1    1    2    0    0  0.17947698594E-01 -0.17853185429E-01  0.23926106261E-01  0.34832666788E-01  0.00000000000E+00 0. -1.
</event>
<event>
 5   0  0.4143600E+04  0.9118800E+02  0.7546771E-02  0.1180000E+00
      -11   -1    0    0    0    0  0.00000000000E+00  0.00000000000E+00  0.34996269501E-01  0.35000000000E-01  0.51099999109E-03 0.  1.
       11   -1    0    0    0    0 -0.00000000000E+00 -0.00000000000E+00 -0.34996269501E-01  0.35000000000E-01  0.51099999109E-03 0.  1.
       22    1    1    2    0    0  0.15399257383E-03  0.11245495288E-03 -0.34569306578E-01  0.34569832472E-01  0.00000000000E+00 0.  1.
       22    1    1    2    0    0  0.00000000000E+00  0.00000000000E+00  0.34980416343E-01  0.34976988681E-01  0.00000000000E+00 0.  1.
       22    1    1    2    0    0 -0.15399257383E-03 -0.11245495288E-03 -0.41110976517E-03  0.45317884796E-03  0.00000000000E+00 0. -1.
</event>
<event>
 5   0  0.4143600E+04  0.9118800E+02  0.7546771E-02  0.1180000E+00
      -11   -1    0    0    0    0  0.00000000000E+00  0.00000000000E+00  0.34996269501E-01  0.35000000000E-01  0.51099999109E-03 0. -1.
       11   -1    0    0    0    0 -0.00000000000E+00 -0.00000000000E+00 -0.34996269501E-01  0.35000000000E-01  0.51099999109E-03 0.  1.
       22    1    1    2    0    0 -0.52345272591E-03 -0.20880168067E-01 -0.24123633255E-01  0.31909326265E-01  0.00000000000E+00 0.  1.
       22    1    1    2    0    0  0.63556995652E-03 -0.43550538026E-04  0.15412658293E-01  0.15425818664E-01  0.00000000000E+00 0.  1.
       22    1    1    2    0    0 -0.11211723062E-03  0.20923718605E-01  0.87109749627E-02  0.22664855070E-01  0.00000000000E+00 0. -1.
</event>
<event>
 5   0  0.4143600E+04  0.9118800E+02  0.7546771E-02  0.1180000E+00
      -11   -1    0    0    0    0  0.00000000000E+00  0.00000000000E+00  0.34996269501E-01  0.35000000000E-01  0.51099999109E-03 0.  1.
       11   -1    0    0    0    0 -0.00000000000E+00 -0.00000000000E+00 -0.34996269501E-01  0.35000000000E-01  0.51099999109E-03 0. -1.
       22    1    1    2    0    0  0.36603496951E-02 -0.15165548445E-04 -0.34150391685E-01  0.34345998924E-01  0.00000000000E+00 0. -1.
       22    1    1    2    0    0 -0.34310568130E-02 -0.16985502009E-03  0.34785061380E-01  0.34954277231E-01  0.00000000000E+00 0.  1.
       22    1    1    2    0    0 -0.22929288211E-03  0.18502056853E-03 -0.63466969492E-03  0.69972384425E-03  0.00000000000E+00 0.  1.
</event>
<event>
 5   0  0.4143600E+04  0.9118800E+02  0.7546771E-02  0.1180000E+00
      -11   -1    0    0    0    0  0.00000000000E+00  0.00000000000E+00  0.34996269501E-01  0.35000000000E-01  0.51099999109E-03 0.  1.
       11   -1    0    0    0    0 -0.00000000000E+00 -0.00000000000E+00 -0.34996269501E-01  0.35000000000E-01  0.51099999109E-03 0. -1.
       22    1    1    2    0    0 -0.39822665544E-02  0.82608748412E-02  0.33288864604E-01  0.34528958957E-01  0.00000000000E+00 0.  1.
       22    1    1    2    0    0  0.30537822692E-02 -0.91789838557E-02 -0.21092982161E-01  0.23205456841E-01  0.00000000000E+00 0. -1.
       22    1    1    2    0    0  0.92848428515E-03  0.91810901457E-03 -0.12195882443E-01  0.12265584202E-01  0.00000000000E+00 0.  1.
</event>
<event>
 5   0  0.4143600E+04  0.9118800E+02  0.7546771E-02  0.1180000E+00
      -11   -1    0    0    0    0  0.00000000000E+00  0.00000000000E+00  0.34996269501E-01  0.35000000000E-01  0.51099999109E-03 0. -1.
       11   -1    0    0    0    0 -0.00000000000E+00 -0.00000000000E+00 -0.34996269501E-01  0.35000000000E-01  0.51099999109E-03 0.  1.
       22    1    1    2    0    0  0.10048331850E-01  0.13212039423E-03 -0.18832853392E-01  0.21346259524E-01  0.00000000000E+00 0.  1.
       22    1    1    2    0    0  0.46443453560E-02 -0.85105357179E-03 -0.12867569956E-01  0.13706516426E-01  0.00000000000E+00 0.  1.
       22    1    1    2    0    0 -0.14692677206E-01  0.71893317756E-03  0.31700423348E-01  0.34947224050E-01  0.00000000000E+00 0. -1.
</event>
<event>
 5   0  0.4143600E+04  0.9118800E+02  0.7546771E-02  0.1180000E+00
      -11   -1    0    0    0    0  0.00000000000E+00  0.00000000000E+00  0.34996269501E-01  0.35000000000E-01  0.51099999109E-03 0. -1.
       11   -1    0    0    0    0 -0.00000000000E+00 -0.00000000000E+00 -0.34996269501E-01  0.35000000000E-01  0.51099999109E-03 0.  1.
       22    1    1    2    0    0 -0.11159694094E-02 -0.51042364324E-03 -0.10233090419E-01  0.10306408664E-01  0.00000000000E+00 0.  1.
       22    1    1    2    0    0 -0.12164271880E-01 -0.11163727564E-01 -0.19221636536E-01  0.25339093011E-01  0.00000000000E+00 0.  1.
       22    1    1    2    0    0  0.13280241289E-01  0.11674151207E-01  0.29454726956E-01  0.34354498325E-01  0.00000000000E+00 0. -1.
</event>
<event>
 5   0  0.4143600E+04  0.9118800E+02  0.7546771E-02  0.1180000E+00
      -11   -1    0    0    0    0  0.00000000000E+00  0.00000000000E+00  0.34996269501E-01  0.35000000000E-01  0.51099999109E-03 0.  1.
       11   -1    0    0    0    0 -0.00000000000E+00 -0.00000000000E+00 -0.34996269501E-01  0.35000000000E-01  0.51099999109E-03 0. -1.
       22    1    1    2    0    0 -0.18782164229E-01 -0.41018208507E-02 -0.81210736569E-03  0.19241989132E-01  0.00000000000E+00 0. -1.
       22    1    1    2    0    0  0.15419630723E-01  0.25678101434E-03 -0.22286143704E-01  0.27101718567E-01  0.00000000000E+00 0.  1.
       22    1    1    2    0    0  0.33625335057E-02  0.38450398364E-02  0.23098251070E-01  0.23656292300E-01  0.00000000000E+00 0.  1.
</event>
<event>
 5   0  0.4143600E+04  0.9118800E+02  0.7546771E-02  0.1180000E+00
      -11   -1    0    0    0    0  0.00000000000E+00  0.00000000000E+00  0.34996269501E-01  0.35000000000E-01  0.51099999109E-03 0.  1.
       11   -1    0    0    0    0 -0.00000000000E+00 -0.00000000000E+00 -0.34996269501E-01  0.35000000000E-01  0.51099999109E-03 0.  1.
       22    1    1    2    0    0  0.42361107302E-02 -0.10584977156E-01  0.12446670594E-01  0.16879158284E-01  0.00000000000E+00 0. -1.
       22    1    1    2    0    0 -0.44000601183E-02  0.10778313291E-01 -0.31749363252E-01  0.33816484639E-01  0.00000000000E+00 0.  1.
       22    1    1    2    0    0  0.16394938811E-03 -0.19333613502E-03  0.19302692658E-01  0.19304357076E-01  0.00000000000E+00 0.  1.
</event>
<event>
 5   0  0.4143600E+04  0.9118800E+02  0.7546771E-02  0.1180000E+00
      -11   -1    0    0    0    0  0.00000000000E+00  0.00000000000E+00  0.34996269501E-01  0.35000000000E-01  0.51099999109E-03 0. -1.
       11   -1    0    0    0    0 -0.00000000000E+00 -0.00000000000E+00 -0.34996269501E-01  0.35000000000E-01  0.51099999109E-03 0.  1.
       22    1    1    2    0    0  0.28228464707E-02 -0.22538151659E-01  0.25082023354E-01  0.33838508211E-01  0.00000000000E+00 0. -1.
       22    1    1    2    0    0 -0.45507302947E-02  0.11658740781E-01 -0.20935415621E-01  0.24391125641E-01  0.00000000000E+00 0.  1.
       22    1    1    2    0    0  0.17278838239E-02  0.10879410879E-01 -0.41466077328E-02  0.11770366148E-01  0.00000000000E+00 0.  1.
</event>
<event>
 5   0  0.4143600E+04  0.9118800E+02  0.7546771E-02  0.1180000E+00
      -11   -1    0    0    0    0  0.00000000000E+00  0.00000000000E+00  0.34996269501E-01  0.35000000000E-01  0.51099999109E-03 0.  1.
       11   -1    0    0    0    0 -0.00000000000E+00 -0.00000000000E+00 -0.34996269501E-01  0.35000000000E-01  0.51099999109E-03 0. -1.
       22    1    1    2    0    0  0.52625284595E-02 -0.14371073522E-01  0.29511009355E-01  0.33243369762E-01  0.00000000000E+00 0.  1.
       22    1    1    2    0    0 -0.82604343698E-05 -0.31920027902E-03  0.17711638585E-02  0.17997162184E-02  0.00000000000E+00 0.  1.
       22    1    1    2    0    0 -0.52542680251E-02  0.14690273801E-01 -0.31282173214E-01  0.34956914020E-01  0.00000000000E+00 0. -1.
</event>
<event>
 5   0  0.4143600E+04  0.9118800E+02  0.7546771E-02  0.1180000E+00
      -11   -1    0    0    0    0  0.00000000000E+00  0.00000000000E+00  0.34996269501E-01  0.35000000000E-01  0.51099999109E-03 0.  1.
       11   -1    0    0    0    0 -0.00000000000E+00 -0.00000000000E+00 -0.34996269501E-01  0.35000000000E-01  0.51099999109E-03 0. -1.
       22    1    1    2    0    0  0.56533667653E-03 -0.13555972068E-01 -0.32215359893E-01  0.34955877865E-01  0.00000000000E+00 0. -1.
       22    1    1    2    0    0 -0.26309719366E-03  0.74230093477E-04  0.35997255166E-03  0.45200716591E-03  0.00000000000E+00 0.  1.
       22    1    1    2    0    0 -0.30223948287E-03  0.13481741975E-01  0.31855387341E-01  0.34592114969E-01  0.00000000000E+00 0.  1.
</event>
<event>
 5   0  0.4143600E+04  0.9118800E+02  0.7546771E-02  0.1180000E+00
      -11   -1    0    0    0    0  0.00000000000E+00  0.00000000000E+00  0.34996269501E-01  0.35000000000E-01  0.51099999109E-03 0. -1.
       11   -1    0    0    0    0 -0.00000000000E+00 -0.00000000000E+00 -0.34996269501E-01  0.35000000000E-01  0.51099999109E-03 0.  1.
       22    1    1    2    0    0 -0.37600191528E-03 -0.26741277762E-03  0.57550408085E-02  0.57735068842E-02  0.00000000000E+00 0.  1.
       22    1    1    2    0    0  0.19896970499E-02 -0.16167824202E-01  0.24696609177E-01  0.29585130363E-01  0.00000000000E+00 0. -1.
       22    1    1    2    0    0 -0.16136951347E-02  0.16435236979E-01 -0.30451649985E-01  0.34641362753E-01  0.00000000000E+00 0.  1.
</event>
<event>
 5   0  0.4143600E+04  0.9118800E+02  0.7546771E-02  0.1180000E+00
      -11   -1    0    0    0    0  0.00000000000E+00  0.00000000000E+00  0.34996269501E-01  0.35000000000E-01  0.51099999109E-03 0. -1.
       11   -1    0    0    0    0 -0.00000000000E+00 -0.00000000000E+00 -0.34996269501E-01  0.35000000000E-01  0.51099999109E-03 0.  1.
       22    1    1    2    0    0 -0.41199709234E-03 -0.52593656832E-04 -0.10864635622E-02  0.11631469249E-02  0.00000000000E+00 0.  1.
       22    1    1    2    0    0  0.14585473502E-02 -0.24939629721E-02 -0.33759193545E-01  0.33882596720E-01  0.00000000000E+00 0.  1.
       22    1    1    2    0    0 -0.10465502578E-02  0.25465566289E-02  0.34845657107E-01  0.34954256355E-01  0.00000000000E+00 0. -1.
</event>
<event>
 5   0  0.4143600E+04  0.9118800E+02  0.7546771E-02  0.1180000E+00
      -11   -1    0    0    0    0  0.00000000000E+00  0.00000000000E+00  0.34996269501E-01  0.35000000000E-01  0.51099999109E-03 0.  1.
       11   -1    0    0    0    0 -0.00000000000E+00 -0.00000000000E+00 -0.34996269501E-01  0.35000000000E-01  0.51099999109E-03 0. -1.
       22    1    1    2    0    0 -0.10291771932E-01  0.11023309835E-01 -0.31178295278E-01  0.34634087625E-01  0.00000000000E+00 0. -1.
       22    1    1    2    0    0  0.29665237699E-02  0.29273831256E-03  0.82055638255E-02  0.87302483752E-02  0.00000000000E+00 0.  1.
       22    1    1    2    0    0  0.73252481619E-02 -0.11316048147E-01  0.22972731452E-01  0.26635663999E-01  0.00000000000E+00 0.  1.
</event>
<event>
 5   0  0.4143600E+04  0.9118800E+02  0.7546771E-02  0.1180000E+00
      -11   -1    0    0    0    0  0.00000000000E+00  0.00000000000E+00  0.34996269501E-01  0.35000000000E-01  0.51099999109E-03 0. -1.
       11   -1    0    0    0    0 -0.00000000000E+00 -0.00000000000E+00 -0.34996269501E-01  0.35000000000E-01  0.51099999109E-03 0. -1.
       22    1    1    2    0    0  0.00000000000E+00 -0.00000000000E+00  0.34991321385E-01  0.34990181487E-01  0.00000000000E+00 0. -1.
       22    1    1    2    0    0  0.10349797547E-03 -0.31765089455E-04 -0.34680735388E-01  0.34680904370E-01  0.00000000000E+00 0. -1.
       22    1    1    2    0    0 -0.10349797547E-03  0.31765089455E-04 -0.31058599659E-03  0.32891414246E-03  0.00000000000E+00 0. -1.
</event>
<event>
 5   0  0.4143600E+04  0.9118800E+02  0.7546771E-02  0.1180000E+00
      -11   -1    0    0    0    0  0.00000000000E+00  0.00000000000E+00  0.34996269501E-01  0.35000000000E-01  0.51099999109E-03 0.  1.
       11   -1    0    0    0    0 -0.00000000000E+00 -0.00000000000E+00 -0.34996269501E-01  0.35000000000E-01  0.51099999109E-03 0. -1.
       22    1    1    2    0    0 -0.30485229291E-02  0.14442645012E-01 -0.31066341597E-01  0.34394782558E-01  0.00000000000E+00 0. -1.
       22    1    1    2    0    0  0.30509460753E-02 -0.14924805330E-01  0.31478590196E-01  0.34970841094E-01  0.00000000000E+00 0.  1.
       22    1    1    2    0    0 -0.24231461755E-05  0.48216031845E-03 -0.41224859902E-03  0.63437634865E-03  0.00000000000E+00 0. -1.
</event>
<event>
 5   0  0.4143600E+04  0.9118800E+02  0.7546771E-02  0.1180000E+00
      -11   -1    0    0    0    0  0.00000000000E+00  0.00000000000E+00  0.34996269501E-01  0.35000000000E-01  0.51099999109E-03 0. -1.
       11   -1    0    0    0    0 -0.00000000000E+00 -0.00000000000E+00 -0.34996269501E-01  0.35000000000E-01  0.51099999109E-03 0.  1.
       22    1    1    2    0    0  0.26175240713E-02 -0.28177675939E-02  0.33819163332E-01  0.34037142286E-01  0.00000000000E+00 0. -1.
       22    1    1    2    0    0 -0.59289685431E-02  0.19999381010E-02 -0.93090579435E-02  0.11216549389E-01  0.00000000000E+00 0.  1.
       22    1    1    2    0    0  0.33114444717E-02  0.81782949287E-03 -0.24510105389E-01  0.24746308326E-01  0.00000000000E+00 0.  1.
</event>
<event>
 5   0  0.4143600E+04  0.9118800E+02  0.7546771E-02  0.1180000E+00
      -11   -1    0    0    0    0  0.00000000000E+00  0.00000000000E+00  0.34996269501E-01  0.35000000000E-01  0.51099999109E-03 0.  1.
       11   -1    0    0    0    0 -0.00000000000E+00 -0.00000000000E+00 -0.34996269501E-01  0.35000000000E-01  0.51099999109E-03 0. -1.
       22    1    1    2    0    0  0.26052839231E-02  0.10625125540E-01  0.29819440159E-01  0.31762868392E-01  0.00000000000E+00 0.  1.
       22    1    1    2    0    0 -0.30527450418E-02 -0.11869693034E-01 -0.32779103790E-01  0.34995406989E-01  0.00000000000E+00 0. -1.
       22    1    1    2    0    0  0.44746111865E-03  0.12445674942E-02  0.29596636312E-02  0.32417246197E-02  0.00000000000E+00 0. -1.
</event>
<event>
 5   0  0.4143600E+04  0.9118800E+02  0.7546771E-02  0.1180000E+00
      -11   -1    0    0    0    0  0.00000000000E+00  0.00000000000E+00  0.34996269501E-01  0.35000000000E-01  0.51099999109E-03 0.  1.
       11   -1    0    0    0    0 -0.00000000000E+00 -0.00000000000E+00 -0.34996269501E-01  0.35000000000E-01  0.51099999109E-03 0. -1.
       22    1    1    2    0    0 -0.84095846405E-02  0.92874680935E-02 -0.32672335305E-01  0.34992280173E-01  0.00000000000E+00 0. -1.
       22    1    1    2    0    0  0.83250387642E-02 -0.92359109302E-02  0.32048557746E-01  0.34376130886E-01  0.00000000000E+00 0.  1.
       22    1    1    2    0    0  0.84545876307E-04 -0.51557163262E-04  0.62377755945E-03  0.63158894066E-03  0.00000000000E+00 0.  1.
</event>
<event>
 5   0  0.4143600E+04  0.9118800E+02  0.7546771E-02  0.1180000E+00
      -11   -1    0    0    0    0  0.00000000000E+00  0.00000000000E+00  0.34996269501E-01  0.35000000000E-01  0.51099999109E-03 0.  1.
       11   -1    0    0    0    0 -0.00000000000E+00 -0.00000000000E+00 -0.34996269501E-01  0.35000000000E-01  0.51099999109E-03 0. -1.
       22    1    1    2    0    0  0.17537976074E-01  0.33290024097E-02 -0.12263781712E-02  0.17893207237E-01  0.00000000000E+00 0. -1.
       22    1    1    2    0    0 -0.33688469794E-02 -0.11996186015E-01  0.22136576678E-01  0.25402473027E-01  0.00000000000E+00 0.  1.
       22    1    1    2    0    0 -0.14169129095E-01  0.86671836054E-02 -0.20910198507E-01  0.26704319736E-01  0.00000000000E+00 0. -1.
</event>
<event>
 5   0  0.4143600E+04  0.9118800E+02  0.7546771E-02  0.1180000E+00
      -11   -1    0    0    0    0  0.00000000000E+00  0.00000000000E+00  0.34996269501E-01  0.35000000000E-01  0.51099999109E-03 0. -1.
       11   -1    0    0    0    0 -0.00000000000E+00 -0.00000000000E+00 -0.34996269501E-01  0.35000000000E-01  0.51099999109E-03 0.  1.
       22    1    1    2    0    0  0.27788915945E-01 -0.17897136703E-01 -0.43771874675E-02  0.33342032357E-01  0.00000000000E+00 0. -1.
       22    1    1    2    0    0  0.20018086784E-03 -0.10597696087E-02 -0.19857203461E-02  0.22597055774E-02  0.00000000000E+00 0.  1.
       22    1    1    2    0    0 -0.27989096813E-01  0.18956906312E-01  0.63629078136E-02  0.34398262066E-01  0.00000000000E+00 0.  1.
</event>
<event>
 5   0  0.4143600E+04  0.9118800E+02  0.7546771E-02  0.1180000E+00
      -11   -1    0    0    0    0  0.00000000000E+00  0.00000000000E+00  0.34996269501E-01  0.35000000000E-01  0.51099999109E-03 0. -1.
       11   -1    0    0    0    0 -0.00000000000E+00 -0.00000000000E+00 -0.34996269501E-01  0.35000000000E-01  0.51099999109E-03 0.  1.
       22    1    1    2    0    0  0.66242689730E-02  0.52231401321E-02 -0.81618991676E-02  0.11737918482E-01  0.00000000000E+00 0.  1.
       22    1    1    2    0    0 -0.15230573278E-02  0.28799351473E-02  0.32211825804E-01  0.32376155604E-01  0.00000000000E+00 0. -1.
       22    1    1    2    0    0 -0.51012116452E-02 -0.81030752794E-02 -0.24049926636E-01  0.25885925914E-01  0.00000000000E+00 0. -1.
</event>
<event>
 5   0  0.4143600E+04  0.9118800E+02  0.7546771E-02  0.1180000E+00
      -11   -1    0    0    0    0  0.00000000000E+00  0.00000000000E+00  0.34996269501E-01  0.35000000000E-01  0.51099999109E-03 0.  1.
       11   -1    0    0    0    0 -0.00000000000E+00 -0.00000000000E+00 -0.34996269501E-01  0.35000000000E-01  0.51099999109E-03 0. -1.
       22    1    1    2    0    0  0.11642606357E-02  0.91052877480E-03  0.22059656557E-01  0.22109116058E-01  0.00000000000E+00 0. -1.
       22    1    1    2    0    0  0.61229850647E-03 -0.15913548475E-01 -0.27545596449E-01  0.31817853766E-01  0.00000000000E+00 0. -1.
       22    1    1    2    0    0 -0.17765591422E-02  0.15003019701E-01  0.54859398926E-02  0.16073030176E-01  0.00000000000E+00 0.  1.
</event>
<event>
 5   0  0.4143600E+04  0.9118800E+02  0.7546771E-02  0.1180000E+00
      -11   -1    0    0    0    0  0.00000000000E+00  0.00000000000E+00  0.34996269501E-01  0.35000000000E-01  0.51099999109E-03 0.  1.
       11   -1    0    0    0    0 -0.00000000000E+00 -0.00000000000E+00 -0.34996269501E-01  0.35000000000E-01  0.51099999109E-03 0. -1.
       22    1    1    2    0    0 -0.19174820197E-02  0.69408916968E-02  0.34066821942E-01  0.34819550141E-01  0.00000000000E+00 0.  1.
       22    1    1    2    0    0  0.11500878025E-02  0.47277386517E-03 -0.33803210785E-02  0.36017756280E-02  0.00000000000E+00 0. -1.
       22    1    1    2    0    0  0.76739421718E-03 -0.74136655620E-02 -0.30686500863E-01  0.31578674231E-01  0.00000000000E+00 0. -1.
</event>
<event>
 5   0  0.4143600E+04  0.9118800E+02  0.7546771E-02  0.1180000E+00
      -11   -1    0    0    0    0  0.00000000000E+00  0.00000000000E+00  0.34996269501E-01  0.35000000000E-01  0.51099999109E-03 0.  1.
       11   -1    0    0    0    0 -0.00000000000E+00 -0.00000000000E+00 -0.34996269501E-01  0.35000000000E-01  0.51099999109E-03 0. -1.
       22    1    1    2    0    0  0.12721319416E-03  0.71091076873E-03 -0.14681846664E-02  0.16361978891E-02  0.00000000000E+00 0. -1.
       22    1    1    2    0    0  0.16138969849E-01 -0.65643291065E-02  0.30180724008E-01  0.34848713980E-01  0.00000000000E+00 0.  1.
       22    1    1    2    0    0 -0.16266183043E-01  0.58534183377E-02 -0.28712539341E-01  0.33515088131E-01  0.00000000000E+00 0. -1.
</event>
<event>
 5   0  0.4143600E+04  0.9118800E+02  0.7546771E-02  0.1180000E+00
      -11   -1    0    0    0    0  0.00000000000E+00  0.00000000000E+00  0.34996269501E-01  0.35000000000E-01  0.51099999109E-03 0.  1.
       11   -1    0    0    0    0 -0.00000000000E+00 -0.00000000000E+00 -0.34996269501E-01  0.35000000000E-01  0.51099999109E-03 0. -1.
       22    1    1    2    0    0 -0.13562099985E-01 -0.76105621748E-02 -0.29401631652E-01  0.33261195956E-01  0.00000000000E+00 0. -1.
       22    1    1    2    0    0  0.14047375233E-01  0.76434634272E-02  0.31100700869E-01  0.34971486652E-01  0.00000000000E+00 0.  1.
       22    1    1    2    0    0 -0.48527524845E-03 -0.32901252372E-04 -0.16990692167E-02  0.17673173915E-02  0.00000000000E+00 0. -1.
</event>
<event>
 5   0  0.4143600E+04  0.9118800E+02  0.7546771E-02  0.1180000E+00
      -11   -1    0    0    0    0  0.00000000000E+00  0.00000000000E+00  0.34996269501E-01  0.35000000000E-01  0.51099999109E-03 0.  1.
       11   -1    0    0    0    0 -0.00000000000E+00 -0.00000000000E+00 -0.34996269501E-01  0.35000000000E-01  0.51099999109E-03 0. -1.
       22    1    1    2    0    0 -0.82144680740E-04  0.30504477150E-04  0.35087626794E-03  0.36165235670E-03  0.00000000000E+00 0. -1.
       22    1    1    2    0    0 -0.20051840855E-01 -0.21818787224E-02  0.28178576838E-01  0.34653558389E-01  0.00000000000E+00 0.  1.
       22    1    1    2    0    0  0.20133985535E-01  0.21513742452E-02 -0.28529453105E-01  0.34984789254E-01  0.00000000000E+00 0. -1.
</event>
<event>
 5   0  0.4143600E+04  0.9118800E+02  0.7546771E-02  0.1180000E+00
      -11   -1    0    0    0    0  0.00000000000E+00  0.00000000000E+00  0.34996269501E-01  0.35000000000E-01  0.51099999109E-03 0.  1.
       11   -1    0    0    0    0 -0.00000000000E+00 -0.00000000000E+00 -0.34996269501E-01  0.35000000000E-01  0.51099999109E-03 0.  1.
       22    1    1    2    0    0  0.44308491417E-02 -0.82610307499E-02 -0.16291433020E-01  0.18795952836E-01  0.00000000000E+00 0. -1.
       22    1    1    2    0    0  0.41394422586E-03 -0.22406206879E-03 -0.16745706977E-01  0.16752320908E-01  0.00000000000E+00 0.  1.
       22    1    1    2    0    0 -0.48447933675E-02  0.84850928187E-02  0.33037139997E-01  0.34451726257E-01  0.00000000000E+00 0.  1.
</event>
<event>
 5   0  0.4143600E+04  0.9118800E+02  0.7546771E-02  0.1180000E+00
      -11   -1    0    0    0    0  0.00000000000E+00  0.00000000000E+00  0.34996269501E-01  0.35000000000E-01  0.51099999109E-03 0. -1.
       11   -1    0    0    0    0 -0.00000000000E+00 -0.00000000000E+00 -0.34996269501E-01  0.35000000000E-01  0.51099999109E-03 0.  1.
       22    1    1    2    0    0  0.11143937403E-02  0.66375156106E-02 -0.14910818964E-01  0.16359431808E-01  0.00000000000E+00 0.  1.
       22    1    1    2    0    0 -0.13156302305E-02 -0.48134567928E-02  0.34049954435E-01  0.34413654939E-01  0.00000000000E+00 0. -1.
       22    1    1    2    0    0  0.20123649016E-03 -0.18240588178E-02 -0.19139135471E-01  0.19226913254E-01  0.00000000000E+00 0.  1.
</event>
<event>
 5   0  0.4143600E+04  0.9118800E+02  0.7546771E-02  0.1180000E+00
      -11   -1    0    0    0    0  0.00000000000E+00  0.00000000000E+00  0.34996269501E-01  0.35000000000E-01  0.51099999109E-03 0. -1.
       11   -1    0    0    0    0 -0.00000000000E+00 -0.00000000000E+00 -0.34996269501E-01  0.35000000000E-01  0.51099999109E-03 0.  1.
       22    1    1    2    0    0  0.49056828059E-03  0.15734856491E-02  0.23132094605E-03  0.16643388194E-02  0.00000000000E+00 0.  1.
       22    1    1    2    0    0 -0.12196394978E-01 -0.16867878144E-01 -0.27785470600E-01  0.34717571056E-01  0.00000000000E+00 0.  1.
       22    1    1    2    0    0  0.11705826698E-01  0.15294392495E-01  0.27554149654E-01  0.33618090125E-01  0.00000000000E+00 0. -1.
</event>
<event>
 5   0  0.4143600E+04  0.9118800E+02  0.7546771E-02  0.1180000E+00
      -11   -1    0    0    0    0  0.00000000000E+00  0.00000000000E+00  0.34996269501E-01  0.35000000000E-01  0.51099999109E-03 0.  1.
       11   -1    0    0    0    0 -0.00000000000E+00 -0.00000000000E+00 -0.34996269501E-01  0.35000000000E-01  0.51099999109E-03 0. -1.
       22    1    1    2    0    0 -0.10702596429E-02  0.26663861981E-03 -0.33233334412E-01  0.33251632561E-01  0.00000000000E+00 0. -1.
       22    1    1    2    0    0  0.80352656029E-03  0.40054850520E-03  0.34911397897E-01  0.34922940843E-01  0.00000000000E+00 0.  1.
       22    1    1    2    0    0  0.26673308259E-03 -0.66718712501E-03 -0.16780634851E-02  0.18254265959E-02  0.00000000000E+00 0.  1.
</event>
<event>
 5   0  0.4143600E+04  0.9118800E+02  0.7546771E-02  0.1180000E+00
      -11   -1    0    0    0    0  0.00000000000E+00  0.00000000000E+00  0.34996269501E-01  0.35000000000E-01  0.51099999109E-03 0.  1.
       11   -1    0    0    0    0 -0.00000000000E+00 -0.00000000000E+00 -0.34996269501E-01  0.35000000000E-01  0.51099999109E-03 0. -1.
       22    1    1    2    0    0 -0.21807149715E-01  0.11599845894E-01  0.24390301709E-01  0.34713038198E-01  0.00000000000E+00 0.  1.
       22    1    1    2    0    0  0.21828536592E-01 -0.11584611595E-01 -0.24721432426E-01  0.34954791614E-01  0.00000000000E+00 0. -1.
       22    1    1    2    0    0 -0.21386877205E-04 -0.15234299872E-04  0.33113071661E-03  0.33217018815E-03  0.00000000000E+00 0.  1.
</event>
<event>
 5   0  0.4143600E+04  0.9118800E+02  0.7546771E-02  0.1180000E+00
      -11   -1    0    0    0    0  0.00000000000E+00  0.00000000000E+00  0.34996269501E-01  0.35000000000E-01  0.51099999109E-03 0.  1.
       11   -1    0    0    0    0 -0.00000000000E+00 -0.00000000000E+00 -0.34996269501E-01  0.35000000000E-01  0.51099999109E-03 0.  1.
       22    1    1    2    0    0  0.00000000000E+00 -0.00000000000E+00  0.34632944258E-01  0.34629430464E-01  0.00000000000E+00 0.  1.
       22    1    1    2    0    0  0.68898963755E-03  0.21701969416E-02 -0.36359381867E-02  0.42900475503E-02  0.00000000000E+00 0. -1.
       22    1    1    2    0    0 -0.68898963755E-03 -0.21701969416E-02 -0.30997006072E-01  0.31080521985E-01  0.00000000000E+00 0.  1.
</event>
<event>
 5   0  0.4143600E+04  0.9118800E+02  0.7546771E-02  0.1180000E+00
      -11   -1    0    0    0    0  0.00000000000E+00  0.00000000000E+00  0.34996269501E-01  0.35000000000E-01  0.51099999109E-03 0.  1.
       11   -1    0    0    0    0 -0.00000000000E+00 -0.00000000000E+00 -0.34996269501E-01  0.35000000000E-01  0.51099999109E-03 0. -1.
       22    1    1    2    0    0 -0.20922681075E-01  0.23132995802E-03  0.27447504966E-01  0.34513441234E-01  0.00000000000E+00 0.  1.
       22    1    1    2    0    0  0.21696090115E-01 -0.73752468525E-04 -0.26308008626E-01  0.34100397117E-01  0.00000000000E+00 0. -1.
       22    1    1    2    0    0 -0.77340903937E-03 -0.15757748949E-03 -0.11394963405E-02  0.13861616491E-02  0.00000000000E+00 0. -1.
</event>
<event>
 5   0  0.4143600E+04  0.9118800E+02  0.7546771E-02  0.1180000E+00
      -11   -1    0    0    0    0  0.00000000000E+00  0.00000000000E+00  0.34996269501E-01  0.35000000000E-01  0.51099999109E-03 0. -1.
       11   -1    0    0    0    0 -0.00000000000E+00 -0.00000000000E+00 -0.34996269501E-01  0.35000000000E-01  0.51099999109E-03 0.  1.
       22    1    1    2    0    0  0.37747563619E-02 -0.15069193614E-01 -0.19357591423E-01  0.24820268481E-01  0.00000000000E+00 0.  1.
       22    1    1    2    0    0 -0.39282109981E-02  0.17079874387E-01 -0.69070912457E-02  0.18837750932E-01  0.00000000000E+00 0. -1.
       22    1    1    2    0    0  0.15345463619E-03 -0.20106807725E-02  0.26264682669E-01  0.26341980586E-01  0.00000000000E+00 0. -1.
</event>
<event>
 5   0  0.4143600E+04  0.9118800E+02  0.7546771E-02  0.1180000E+00
      -11   -1    0    0    0    0  0.00000000000E+00  0.00000000000E+00  0.34996269501E-01  0.35000000000E-01  0.51099999109E-03 0. -1.
       11   -1    0    0    0    0 -0.00000000000E+00 -0.00000000000E+00 -0.34996269501E-01  0.35000000000E-01  0.51099999109E-03 0. -1.
       22    1    1    2    0    0  0.47631548691E-02  0.26735207096E-02 -0.86680116525E-02  0.10245476236E-01  0.00000000000E+00 0.  1.
       22    1    1    2    0    0 -0.46142245667E-02 -0.24193383052E-02  0.34012049019E-01  0.34408774239E-01  0.00000000000E+00 0. -1.
       22    1    1    2    0    0 -0.14893030241E-03 -0.25418240438E-03 -0.25344037367E-01  0.25345749525E-01  0.00000000000E+00 0. -1.
</event>
<event>
 5   0  0.4143600E+04  0.9118800E+02  0.7546771E-02  0.1180000E+00
      -11   -1    0    0    0    0  0.00000000000E+00  0.00000000000E+00  0.34996269501E-01  0.35000000000E-01  0.51099999109E-03 0. -1.
       11   -1    0    0    0    0 -0.00000000000E+00 -0.00000000000E+00 -0.34996269501E-01  0.35000000000E-01  0.51099999109E-03 0.  1.
       22    1    1    2    0    0  0.35434673627E-03 -0.18474118425E-02 -0.28796495514E-02  0.34396037074E-02  0.00000000000E+00 0. -1.
       22    1    1    2    0    0 -0.11298488048E-02  0.14006168376E-02 -0.31809170816E-01  0.31860031918E-01  0.00000000000E+00 0.  1.
       22    1    1    2    0    0  0.77550206853E-03  0.44679500491E-03  0.34688820367E-01  0.34700364374E-01  0.00000000000E+00 0. -1.
</event>
<event>
 5   0  0.4143600E+04  0.9118800E+02  0.7546771E-02  0.1180000E+00
      -11   -1    0    0    0    0  0.00000000000E+00  0.00000000000E+00  0.34996269501E-01  0.35000000000E-01  0.51099999109E-03 0.  1.
       11   -1    0    0    0    0 -0.00000000000E+00 -0.00000000000E+00 -0.34996269501E-01  0.35000000000E-01  0.51099999109E-03 0. -1.
       22    1    1    2    0    0 -0.41573677569E-04  0.53581806314E-02  0.18532420802E-01  0.19291512352E-01  0.00000000000E+00 0.  1.
       22    1    1    2    0    0  0.63049428254E-02  0.47427736017E-02  0.14001630851E-01  0.16071461413E-01  0.00000000000E+00 0.  1.
       22    1    1    2    0    0 -0.62633691479E-02 -0.10100954233E-01 -0.32534051652E-01  0.34637026235E-01  0.00000000000E+00 0. -1.
</event>
<event>
 5   0  0.4143600E+04  0.9118800E+02  0.7546771E-02  0.1180000E+00
      -11   -1    0    0    0    0  0.00000000000E+00  0.00000000000E+00  0.34996269501E-01  0.35000000000E-01  0.51099999109E-03 0.  1.
       11   -1    0    0    0    0 -0.00000000000E+00 -0.00000000000E+00 -0.34996269501E-01  0.35000000000E-01  0.51099999109E-03 0. -1.
       22    1    1    2    0    0 -0.19395956816E-01  0.75661180750E-02  0.28083222170E-01  0.34958785033E-01  0.00000000000E+00 0.  1.
       22    1    1    2    0    0  0.19190956499E-01 -0.75800096784E-02 -0.27235907158E-01  0.34169342938E-01  0.00000000000E+00 0. -1.
       22    1    1    2    0    0  0.20500031708E-03  0.13891603372E-04 -0.84731501151E-03  0.87187202925E-03  0.00000000000E+00 0. -1.
</event>
<event>
 5   0  0.4143600E+04  0.9118800E+02  0.7546771E-02  0.1180000E+00
      -11   -1    0    0    0    0  0.00000000000E+00  0.00000000000E+00  0.34996269501E-01  0.35000000000E-01  0.51099999109E-03 0. -1.
       11   -1    0    0    0    0 -0.00000000000E+00 -0.00000000000E+00 -0.34996269501E-01  0.35000000000E-01  0.51099999109E-03 0.  1.
       22    1    1    2    0    0 -0.64321059708E-02  0.12522860386E-01  0.56645763837E-02  0.15175027020E-01  0.00000000000E+00 0. -1.
       22    1    1    2    0    0  0.34668980261E-02  0.63945684836E-02  0.20870822262E-01  0.22102061214E-01  0.00000000000E+00 0. -1.
       22    1    1    2    0    0  0.29652079447E-02 -0.18917428869E-01 -0.26535398645E-01  0.32722911766E-01  0.00000000000E+00 0.  1.
</event>
<event>
 5   0  0.4143600E+04  0.9118800E+02  0.7546771E-02  0.1180000E+00
      -11   -1    0    0    0    0  0.00000000000E+00  0.00000000000E+00  0.34996269501E-01  0.35000000000E-01  0.51099999109E-03 0. -1.
       11   -1    0    0    0    0 -0.00000000000E+00 -0.00000000000E+00 -0.34996269501E-01  0.35000000000E-01  0.51099999109E-03 0.  1.
       22    1    1    2    0    0  0.16253547793E-01 -0.21734167924E-02 -0.30918158165E-01  0.34997629359E-01  0.00000000000E+00 0.  1.
       22    1    1    2    0    0 -0.16007776471E-01  0.21045384664E-02  0.30555675097E-01  0.34559040356E-01  0.00000000000E+00 0. -1.
       22    1    1    2    0    0 -0.24577132244E-03  0.68878326001E-04  0.36248306818E-03  0.44333028482E-03  0.00000000000E+00 0.  1.
</event>
<event>
 5   0  0.4143600E+04  0.9118800E+02  0.7546771E-02  0.1180000E+00
      -11   -1    0    0    0    0  0.00000000000E+00  0.00000000000E+00  0.34996269501E-01  0.35000000000E-01  0.51099999109E-03 0.  1.
       11   -1    0    0    0    0 -0.00000000000E+00 -0.00000000000E+00 -0.34996269501E-01  0.35000000000E-01  0.51099999109E-03 0.  1.
       22    1    1    2    0    0 -0.56408786498E-03  0.51437084536E-03 -0.34051841373E-01  0.34060397434E-01  0.00000000000E+00 0.  1.
       22    1    1    2    0    0  0.56408786498E-03 -0.51437084536E-03 -0.79023524682E-03  0.10987466638E-02  0.00000000000E+00 0. -1.
       22    1    1    2    0    0  0.00000000000E+00  0.00000000000E+00  0.34842076620E-01  0.34840855902E-01  0.00000000000E+00 0.  1.
</event>
<event>
 5   0  0.4143600E+04  0.9118800E+02  0.7546771E-02  0.1180000E+00
      -11   -1    0    0    0    0  0.00000000000E+00  0.00000000000E+00  0.34996269501E-01  0.35000000000E-01  0.51099999109E-03 0.  1.
       11   -1    0    0    0    0 -0.00000000000E+00 -0.00000000000E+00 -0.34996269501E-01  0.35000000000E-01  0.51099999109E-03 0. -1.
       22    1    1    2    0    0 -0.19416029698E-02 -0.82439757226E-04  0.34788870702E-01  0.34843107542E-01  0.00000000000E+00 0.  1.
       22    1    1    2    0    0  0.12363182522E-02  0.57302079106E-03 -0.33875743779E-01  0.33903139268E-01  0.00000000000E+00 0. -1.
       22    1    1    2    0    0  0.70528471757E-03 -0.49058103383E-03 -0.91312692305E-03  0.12537531899E-02  0.00000000000E+00 0.  1.
</event>
<event>
 5   0  0.4143600E+04  0.9118800E+02  0.7546771E-02  0.1180000E+00
      -11   -1    0    0    0    0  0.00000000000E+00  0.00000000000E+00  0.34996269501E-01  0.35000000000E-01  0.51099999109E-03 0.  1.
       11   -1    0    0    0    0 -0.00000000000E+00 -0.00000000000E+00 -0.34996269501E-01  0.35000000000E-01  0.51099999109E-03 0. -1.
       22    1    1    2    0    0 -0.36120501734E-02 -0.17790805126E-01  0.89706748414E-02  0.20249263211E-01  0.00000000000E+00 0.  1.
       22    1    1    2    0    0 -0.42273599497E-03 -0.23207734178E-03  0.17481952522E-01  0.17488602849E-01  0.00000000000E+00 0.  1.
       22    1    1    2    0    0  0.40347861684E-02  0.18022882468E-01 -0.26452627364E-01  0.32262133940E-01  0.00000000000E+00 0. -1.
</event>
<event>
 5   0  0.4143600E+04  0.9118800E+02  0.7546771E-02  0.1180000E+00
      -11   -1    0    0    0    0  0.00000000000E+00  0.00000000000E+00  0.34996269501E-01  0.35000000000E-01  0.51099999109E-03 0. -1.
       11   -1    0    0    0    0 -0.00000000000E+00 -0.00000000000E+00 -0.34996269501E-01  0.35000000000E-01  0.51099999109E-03 0. -1.
       22    1    1    2    0    0 -0.40485637310E-03  0.20280745395E-03 -0.47388217788E-03  0.65544173251E-03  0.00000000000E+00 0. -1.
       22    1    1    2    0    0 -0.00000000000E+00 -0.00000000000E+00  0.34909056376E-01  0.34906407016E-01  0.00000000000E+00 0. -1.
       22    1    1    2    0    0  0.40485637310E-03 -0.20280745395E-03 -0.34435174198E-01  0.34438151251E-01  0.00000000000E+00 0. -1.
</event>
<event>
 5   0  0.4143600E+04  0.9118800E+02  0.7546771E-02  0.1180000E+00
      -11   -1    0    0    0    0  0.00000000000E+00  0.00000000000E+00  0.34996269501E-01  0.35000000000E-01  0.51099999109E-03 0.  1.
       11   -1    0    0    0    0 -0.00000000000E+00 -0.00000000000E+00 -0.34996269501E-01  0.35000000000E-01  0.51099999109E-03 0. -1.
       22    1    1    2    0    0  0.48387216875E-02 -0.38790508209E-02 -0.16099296581E-01  0.17252466874E-01  0.00000000000E+00 0. -1.
       22    1    1    2    0    0  0.18460848451E-02  0.57908211907E-03 -0.17867657616E-01  0.17972104886E-01  0.00000000000E+00 0.  1.
       22    1    1    2    0    0 -0.66848065326E-02  0.32999687018E-02  0.33966954197E-01  0.34775428240E-01  0.00000000000E+00 0.  1.
</event>
<event>
 5   0  0.4143600E+04  0.9118800E+02  0.7546771E-02  0.1180000E+00
      -11   -1    0    0    0    0  0.00000000000E+00  0.00000000000E+00  0.34996269501E-01  0.35000000000E-01  0.51099999109E-03 0. -1.
       11   -1    0    0    0    0 -0.00000000000E+00 -0.00000000000E+00 -0.34996269501E-01  0.35000000000E-01  0.51099999109E-03 0.  1.
       22    1    1    2    0    0 -0.99755052388E-02 -0.14863512851E-01 -0.27526996549E-01  0.32835503012E-01  0.00000000000E+00 0.  1.
       22    1    1    2    0    0 -0.17682445932E-02  0.71939516589E-05 -0.16249887944E-02  0.24015264472E-02  0.00000000000E+00 0. -1.
       22    1    1    2    0    0  0.11743749832E-01  0.14856318899E-01  0.29151985344E-01  0.34762970541E-01  0.00000000000E+00 0. -1.
</event>
<event>
 5   0  0.4143600E+04  0.9118800E+02  0.7546771E-02  0.1180000E+00
      -11   -1    0    0    0    0  0.00000000000E+00  0.00000000000E+00  0.34996269501E-01  0.35000000000E-01  0.51099999109E-03 0.  1.
       11   -1    0    0    0    0 -0.00000000000E+00 -0.00000000000E+00 -0.34996269501E-01  0.35000000000E-01  0.51099999109E-03 0. -1.
       22    1    1    2    0    0 -0.13529318743E-01  0.38786423150E-02 -0.31907046708E-01  0.34873284352E-01  0.00000000000E+00 0. -1.
       22    1    1    2    0    0  0.13228184414E-01 -0.41966505034E-02  0.28583222440E-01  0.31774161569E-01  0.00000000000E+00 0.  1.
       22    1    1    2    0    0  0.30113432893E-03  0.31800818840E-03  0.33238242681E-02  0.33525540797E-02  0.00000000000E+00 0.  1.
</event>
<event>
 5   0  0.4143600E+04  0.9118800E+02  0.7546771E-02  0.1180000E+00
      -11   -1    0    0    0    0  0.00000000000E+00  0.00000000000E+00  0.34996269501E-01  0.35000000000E-01  0.51099999109E-03 0. -1.
       11   -1    0    0    0    0 -0.00000000000E+00 -0.00000000000E+00 -0.34996269501E-01  0.35000000000E-01  0.51099999109E-03 0.  1.
       22    1    1    2    0    0 -0.43210006755E-02  0.48294275489E-02 -0.10404672534E-01  0.12257717073E-01  0.00000000000E+00 0.  1.
       22    1    1    2    0    0  0.33004301024E-02 -0.10841220266E-01 -0.22011565989E-01  0.24757502559E-01  0.00000000000E+00 0.  1.
       22    1    1    2    0    0  0.10205705732E-02  0.60117927167E-02  0.32416238523E-01  0.32984780368E-01  0.00000000000E+00 0. -1.
</event>
<event>
 5   0  0.4143600E+04  0.9118800E+02  0.7546771E-02  0.1180000E+00
      -11   -1    0    0    0    0  0.00000000000E+00  0.00000000000E+00  0.34996269501E-01  0.35000000000E-01  0.51099999109E-03 0. -1.
       11   -1    0    0    0    0 -0.00000000000E+00 -0.00000000000E+00 -0.34996269501E-01  0.35000000000E-01  0.51099999109E-03 0.  1.
       22    1    1    2    0    0 -0.90087034156E-02  0.48794935005E-02 -0.11988721443E-01  0.15770086743E-01  0.00000000000E+00 0. -1.
       22    1    1    2    0    0  0.79781530709E-02 -0.34662111071E-02 -0.20200207161E-01  0.21993497112E-01  0.00000000000E+00 0.  1.
       22    1    1    2    0    0  0.10305503446E-02 -0.14132823934E-02  0.32188928604E-01  0.32236416144E-01  0.00000000000E+00 0. -1.
</event>
<event>
 5   0  0.4143600E+04  0.9118800E+02  0.7546771E-02  0.1180000E+00
      -11   -1    0    0    0    0  0.00000000000E+00  0.00000000000E+00  0.34996269501E-01  0.35000000000E-01  0.51099999109E-03 0. -1.
       11   -1    0    0    0    0 -0.00000000000E+00 -0.00000000000E+00 -0.34996269501E-01  0.35000000000E-01  0.51099999109E-03 0.  1.
       22    1    1    2    0    0  0.12167333747E-01  0.55540301446E-02 -0.31834985522E-01  0.34530530905E-01  0.00000000000E+00 0.  1.
       22    1    1    2    0    0 -0.10587748782E-01 -0.50101997787E-02  0.17629269823E-01  0.21165861206E-01  0.00000000000E+00 0. -1.
       22    1    1    2    0    0 -0.15795849649E-02 -0.54383036593E-03  0.14205715699E-01  0.14303607889E-01  0.00000000000E+00 0. -1.
</event>
<event>
 5   0  0.4143600E+04  0.9118800E+02  0.7546771E-02  0.1180000E+00
      -11   -1    0    0    0    0  0.00000000000E+00  0.00000000000E+00  0.34996269501E-01  0.35000000000E-01  0.51099999109E-03 0. -1.
       11   -1    0    0    0    0 -0.00000000000E+00 -0.00000000000E+00 -0.34996269501E-01  0.35000000000E-01  0.51099999109E-03 0.  1.
       22    1    1    2    0    0 -0.15803141679E-02  0.74143856278E-03  0.34766848102E-04  0.17459475208E-02  0.00000000000E+00 0.  1.
       22    1    1    2    0    0  0.17025506182E-01  0.54003062832E-02 -0.29464085516E-01  0.34455239137E-01  0.00000000000E+00 0.  1.
       22    1    1    2    0    0 -0.15445192014E-01 -0.61417448460E-02  0.29429318668E-01  0.33798813342E-01  0.00000000000E+00 0. -1.
</event>
<event>
 5   0  0.4143600E+04  0.9118800E+02  0.7546771E-02  0.1180000E+00
      -11   -1    0    0    0    0  0.00000000000E+00  0.00000000000E+00  0.34996269501E-01  0.35000000000E-01  0.51099999109E-03 0.  1.
       11   -1    0    0    0    0 -0.00000000000E+00 -0.00000000000E+00 -0.34996269501E-01  0.35000000000E-01  0.51099999109E-03 0. -1.
       22    1    1    2    0    0 -0.10977803874E-03  0.73951115907E-05 -0.12145627458E-02  0.12195362106E-02  0.00000000000E+00 0. -1.
       22    1    1    2    0    0 -0.14680182354E-01  0.17093390240E-01  0.26550889121E-01  0.34823001837E-01  0.00000000000E+00 0.  1.
       22    1    1    2    0    0  0.14789960393E-01 -0.17100785352E-01 -0.25336326375E-01  0.33957461952E-01  0.00000000000E+00 0. -1.
</event>
<event>
 5   0  0.4143600E+04  0.9118800E+02  0.7546771E-02  0.1180000E+00
      -11   -1    0    0    0    0  0.00000000000E+00  0.00000000000E+00  0.34996269501E-01  0.35000000000E-01  0.51099999109E-03 0.  1.
       11   -1    0    0    0    0 -0.00000000000E+00 -0.00000000000E+00 -0.34996269501E-01  0.35000000000E-01  0.51099999109E-03 0. -1.
       22    1    1    2    0    0  0.35951340253E-03 -0.29349786722E-03 -0.12121558808E-01  0.12130440174E-01  0.00000000000E+00 0.  1.
       22    1    1    2    0    0  0.86777919674E-02 -0.82540767228E-03 -0.21413678819E-01  0.23119926726E-01  0.00000000000E+00 0. -1.
       22    1    1    2    0    0 -0.90373053699E-02  0.11189055395E-02  0.33535237626E-01  0.34749633100E-01  0.00000000000E+00 0.  1.
</event>
<event>
 5   0  0.4143600E+04  0.9118800E+02  0.7546771E-02  0.1180000E+00
      -11   -1    0    0    0    0  0.00000000000E+00  0.00000000000E+00  0.34996269501E-01  0.35000000000E-01  0.51099999109E-03 0.  1.
       11   -1    0    0    0    0 -0.00000000000E+00 -0.00000000000E+00 -0.34996269501E-01  0.35000000000E-01  0.51099999109E-03 0. -1.
       22    1    1    2    0    0 -0.11355197154E-01 -0.16119212980E-01  0.28825357440E-01  0.34923785033E-01  0.00000000000E+00 0.  1.
       22    1    1    2    0    0  0.11256760158E-01  0.15997344872E-01 -0.27531822018E-01  0.33773227797E-01  0.00000000000E+00 0. -1.
       22    1    1    2    0    0  0.98436996482E-04  0.12186810731E-03 -0.12935354216E-02  0.13029871698E-02  0.00000000000E+00 0.  1.
</event>
<event>
 5   0  0.4143600E+04  0.9118800E+02  0.7546771E-02  0.1180000E+00
      -11   -1    0    0    0    0  0.00000000000E+00  0.00000000000E+00  0.34996269501E-01  0.35000000000E-01  0.51099999109E-03 0.  1.
       11   -1    0    0    0    0 -0.00000000000E+00 -0.00000000000E+00 -0.34996269501E-01  0.35000000000E-01  0.51099999109E-03 0. -1.
       22    1    1    2    0    0  0.10298095389E-01  0.56278996637E-03 -0.27722355299E-01  0.29578649133E-01  0.00000000000E+00 0. -1.
       22    1    1    2    0    0 -0.10640347515E-01 -0.11874471085E-02  0.33207188248E-01  0.34890462554E-01  0.00000000000E+00 0.  1.
       22    1    1    2    0    0  0.34225212637E-03  0.62465714217E-03 -0.54848329486E-02  0.55308883136E-02  0.00000000000E+00 0. -1.
</event>
<event>
 5   0  0.4143600E+04  0.9118800E+02  0.7546771E-02  0.1180000E+00
      -11   -1    0    0    0    0  0.00000000000E+00  0.00000000000E+00  0.34996269501E-01  0.35000000000E-01  0.51099999109E-03 0.  1.
       11   -1    0    0    0    0 -0.00000000000E+00 -0.00000000000E+00 -0.34996269501E-01  0.35000000000E-01  0.51099999109E-03 0. -1.
       22    1    1    2    0    0 -0.16145993742E-02  0.61502754057E-03 -0.31076947400E-01  0.31124939353E-01  0.00000000000E+00 0.  1.
       22    1    1    2    0    0 -0.80135545278E-03 -0.27012581257E-02 -0.33062609901E-02  0.43439990513E-02  0.00000000000E+00 0. -1.
       22    1    1    2    0    0  0.24159548270E-02  0.20862305851E-02  0.34383208390E-01  0.34531061596E-01  0.00000000000E+00 0.  1.
</event>
<event>
 5   0  0.4143600E+04  0.9118800E+02  0.7546771E-02  0.1180000E+00
      -11   -1    0    0    0    0  0.00000000000E+00  0.00000000000E+00  0.34996269501E-01  0.35000000000E-01  0.51099999109E-03 0.  1.
       11   -1    0    0    0    0 -0.00000000000E+00 -0.00000000000E+00 -0.34996269501E-01  0.35000000000E-01  0.51099999109E-03 0. -1.
       22    1    1    2    0    0  0.19921205083E-02 -0.66290943671E-03 -0.30047722024E-02  0.36656035014E-02  0.00000000000E+00 0. -1.
       22    1    1    2    0    0  0.25586045355E-01  0.15263349074E-01 -0.11484727959E-01  0.31929837427E-01  0.00000000000E+00 0. -1.
       22    1    1    2    0    0 -0.27578165863E-01 -0.14600439637E-01  0.14489500161E-01  0.34404559071E-01  0.00000000000E+00 0.  1.
</event>
<event>
 5   0  0.4143600E+04  0.9118800E+02  0.7546771E-02  0.1180000E+00
      -11   -1    0    0    0    0  0.00000000000E+00  0.00000000000E+00  0.34996269501E-01  0.35000000000E-01  0.51099999109E-03 0.  1.
       11   -1    0    0    0    0 -0.00000000000E+00 -0.00000000000E+00 -0.34996269501E-01  0.35000000000E-01  0.51099999109E-03 0. -1.
       22    1    1    2    0    0 -0.13484030192E-02  0.13961695899E-02  0.34827066243E-01  0.34881112702E-01  0.00000000000E+00 0.  1.
       22    1    1    2    0    0  0.88986375439E-03 -0.39964247472E-03 -0.16013769870E-02  0.18750946278E-02  0.00000000000E+00 0. -1.
       22    1    1    2    0    0  0.45853926477E-03 -0.99652711522E-03 -0.33225689256E-01  0.33243792670E-01  0.00000000000E+00 0. -1.
</event>
<event>
 5   0  0.4143600E+04  0.9118800E+02  0.7546771E-02  0.1180000E+00
      -11   -1    0    0    0    0  0.00000000000E+00  0.00000000000E+00  0.34996269501E-01  0.35000000000E-01  0.51099999109E-03 0. -1.
       11   -1    0    0    0    0 -0.00000000000E+00 -0.00000000000E+00 -0.34996269501E-01  0.35000000000E-01  0.51099999109E-03 0.  1.
       22    1    1    2    0    0 -0.11128185283E-01  0.16000980862E-01  0.28619462096E-01  0.34625734749E-01  0.00000000000E+00 0. -1.
       22    1    1    2    0    0  0.22717114060E-03  0.51474151713E-03  0.20073918172E-04  0.56299957262E-03  0.00000000000E+00 0.  1.
       22    1    1    2    0    0  0.10901014142E-01 -0.16515722379E-01 -0.28639536014E-01  0.34811265679E-01  0.00000000000E+00 0.  1.
</event>
<event>
 5   0  0.4143600E+04  0.9118800E+02  0.7546771E-02  0.1180000E+00
      -11   -1    0    0    0    0  0.00000000000E+00  0.00000000000E+00  0.34996269501E-01  0.35000000000E-01  0.51099999109E-03 0. -1.
       11   -1    0    0    0    0 -0.00000000000E+00 -0.00000000000E+00 -0.34996269501E-01  0.35000000000E-01  0.51099999109E-03 0.  1.
       22    1    1    2    0    0 -0.33511896673E-01 -0.57708405913E-02  0.49383638105E-02  0.34361857588E-01  0.00000000000E+00 0.  1.
       22    1    1    2    0    0  0.33063648930E-01  0.62643216796E-02 -0.32326260278E-02  0.33806751955E-01  0.00000000000E+00 0. -1.
       22    1    1    2    0    0  0.44824774328E-03 -0.49348108831E-03 -0.17057377827E-02  0.18313904573E-02  0.00000000000E+00 0.  1.
</event>
<event>
 5   0  0.4143600E+04  0.9118800E+02  0.7546771E-02  0.1180000E+00
      -11   -1    0    0    0    0  0.00000000000E+00  0.00000000000E+00  0.34996269501E-01  0.35000000000E-01  0.51099999109E-03 0. -1.
       11   -1    0    0    0    0 -0.00000000000E+00 -0.00000000000E+00 -0.34996269501E-01  0.35000000000E-01  0.51099999109E-03 0.  1.
       22    1    1    2    0    0 -0.99069185416E-02  0.12256114452E-01 -0.31217664425E-01  0.34970014993E-01  0.00000000000E+00 0.  1.
       22    1    1    2    0    0 -0.29448503376E-04  0.36830969053E-04  0.32429821791E-03  0.32770881705E-03  0.00000000000E+00 0.  1.
       22    1    1    2    0    0  0.99363670450E-02 -0.12292945421E-01  0.30893366207E-01  0.34702276190E-01  0.00000000000E+00 0. -1.
</event>
<event>
 5   0  0.4143600E+04  0.9118800E+02  0.7546771E-02  0.1180000E+00
      -11   -1    0    0    0    0  0.00000000000E+00  0.00000000000E+00  0.34996269501E-01  0.35000000000E-01  0.51099999109E-03 0. -1.
       11   -1    0    0    0    0 -0.00000000000E+00 -0.00000000000E+00 -0.34996269501E-01  0.35000000000E-01  0.51099999109E-03 0.  1.
       22    1    1    2    0    0 -0.33295893445E-02  0.17181166226E-02  0.99268081458E-02  0.10610353901E-01  0.00000000000E+00 0. -1.
       22    1    1    2    0    0  0.80973380526E-02 -0.85403999978E-02 -0.32907223878E-01  0.34948400521E-01  0.00000000000E+00 0.  1.
       22    1    1    2    0    0 -0.47677487081E-02  0.68222833752E-02  0.22980415732E-01  0.24441245578E-01  0.00000000000E+00 0. -1.
</event>
<event>
 5   0  0.4143600E+04  0.9118800E+02  0.7546771E-02  0.1180000E+00
      -11   -1    0    0    0    0  0.00000000000E+00  0.00000000000E+00  0.34996269501E-01  0.35000000000E-01  0.51099999109E-03 0.  1.
       11   -1    0    0    0    0 -0.00000000000E+00 -0.00000000000E+00 -0.34996269501E-01  0.35000000000E-01  0.51099999109E-03 0. -1.
       22    1    1    2    0    0  0.35664915747E-04 -0.72193422023E-04 -0.97285049270E-03  0.97617721626E-03  0.00000000000E+00 0. -1.
       22    1    1    2    0    0 -0.12902480669E-01  0.18598903496E-02 -0.31477440786E-01  0.34069964455E-01  0.00000000000E+00 0. -1.
       22    1    1    2    0    0  0.12866815754E-01 -0.17876969276E-02  0.32450291279E-01  0.34953858328E-01  0.00000000000E+00 0.  1.
</event>
<event>
 5   0  0.4143600E+04  0.9118800E+02  0.7546771E-02  0.1180000E+00
      -11   -1    0    0    0    0  0.00000000000E+00  0.00000000000E+00  0.34996269501E-01  0.35000000000E-01  0.51099999109E-03 0.  1.
       11   -1    0    0    0    0 -0.00000000000E+00 -0.00000000000E+00 -0.34996269501E-01  0.35000000000E-01  0.51099999109E-03 0. -1.
       22    1    1    2    0    0 -0.10235225934E-01 -0.45015962191E-02  0.32880485953E-01  0.34729678590E-01  0.00000000000E+00 0.  1.
       22    1    1    2    0    0 -0.18487100151E-03 -0.20492368303E-03 -0.66557221345E-02  0.66614418960E-02  0.00000000000E+00 0.  1.
       22    1    1    2    0    0  0.10420096936E-01  0.47065199021E-02 -0.26224763818E-01  0.28608879514E-01  0.00000000000E+00 0. -1.
</event>
<event>
 5   0  0.4143600E+04  0.9118800E+02  0.7546771E-02  0.1180000E+00
      -11   -1    0    0    0    0  0.00000000000E+00  0.00000000000E+00  0.34996269501E-01  0.35000000000E-01  0.51099999109E-03 0. -1.
       11   -1    0    0    0    0 -0.00000000000E+00 -0.00000000000E+00 -0.34996269501E-01  0.35000000000E-01  0.51099999109E-03 0.  1.
       22    1    1    2    0    0  0.23138587840E-02  0.31267816116E-02 -0.52782068041E-02  0.65566891634E-02  0.00000000000E+00 0.  1.
       22    1    1    2    0    0 -0.12840674454E-01 -0.47002159317E-02 -0.26559925873E-01  0.29873141995E-01  0.00000000000E+00 0.  1.
       22    1    1    2    0    0  0.10526815670E-01  0.15734343201E-02  0.31838132677E-01  0.33570168842E-01  0.00000000000E+00 0. -1.
</event>
<event>
 5   0  0.4143600E+04  0.9118800E+02  0.7546771E-02  0.1180000E+00
      -11   -1    0    0    0    0  0.00000000000E+00  0.00000000000E+00  0.34996269501E-01  0.35000000000E-01  0.51099999109E-03 0.  1.
       11   -1    0    0    0    0 -0.00000000000E+00 -0.00000000000E+00 -0.34996269501E-01  0.35000000000E-01  0.51099999109E-03 0. -1.
       22    1    1    2    0    0  0.14107103551E-02 -0.63120969213E-03 -0.34437077515E-01  0.34471739689E-01  0.00000000000E+00 0. -1.
       22    1    1    2    0    0 -0.20752045743E-03  0.76940194557E-04 -0.51006803894E-03  0.55601613119E-03  0.00000000000E+00 0.  1.
       22    1    1    2    0    0 -0.12031898977E-02  0.55426949757E-03  0.34947145554E-01  0.34972244180E-01  0.00000000000E+00 0.  1.
</event>
<event>
 5   0  0.4143600E+04  0.9118800E+02  0.7546771E-02  0.1180000E+00
      -11   -1    0    0    0    0  0.00000000000E+00  0.00000000000E+00  0.34996269501E-01  0.35000000000E-01  0.51099999109E-03 0.  1.
       11   -1    0    0    0    0 -0.00000000000E+00 -0.00000000000E+00 -0.34996269501E-01  0.35000000000E-01  0.51099999109E-03 0. -1.
       22    1    1    2    0    0  0.32523021550E-03  0.39870770464E-03  0.20321829844E-02  0.20963087103E-02  0.00000000000E+00 0. -1.
       22    1    1    2    0    0 -0.12846508311E-01 -0.20953745826E-01 -0.24697259772E-01  0.34843175518E-01  0.00000000000E+00 0. -1.
       22    1    1    2    0    0  0.12521278096E-01  0.20555038121E-01  0.22665076788E-01  0.33060515772E-01  0.00000000000E+00 0.  1.
</event>
<event>
 5   0  0.4143600E+04  0.9118800E+02  0.7546771E-02  0.1180000E+00
      -11   -1    0    0    0    0  0.00000000000E+00  0.00000000000E+00  0.34996269501E-01  0.35000000000E-01  0.51099999109E-03 0.  1.
       11   -1    0    0    0    0 -0.00000000000E+00 -0.00000000000E+00 -0.34996269501E-01  0.35000000000E-01  0.51099999109E-03 0. -1.
       22    1    1    2    0    0  0.21809417984E-01  0.69335417253E-02 -0.11316928019E-01  0.25530326544E-01  0.00000000000E+00 0. -1.
       22    1    1    2    0    0  0.10639416658E-02 -0.57792967761E-02 -0.11013161740E-01  0.12482867243E-01  0.00000000000E+00 0. -1.
       22    1    1    2    0    0 -0.22873359650E-01 -0.11542449491E-02  0.22330089759E-01  0.31986806213E-01  0.00000000000E+00 0.  1.
</event>
<event>
 5   0  0.4143600E+04  0.9118800E+02  0.7546771E-02  0.1180000E+00
      -11   -1    0    0    0    0  0.00000000000E+00  0.00000000000E+00  0.34996269501E-01  0.35000000000E-01  0.51099999109E-03 0. -1.
       11   -1    0    0    0    0 -0.00000000000E+00 -0.00000000000E+00 -0.34996269501E-01  0.35000000000E-01  0.51099999109E-03 0.  1.
       22    1    1    2    0    0 -0.53450801081E-03  0.34923474039E-02  0.34794536783E-01  0.34973446772E-01  0.00000000000E+00 0. -1.
       22    1    1    2    0    0  0.64192469072E-03 -0.36270994621E-02 -0.34391855998E-01  0.34588548348E-01  0.00000000000E+00 0.  1.
       22    1    1    2    0    0 -0.10741667991E-03  0.13475205821E-03 -0.40268078495E-03  0.43800487998E-03  0.00000000000E+00 0. -1.
</event>
<event>
 5   0  0.4143600E+04  0.9118800E+02  0.7546771E-02  0.1180000E+00
      -11   -1    0    0    0    0  0.00000000000E+00  0.00000000000E+00  0.34996269501E-01  0.35000000000E-01  0.51099999109E-03 0.  1.
       11   -1    0    0    0    0 -0.00000000000E+00 -0.00000000000E+00 -0.34996269501E-01  0.35000000000E-01  0.51099999109E-03 0. -1.
       22    1    1    2    0    0 -0.10182330302E-02 -0.58901890365E-02 -0.16903536256E-01  0.17929324118E-01  0.00000000000E+00 0. -1.
       22    1    1    2    0    0 -0.28138154499E-02 -0.11619090431E-01 -0.12714055494E-01  0.17451877462E-01  0.00000000000E+00 0. -1.
       22    1    1    2    0    0  0.38320484801E-02  0.17509279468E-01  0.29617591749E-01  0.34618798420E-01  0.00000000000E+00 0.  1.
</event>
<event>
 5   0  0.4143600E+04  0.9118800E+02  0.7546771E-02  0.1180000E+00
      -11   -1    0    0    0    0  0.00000000000E+00  0.00000000000E+00  0.34996269501E-01  0.35000000000E-01  0.51099999109E-03 0.  1.
       11   -1    0    0    0    0 -0.00000000000E+00 -0.00000000000E+00 -0.34996269501E-01  0.35000000000E-01  0.51099999109E-03 0. -1.
       22    1    1    2    0    0  0.14537618350E-02 -0.31774379757E-03  0.21350063640E-01  0.21401859779E-01  0.00000000000E+00 0.  1.
       22    1    1    2    0    0  0.13955889389E-01 -0.72452499057E-02 -0.26379844704E-01  0.30710856410E-01  0.00000000000E+00 0. -1.
       22    1    1    2    0    0 -0.15409651224E-01  0.75629937033E-02  0.50297810640E-02  0.17887283811E-01  0.00000000000E+00 0.  1.
</event>
<event>
 5   0  0.4143600E+04  0.9118800E+02  0.7546771E-02  0.1180000E+00
      -11   -1    0    0    0    0  0.00000000000E+00  0.00000000000E+00  0.34996269501E-01  0.35000000000E-01  0.51099999109E-03 0. -1.
       11   -1    0    0    0    0 -0.00000000000E+00 -0.00000000000E+00 -0.34996269501E-01  0.35000000000E-01  0.51099999109E-03 0.  1.
       22    1    1    2    0    0 -0.74433853900E-02  0.15252858721E-01 -0.30475941589E-01  0.34883186508E-01  0.00000000000E+00 0.  1.
       22    1    1    2    0    0  0.72575462309E-02 -0.15381471847E-01  0.28965909104E-01  0.33589961948E-01  0.00000000000E+00 0. -1.
       22    1    1    2    0    0  0.18583915908E-03  0.12861312577E-03  0.15100324854E-02  0.15268515436E-02  0.00000000000E+00 0. -1.
</event>
<event>
 5   0  0.4143600E+04  0.9118800E+02  0.7546771E-02  0.1180000E+00
      -11   -1    0    0    0    0  0.00000000000E+00  0.00000000000E+00  0.34996269501E-01  0.35000000000E-01  0.51099999109E-03 0.  1.
       11   -1    0    0    0    0 -0.00000000000E+00 -0.00000000000E+00 -0.34996269501E-01  0.35000000000E-01  0.51099999109E-03 0. -1.
       22    1    1    2    0    0  0.15781572718E-02 -0.11350288104E-01 -0.27889930001E-01  0.30152409786E-01  0.00000000000E+00 0. -1.
       22    1    1    2    0    0 -0.16695251237E-02 -0.26826786626E-03  0.28174494054E-01  0.28225190822E-01  0.00000000000E+00 0.  1.
       22    1    1    2    0    0  0.91367851901E-04  0.11618555970E-01 -0.28456405233E-03  0.11622399392E-01  0.00000000000E+00 0.  1.
</event>
<event>
 5   0  0.4143600E+04  0.9118800E+02  0.7546771E-02  0.1180000E+00
      -11   -1    0    0    0    0  0.00000000000E+00  0.00000000000E+00  0.34996269501E-01  0.35000000000E-01  0.51099999109E-03 0.  1.
       11   -1    0    0    0    0 -0.00000000000E+00 -0.00000000000E+00 -0.34996269501E-01  0.35000000000E-01  0.51099999109E-03 0. -1.
       22    1    1    2    0    0  0.19702403119E-01 -0.77893427854E-02  0.25287281760E-01  0.32989470571E-01  0.00000000000E+00 0.  1.
       22    1    1    2    0    0 -0.27681674427E-02 -0.49929009724E-02 -0.41192983375E-02  0.70399168961E-02  0.00000000000E+00 0. -1.
       22    1    1    2    0    0 -0.16934235676E-01  0.12782243758E-01 -0.21167983423E-01  0.29970612533E-01  0.00000000000E+00 0. -1.
</event>
<event>
 5   0  0.4143600E+04  0.9118800E+02  0.7546771E-02  0.1180000E+00
      -11   -1    0    0    0    0  0.00000000000E+00  0.00000000000E+00  0.34996269501E-01  0.35000000000E-01  0.51099999109E-03 0.  1.
       11   -1    0    0    0    0 -0.00000000000E+00 -0.00000000000E+00 -0.34996269501E-01  0.35000000000E-01  0.51099999109E-03 0. -1.
       22    1    1    2    0    0 -0.14930809779E-01  0.13776617479E-01  0.28314885386E-01  0.34849060306E-01  0.00000000000E+00 0.  1.
       22    1    1    2    0    0  0.26475684848E-03 -0.47092614179E-03 -0.28081162599E-02  0.28596126571E-02  0.00000000000E+00 0. -1.
       22    1    1    2    0    0  0.14666052931E-01 -0.13305691337E-01 -0.25506769126E-01  0.32291327036E-01  0.00000000000E+00 0. -1.
</event>
<event>
 5   0  0.4143600E+04  0.9118800E+02  0.7546771E-02  0.1180000E+00
      -11   -1    0    0    0    0  0.00000000000E+00  0.00000000000E+00  0.34996269501E-01  0.35000000000E-01  0.51099999109E-03 0.  1.
       11   -1    0    0    0    0 -0.00000000000E+00 -0.00000000000E+00 -0.34996269501E-01  0.35000000000E-01  0.51099999109E-03 0. -1.
       22    1    1    2    0    0  0.15603613828E-01 -0.63481875419E-02  0.30206578278E-01  0.34586263470E-01  0.00000000000E+00 0.  1.
       22    1    1    2    0    0 -0.17306017771E-03 -0.22007936535E-03 -0.57659556467E-02  0.57727488488E-02  0.00000000000E+00 0. -1.
       22    1    1    2    0    0 -0.15430553651E-01  0.65682669072E-02 -0.24440622631E-01  0.29640987681E-01  0.00000000000E+00 0. -1.
</event>
<event>
 5   0  0.4143600E+04  0.9118800E+02  0.7546771E-02  0.1180000E+00
      -11   -1    0    0    0    0  0.00000000000E+00  0.00000000000E+00  0.34996269501E-01  0.35000000000E-01  0.51099999109E-03 0. -1.
       11   -1    0    0    0    0 -0.00000000000E+00 -0.00000000000E+00 -0.34996269501E-01  0.35000000000E-01  0.51099999109E-03 0.  1.
       22    1    1    2    0    0  0.66971208350E-04  0.73179152984E-04 -0.99056947336E-03  0.99552408948E-03  0.00000000000E+00 0.  1.
       22    1    1    2    0    0  0.61376856043E-02  0.22715290887E-01 -0.24695560728E-01  0.34110501966E-01  0.00000000000E+00 0.  1.
       22    1    1    2    0    0 -0.62046568127E-02 -0.22788470040E-01  0.25686130202E-01  0.34893973945E-01  0.00000000000E+00 0. -1.
</event>
<event>
 5   0  0.4143600E+04  0.9118800E+02  0.7546771E-02  0.1180000E+00
      -11   -1    0    0    0    0  0.00000000000E+00  0.00000000000E+00  0.34996269501E-01  0.35000000000E-01  0.51099999109E-03 0. -1.
       11   -1    0    0    0    0 -0.00000000000E+00 -0.00000000000E+00 -0.34996269501E-01  0.35000000000E-01  0.51099999109E-03 0.  1.
       22    1    1    2    0    0  0.16790519189E-01 -0.12947237943E-03  0.30367926330E-01  0.34700853697E-01  0.00000000000E+00 0. -1.
       22    1    1    2    0    0  0.15105575504E-03  0.12079804615E-03  0.24432747878E-03  0.31161823754E-03  0.00000000000E+00 0.  1.
       22    1    1    2    0    0 -0.16941574944E-01  0.86743332764E-05 -0.30612253809E-01  0.34987528065E-01  0.00000000000E+00 0.  1.
</event>
<event>
 5   0  0.4143600E+04  0.9118800E+02  0.7546771E-02  0.1180000E+00
      -11   -1    0    0    0    0  0.00000000000E+00  0.00000000000E+00  0.34996269501E-01  0.35000000000E-01  0.51099999109E-03 0.  1.
       11   -1    0    0    0    0 -0.00000000000E+00 -0.00000000000E+00 -0.34996269501E-01  0.35000000000E-01  0.51099999109E-03 0.  1.
       22    1    1    2    0    0 -0.11509559042E-01  0.10661340710E-01  0.30700410652E-01  0.34476794359E-01  0.00000000000E+00 0.  1.
       22    1    1    2    0    0 -0.69869372702E-03  0.55599852196E-03 -0.38907412263E-03  0.97400510958E-03  0.00000000000E+00 0.  1.
       22    1    1    2    0    0  0.12208252769E-01 -0.11217339232E-01 -0.30311336530E-01  0.34549200531E-01  0.00000000000E+00 0.  1.
</event>
<event>
 5   0  0.4143600E+04  0.9118800E+02  0.7546771E-02  0.1180000E+00
      -11   -1    0    0    0    0  0.00000000000E+00  0.00000000000E+00  0.34996269501E-01  0.35000000000E-01  0.51099999109E-03 0.  1.
       11   -1    0    0    0    0 -0.00000000000E+00 -0.00000000000E+00 -0.34996269501E-01  0.35000000000E-01  0.51099999109E-03 0. -1.
       22    1    1    2    0    0  0.38160348226E-02  0.16364531968E-01 -0.30633965356E-01  0.34939946504E-01  0.00000000000E+00 0. -1.
       22    1    1    2    0    0 -0.38677578451E-02 -0.16404499675E-01  0.29899563348E-01  0.34322748269E-01  0.00000000000E+00 0.  1.
       22    1    1    2    0    0  0.51723022457E-04  0.39967706650E-04  0.73440200807E-03  0.73730522722E-03  0.00000000000E+00 0.  1.
</event>
<event>
 5   0  0.4143600E+04  0.9118800E+02  0.7546771E-02  0.1180000E+00
      -11   -1    0    0    0    0  0.00000000000E+00  0.00000000000E+00  0.34996269501E-01  0.35000000000E-01  0.51099999109E-03 0. -1.
       11   -1    0    0    0    0 -0.00000000000E+00 -0.00000000000E+00 -0.34996269501E-01  0.35000000000E-01  0.51099999109E-03 0.  1.
       22    1    1    2    0    0  0.10262166434E-01  0.14728688429E-01  0.23854978278E-01  0.29854753581E-01  0.00000000000E+00 0. -1.
       22    1    1    2    0    0 -0.80657152341E-02 -0.13860589898E-01 -0.29748759948E-01  0.33795864141E-01  0.00000000000E+00 0.  1.
       22    1    1    2    0    0 -0.21964512000E-02 -0.86809853035E-03  0.58937816702E-02  0.63493822777E-02  0.00000000000E+00 0. -1.
</event>
<event>
 5   0  0.4143600E+04  0.9118800E+02  0.7546771E-02  0.1180000E+00
      -11   -1    0    0    0    0  0.00000000000E+00  0.00000000000E+00  0.34996269501E-01  0.35000000000E-01  0.51099999109E-03 0. -1.
       11   -1    0    0    0    0 -0.00000000000E+00 -0.00000000000E+00 -0.34996269501E-01  0.35000000000E-01  0.51099999109E-03 0.  1.
       22    1    1    2    0    0 -0.74328374101E-03 -0.68459120532E-03  0.63680201608E-03  0.11944256552E-02  0.00000000000E+00 0. -1.
       22    1    1    2    0    0  0.77680871336E-02 -0.20144512177E-01  0.26307067446E-01  0.34032430800E-01  0.00000000000E+00 0. -1.
       22    1    1    2    0    0 -0.70248033925E-02  0.20829103382E-01 -0.26943869462E-01  0.34773143545E-01  0.00000000000E+00 0.  1.
</event>
<event>
 5   0  0.4143600E+04  0.9118800E+02  0.7546771E-02  0.1180000E+00
      -11   -1    0    0    0    0  0.00000000000E+00  0.00000000000E+00  0.34996269501E-01  0.35000000000E-01  0.51099999109E-03 0.  1.
       11   -1    0    0    0    0 -0.00000000000E+00 -0.00000000000E+00 -0.34996269501E-01  0.35000000000E-01  0.51099999109E-03 0. -1.
       22    1    1    2    0    0  0.50971968816E-02  0.45458653128E-02 -0.16571544523E-01  0.17923794112E-01  0.00000000000E+00 0. -1.
       22    1    1    2    0    0  0.11119551906E-03  0.10313525337E-02 -0.17312472556E-01  0.17343522090E-01  0.00000000000E+00 0. -1.
       22    1    1    2    0    0 -0.52083924006E-02 -0.55772178465E-02  0.33884017080E-01  0.34732683797E-01  0.00000000000E+00 0.  1.
</event>
</LesHouchesEvents>
