<LesHouchesEvents version="3.0">
<header>
<!--
#*********************************************************************
#                                                                    *
#                        MadGraph5_aMC@NLO                           *
#                                                                    *
#                           Going Beyond                             *
#                                                                    *
#                   http://madgraph.hep.uiuc.edu                     *
#                   http://madgraph.phys.ucl.ac.be                   *
#                   http://amcatnlo.cern.ch                          *
#                                                                    *
#                     The MadGraph5_aMC@NLO team                     *
#                                                                    *
#....................................................................*
#                                                                    *
# This file contains all the information necessary to reproduce      *
# the events generated:                                              *
#                                                                    *
# 1. software version                                                *
# 2. proc_card          : code generation info including model       *
# 3. param_card         : model primary parameters in the LH format  *
# 4. run_card           : running parameters (collider and cuts)     *
# 5. pythia_card        : present only if pythia has been run        *
# 6. pgs_card           : present only if pgs has been run           *
# 7. delphes_cards      : present only if delphes has been run       *
#                                                                    *
#                                                                    *
#*********************************************************************
-->
<MGVersion>
#5.2.1.2
</MGVersion>
<MG5ProcCard>
#************************************************************
#*                     MadGraph5_aMC@NLO                    *
#*                                                          *
#*                *                       *                 *
#*                  *        * *        *                   *
#*                    * * * * 5 * * * *                     *
#*                  *        * *        *                   *
#*                *                       *                 *
#*                                                          *
#*                                                          *
#*         VERSION 2.1.2                 2014-07-03         *
#*                                                          *
#*    The MadGraph5_aMC@NLO Development Team - Find us at   *
#*    https://server06.fynu.ucl.ac.be/projects/madgraph     *
#*                                                          *
#************************************************************
#*                                                          *
#*               Command File for MadGraph5_aMC@NLO         *
#*                                                          *
#*     run as ./bin/mg5_aMC  filename                       *
#*                                                          *
#************************************************************
set group_subprocesses Auto
set ignore_six_quark_processes False
set gauge unitary
set complex_mass_scheme False
import model sm-lepton_masses
define p = g u c d s u~ c~ d~ s~
define j = g u c d s u~ c~ d~ s~
define l+ = e+ mu+
define l- = e- mu-
define vl = ve vm vt
define vl~ = ve~ vm~ vt~
generate e+ e- > a a a
output ../../e+e-2yyy
</MG5ProcCard>
<MGProcCard>
#*********************************************************************
#                        MadGraph/MadEvent                           *
#                   http://madgraph.hep.uiuc.edu                     *
#                                                                    *
#                          proc_card.dat                             *
#*********************************************************************
#                                                                    *
#            This Files is generated by MADGRAPH 5                   *
#                                                                    *
# WARNING: This Files is generated for MADEVENT (compatibility issue)*
#          This files is NOT a valid MG4 proc_card.dat               *
#          Running this in MG4 will NEVER reproduce the result of MG5*
#                                                                    *
#*********************************************************************
#*********************************************************************
# Process(es) requested : mg2 input                                  *
#*********************************************************************
# Begin PROCESS # This is TAG. Do not modify this line
e+ e- > a a a           #Process
# Be carefull the coupling are here in MG5 convention
          
end_coup           # End the couplings input

done               # this tells MG there are no more procs
# End PROCESS  # This is TAG. Do not modify this line
#*********************************************************************
# Model information                                                  *
#*********************************************************************
# Begin MODEL  # This is TAG. Do not modify this line
sm-lepton_masses
# End   MODEL  # This is TAG. Do not modify this line
#*********************************************************************
# Start multiparticle definitions                                    *
#*********************************************************************
# Begin MULTIPARTICLES # This is TAG. Do not modify this line

# End  MULTIPARTICLES # This is TAG. Do not modify this line
</MGProcCard>
<MGRunCard>
#*********************************************************************
#                       MadGraph5_aMC@NLO                            *
#                                                                    *
#                     run_card.dat MadEvent                          *
#                                                                    *
#  This file is used to set the parameters of the run.               *
#                                                                    *
#  Some notation/conventions:                                        *
#                                                                    *
#   Lines starting with a '# ' are info or comments                  *
#                                                                    *
#   mind the format:   value    = variable     ! comment             *
#*********************************************************************
#
#*******************                                                 
# Running parameters
#*******************                                                 
#                                                                    
#*********************************************************************
# Tag name for the run (one word)                                    *
#*********************************************************************
  tag_1     = run_tag ! name of the run 
#*********************************************************************
# Run to generate the grid pack                                      *
#*********************************************************************
  .false.     = gridpack  !True = setting up the grid pack
#*********************************************************************
# Number of events and rnd seed                                      *
# Warning: Do not generate more than 1M events in a single run       *
# If you want to run Pythia, avoid more than 50k events in a run.    *
#*********************************************************************
  10000 = nevents ! Number of unweighted events requested 
 168 = iseed   ! rnd seed (0=assigned automatically=default))
#*********************************************************************
# Collider type and energy                                           *
# lpp: 0=No PDF, 1=proton, -1=antiproton, 2=photon from proton,      *
#                                         3=photon from electron     *
#*********************************************************************
        0     = lpp1    ! beam 1 type 
        -0     = lpp2    ! beam 2 type
     0.035     = ebeam1  ! beam 1 total energy in GeV
     0.035     = ebeam2  ! beam 2 total energy in GeV
#*********************************************************************
# Beam polarization from -100 (left-handed) to 100 (right-handed)    *
#*********************************************************************
        0     = polbeam1 ! beam polarization for beam 1
        0     = polbeam2 ! beam polarization for beam 2
#*********************************************************************
# PDF CHOICE: this automatically fixes also alpha_s and its evol.    *
#*********************************************************************
 'nn23lo1'    = pdlabel     ! PDF set                                     
#*********************************************************************
# Renormalization and factorization scales                           *
#*********************************************************************
 T        = fixed_ren_scale  ! if .true. use fixed ren scale
 T        = fixed_fac_scale  ! if .true. use fixed fac scale
 91.1880  = scale            ! fixed ren scale
 91.1880  = dsqrt_q2fact1    ! fixed fact scale for pdf1
 91.1880  = dsqrt_q2fact2    ! fixed fact scale for pdf2
 1        = scalefact        ! scale factor for event-by-event scales
#*********************************************************************
# Matching - Warning! ickkw > 1 is still beta
#*********************************************************************
 0        = ickkw            ! 0 no matching, 1 MLM, 2 CKKW matching
 1        = highestmult      ! for ickkw=2, highest mult group
 1        = ktscheme         ! for ickkw=1, 1 Durham kT, 2 Pythia pTE
 1        = alpsfact         ! scale factor for QCD emission vx
 F        = chcluster        ! cluster only according to channel diag
 T        = pdfwgt           ! for ickkw=1, perform pdf reweighting
 5        = asrwgtflavor     ! highest quark flavor for a_s reweight
 T        = clusinfo         ! include clustering tag in output
 3.0      = lhe_version       ! Change the way clustering information pass to shower.        
#*********************************************************************
#**********************************************************
#
#**********************************************************
# Automatic ptj and mjj cuts if xqcut > 0
# (turn off for VBF and single top processes)
#**********************************************************
   T  = auto_ptj_mjj  ! Automatic setting of ptj and mjj
#**********************************************************
#                                                                    
#**********************************
# BW cutoff (M+/-bwcutoff*Gamma)
#**********************************
  15  = bwcutoff      ! (M+/-bwcutoff*Gamma)
#**********************************************************
# Apply pt/E/eta/dr/mij cuts on decay products or not
# (note that etmiss/ptll/ptheavy/ht/sorted cuts always apply)
#**********************************************************
   T  = cut_decays    ! Cut decay products 
#*************************************************************
# Number of helicities to sum per event (0 = all helicities)
# 0 gives more stable result, but longer run time (needed for
# long decay chains e.g.).
# Use >=2 if most helicities contribute, e.g. pure QCD.
#*************************************************************
   0  = nhel          ! Number of helicities used per event
#*******************                                                 
# Standard Cuts
#*******************                                                 
#                                                                    
#*********************************************************************
# Minimum and maximum pt's (for max, -1 means no cut)                *
#*********************************************************************
 20  = ptj       ! minimum pt for the jets 
  0  = ptb       ! minimum pt for the b 
 0  = pta       ! minimum pt for the photons 
 0  = ptl       ! minimum pt for the charged leptons 
  0  = misset    ! minimum missing Et (sum of neutrino's momenta)
  0  = ptheavy   ! minimum pt for one heavy final state
 1.0 = ptonium   ! minimum pt for the quarkonium states
 -1  = ptjmax    ! maximum pt for the jets
 -1  = ptbmax    ! maximum pt for the b
 -1  = ptamax    ! maximum pt for the photons
 -1  = ptlmax    ! maximum pt for the charged leptons
 -1  = missetmax ! maximum missing Et (sum of neutrino's momenta)
#*********************************************************************
# Minimum and maximum E's (in the center of mass frame)              *
#*********************************************************************
  0  = ej     ! minimum E for the jets 
  0  = eb     ! minimum E for the b 
  0.0003  = ea     ! minimum E for the photons 
  0  = el     ! minimum E for the charged leptons 
 -1   = ejmax ! maximum E for the jets
 -1   = ebmax ! maximum E for the b
 -1   = eamax ! maximum E for the photons
 -1   = elmax ! maximum E for the charged leptons
#*********************************************************************
# Maximum and minimum absolute rapidity (for max, -1 means no cut)   *
#*********************************************************************
   5  = etaj    ! max rap for the jets 
  -1  = etab    ! max rap for the b
  -1 = etaa
#  1.58619 = etaa    ! max rap for the photons 
 -1  = etal    ! max rap for the charged leptons 
 0.6  = etaonium ! max rap for the quarkonium states
   0  = etajmin ! min rap for the jets
   0  = etabmin ! min rap for the b
   0 = etaamin 
#   1.29833  = etaamin ! min rap for the photons
   0  = etalmin ! main rap for the charged leptons
#*********************************************************************
# Minimum and maximum DeltaR distance                                *
#*********************************************************************
 0.4 = drjj    ! min distance between jets 
 0   = drbb    ! min distance between b's 
 0.4 = drll    ! min distance between leptons 
 0 = draa    ! min distance between gammas 
 0   = drbj    ! min distance between b and jet 
 0.4 = draj    ! min distance between gamma and jet 
 0.4 = drjl    ! min distance between jet and lepton 
 0   = drab    ! min distance between gamma and b 
 0   = drbl    ! min distance between b and lepton 
 0 = dral    ! min distance between gamma and lepton 
 -1  = drjjmax ! max distance between jets
 -1  = drbbmax ! max distance between b's
 -1  = drllmax ! max distance between leptons
 -1  = draamax ! max distance between gammas
 -1  = drbjmax ! max distance between b and jet
 -1  = drajmax ! max distance between gamma and jet
 -1  = drjlmax ! max distance between jet and lepton
 -1  = drabmax ! max distance between gamma and b
 -1  = drblmax ! max distance between b and lepton
 -1  = dralmax ! maxdistance between gamma and lepton
#*********************************************************************
# Minimum and maximum invariant mass for pairs                       *
# WARNING: for four lepton final state mmll cut require to have      *
#          different lepton masses for each flavor!                  *           
#*********************************************************************
 0   = mmjj    ! min invariant mass of a jet pair 
 0   = mmbb    ! min invariant mass of a b pair 
 0   = mmaa    ! min invariant mass of gamma gamma pair
 0   = mmll    ! min invariant mass of l+l- (same flavour) lepton pair
 -1  = mmjjmax ! max invariant mass of a jet pair
 -1  = mmbbmax ! max invariant mass of a b pair
 -1  = mmaamax ! max invariant mass of gamma gamma pair
 -1  = mmllmax ! max invariant mass of l+l- (same flavour) lepton pair
#*********************************************************************
# Minimum and maximum invariant mass for all letpons                 *
#*********************************************************************
 0   = mmnl    ! min invariant mass for all letpons (l+- and vl) 
 -1  = mmnlmax ! max invariant mass for all letpons (l+- and vl) 
#*********************************************************************
# Minimum and maximum pt for 4-momenta sum of leptons                *
#*********************************************************************
 0   = ptllmin  ! Minimum pt for 4-momenta sum of leptons(l and vl)
 -1  = ptllmax  ! Maximum pt for 4-momenta sum of leptons(l and vl)
#*********************************************************************
# Inclusive cuts                                                     *
#*********************************************************************
 0  = xptj ! minimum pt for at least one jet  
 0  = xptb ! minimum pt for at least one b 
 0  = xpta ! minimum pt for at least one photon 
 0  = xptl ! minimum pt for at least one charged lepton 
#*********************************************************************
# Control the pt's of the jets sorted by pt                          *
#*********************************************************************
 0   = ptj1min ! minimum pt for the leading jet in pt
 0   = ptj2min ! minimum pt for the second jet in pt
 0   = ptj3min ! minimum pt for the third jet in pt
 0   = ptj4min ! minimum pt for the fourth jet in pt
 -1  = ptj1max ! maximum pt for the leading jet in pt 
 -1  = ptj2max ! maximum pt for the second jet in pt
 -1  = ptj3max ! maximum pt for the third jet in pt
 -1  = ptj4max ! maximum pt for the fourth jet in pt
 0   = cutuse  ! reject event if fails any (0) / all (1) jet pt cuts
#*********************************************************************
# Control the pt's of leptons sorted by pt                           *
#*********************************************************************
 0   = ptl1min ! minimum pt for the leading lepton in pt
 0   = ptl2min ! minimum pt for the second lepton in pt
 0   = ptl3min ! minimum pt for the third lepton in pt
 0   = ptl4min ! minimum pt for the fourth lepton in pt
 -1  = ptl1max ! maximum pt for the leading lepton in pt 
 -1  = ptl2max ! maximum pt for the second lepton in pt
 -1  = ptl3max ! maximum pt for the third lepton in pt
 -1  = ptl4max ! maximum pt for the fourth lepton in pt
#*********************************************************************
# Control the Ht(k)=Sum of k leading jets                            *
#*********************************************************************
 0   = htjmin ! minimum jet HT=Sum(jet pt)
 -1  = htjmax ! maximum jet HT=Sum(jet pt)
 0   = ihtmin  !inclusive Ht for all partons (including b)
 -1  = ihtmax  !inclusive Ht for all partons (including b)
 0   = ht2min ! minimum Ht for the two leading jets
 0   = ht3min ! minimum Ht for the three leading jets
 0   = ht4min ! minimum Ht for the four leading jets
 -1  = ht2max ! maximum Ht for the two leading jets
 -1  = ht3max ! maximum Ht for the three leading jets
 -1  = ht4max ! maximum Ht for the four leading jets
#***********************************************************************
# Photon-isolation cuts, according to hep-ph/9801442                   *
# When ptgmin=0, all the other parameters are ignored                  *
# When ptgmin>0, pta and draj are not going to be used                 *
#***********************************************************************
   0 = ptgmin ! Min photon transverse momentum
 0.0 = R0gamma ! Radius of isolation code
 1.0 = xn ! n parameter of eq.(3.4) in hep-ph/9801442
 1.0 = epsgamma ! epsilon_gamma parameter of eq.(3.4) in hep-ph/9801442
 .true. = isoEM ! isolate photons from EM energy (photons and leptons)
#*********************************************************************
# WBF cuts                                                           *
#*********************************************************************
 0   = xetamin ! minimum rapidity for two jets in the WBF case  
 0   = deltaeta ! minimum rapidity for two jets in the WBF case 
#*********************************************************************
# KT DURHAM CUT                                                      *
#*********************************************************************
 -1    =  ktdurham        
 0.4  =  dparameter 
#*********************************************************************
# maximal pdg code for quark to be considered as a light jet         *
# (otherwise b cuts are applied)                                     *
#*********************************************************************
 4 = maxjetflavor    ! Maximum jet pdg code
#*********************************************************************
# Jet measure cuts                                                   *
#*********************************************************************
 0   = xqcut   ! minimum kt jet measure between partons
#*********************************************************************
#
#*********************************************************************
# Store info for systematics studies                                 *
# WARNING: If use_syst is T, matched Pythia output is                *
#          meaningful ONLY if plotted taking matchscale              *
#          reweighting into account!                                 *
#*********************************************************************
   F  = use_syst      ! Enable systematics studies
#
#**************************************
# Parameter of the systematics study
#  will be used by SysCalc (if installed)
#**************************************                                  
#
0.5 1 2 = sys_scalefact  # factorization/renormalization scale factor
0.5 1 2 = sys_alpsfact  # \alpha_s emission scale factors
30 50 = sys_matchscale # variation of merging scale
# PDF sets and number of members (0 or none for all members).
CT10nlo.LHgrid = sys_pdf # matching scales
# MSTW2008nlo68cl.LHgrid 1  = sys_pdf
</MGRunCard>
<slha>
######################################################################
## PARAM_CARD AUTOMATICALY GENERATED BY MG5 FOLLOWING UFO MODEL   ####
######################################################################
##                                                                  ##
##  Width set on Auto will be computed following the information    ##
##        present in the decay.py files of the model.               ##
##        See  arXiv:1402.1178 for more details.                    ##
##                                                                  ##
######################################################################

###################################
## INFORMATION FOR MASS
###################################
Block mass 
    5 4.700000e+00 # MB 
    6 1.730000e+02 # MT 
   11 5.110000e-04 # Me 
   13 1.056600e-01 # MM 
   15 1.777000e+00 # MTA 
   23 9.118800e+01 # MZ 
   25 1.250000e+02 # MH 
## Dependent parameters, given by model restrictions.
## Those values should be edited following the 
## analytical expression. MG5 ignores those values 
## but they are important for interfacing the output of MG5
## to external program such as Pythia.
  1 0.000000 # d : 0.0 
  2 0.000000 # u : 0.0 
  3 0.000000 # s : 0.0 
  4 0.000000 # c : 0.0 
  12 0.000000 # ve : 0.0 
  14 0.000000 # vm : 0.0 
  16 0.000000 # vt : 0.0 
  21 0.000000 # g : 0.0 
  22 0.000000 # a : 0.0 
  24 80.419002 # w+ : cmath.sqrt(MZ__exp__2/2. + cmath.sqrt(MZ__exp__4/4. - (aEW*cmath.pi*MZ__exp__2)/(Gf*sqrt__2))) 

###################################
## INFORMATION FOR SMINPUTS
###################################
Block sminputs 
    1 1.325070e+02 # aEWM1 
    2 1.166390e-05 # Gf 
    3 1.180000e-01 # aS 

###################################
## INFORMATION FOR YUKAWA
###################################
Block yukawa 
    5 4.700000e+00 # ymb 
    6 1.730000e+02 # ymt 
   11 5.110000e-04 # yme 
   13 1.056600e-01 # ymm 
   15 1.777000e+00 # ymtau 

###################################
## INFORMATION FOR DECAY
###################################
DECAY   6 1.491500e+00 # WT 
DECAY  15 2.270000e-12 # WTau 
DECAY  23 2.441404e+00 # WZ 
DECAY  24 2.047600e+00 # WW 
DECAY  25 6.382339e-03 # WH 
## Dependent parameters, given by model restrictions.
## Those values should be edited following the 
## analytical expression. MG5 ignores those values 
## but they are important for interfacing the output of MG5
## to external program such as Pythia.
DECAY  1 0.000000 # d : 0.0 
DECAY  2 0.000000 # u : 0.0 
DECAY  3 0.000000 # s : 0.0 
DECAY  4 0.000000 # c : 0.0 
DECAY  5 0.000000 # b : 0.0 
DECAY  11 0.000000 # e- : 0.0 
DECAY  12 0.000000 # ve : 0.0 
DECAY  13 0.000000 # mu- : 0.0 
DECAY  14 0.000000 # vm : 0.0 
DECAY  16 0.000000 # vt : 0.0 
DECAY  21 0.000000 # g : 0.0 
DECAY  22 0.000000 # a : 0.0
</slha>
## END BANNER##
<MGGenerationInfo>
#  Number of Events        :        10000
#  Integrated weight (pb)  :  0.41462E+08
#  Truncated wgt (pb)      :  0.00000E+00
#  Unit wgt                :  0.41462E+04
</MGGenerationInfo>
</header>
<init>
      -11       11  0.35000000000E-01  0.35000000000E-01 0 0       0       0 3   1
  0.41462010576E+08  0.80922020641E+05  0.41462000000E+04   0
<generator name='MadGraph5_aMC@NLO' version='#5.2.1.2'>please cite 1405.0301 </generator>
</init>
<event>
 5   0  0.4146200E+04  0.9118800E+02  0.7546771E-02  0.1180000E+00
      -11   -1    0    0    0    0  0.00000000000E+00  0.00000000000E+00  0.34996269501E-01  0.35000000000E-01  0.51099999109E-03 0.  1.
       11   -1    0    0    0    0 -0.00000000000E+00 -0.00000000000E+00 -0.34996269501E-01  0.35000000000E-01  0.51099999109E-03 0. -1.
       22    1    1    2    0    0 -0.20385437463E-03  0.30012225733E-03 -0.67842571456E-03  0.76934480278E-03  0.00000000000E+00 0. -1.
       22    1    1    2    0    0 -0.15672279555E-02  0.56478937860E-02  0.34423856983E-01  0.34919290331E-01  0.00000000000E+00 0.  1.
       22    1    1    2    0    0  0.17710823301E-02 -0.59480160433E-02 -0.33745431268E-01  0.34311364866E-01  0.00000000000E+00 0. -1.
</event>
<event>
 5   0  0.4146200E+04  0.9118800E+02  0.7546771E-02  0.1180000E+00
      -11   -1    0    0    0    0  0.00000000000E+00  0.00000000000E+00  0.34996269501E-01  0.35000000000E-01  0.51099999109E-03 0. -1.
       11   -1    0    0    0    0 -0.00000000000E+00 -0.00000000000E+00 -0.34996269501E-01  0.35000000000E-01  0.51099999109E-03 0.  1.
       22    1    1    2    0    0  0.21715367236E-03 -0.80972110970E-03 -0.12290936568E-02  0.14877752553E-02  0.00000000000E+00 0.  1.
       22    1    1    2    0    0  0.96456238685E-02  0.80638657070E-02  0.32544517520E-01  0.34888531218E-01  0.00000000000E+00 0. -1.
       22    1    1    2    0    0 -0.98627775408E-02 -0.72541445973E-02 -0.31315423863E-01  0.33623693527E-01  0.00000000000E+00 0.  1.
</event>
<event>
 5   0  0.4146200E+04  0.9118800E+02  0.7546771E-02  0.1180000E+00
      -11   -1    0    0    0    0  0.00000000000E+00  0.00000000000E+00  0.34996269501E-01  0.35000000000E-01  0.51099999109E-03 0. -1.
       11   -1    0    0    0    0 -0.00000000000E+00 -0.00000000000E+00 -0.34996269501E-01  0.35000000000E-01  0.51099999109E-03 0.  1.
       22    1    1    2    0    0  0.10453804443E-01 -0.21009244855E-01  0.25904847526E-01  0.34953276271E-01  0.00000000000E+00 0. -1.
       22    1    1    2    0    0 -0.10460290902E-01  0.20928335558E-01 -0.25393081171E-01  0.34528560444E-01  0.00000000000E+00 0.  1.
       22    1    1    2    0    0  0.64864585944E-05  0.80909296797E-04 -0.51176635478E-03  0.51816328540E-03  0.00000000000E+00 0.  1.
</event>
<event>
 5   0  0.4146200E+04  0.9118800E+02  0.7546771E-02  0.1180000E+00
      -11   -1    0    0    0    0  0.00000000000E+00  0.00000000000E+00  0.34996269501E-01  0.35000000000E-01  0.51099999109E-03 0.  1.
       11   -1    0    0    0    0 -0.00000000000E+00 -0.00000000000E+00 -0.34996269501E-01  0.35000000000E-01  0.51099999109E-03 0. -1.
       22    1    1    2    0    0  0.10105536315E-01 -0.14891974213E-01  0.29575364805E-01  0.34620730257E-01  0.00000000000E+00 0.  1.
       22    1    1    2    0    0 -0.10542646922E-01  0.14554925827E-01 -0.29786463957E-01  0.34788312765E-01  0.00000000000E+00 0. -1.
       22    1    1    2    0    0  0.43711060764E-03  0.33704838612E-03  0.21109915222E-03  0.59095697810E-03  0.00000000000E+00 0.  1.
</event>
<event>
 5   0  0.4146200E+04  0.9118800E+02  0.7546771E-02  0.1180000E+00
      -11   -1    0    0    0    0  0.00000000000E+00  0.00000000000E+00  0.34996269501E-01  0.35000000000E-01  0.51099999109E-03 0.  1.
       11   -1    0    0    0    0 -0.00000000000E+00 -0.00000000000E+00 -0.34996269501E-01  0.35000000000E-01  0.51099999109E-03 0. -1.
       22    1    1    2    0    0  0.89246937266E-02  0.52085380664E-02  0.33312683862E-01  0.34878559790E-01  0.00000000000E+00 0.  1.
       22    1    1    2    0    0 -0.91403429184E-02 -0.54382270780E-02 -0.30706816653E-01  0.32496596305E-01  0.00000000000E+00 0. -1.
       22    1    1    2    0    0  0.21564919188E-03  0.22968901162E-03 -0.26058672089E-02  0.26248439052E-02  0.00000000000E+00 0. -1.
</event>
<event>
 5   0  0.4146200E+04  0.9118800E+02  0.7546771E-02  0.1180000E+00
      -11   -1    0    0    0    0  0.00000000000E+00  0.00000000000E+00  0.34996269501E-01  0.35000000000E-01  0.51099999109E-03 0.  1.
       11   -1    0    0    0    0 -0.00000000000E+00 -0.00000000000E+00 -0.34996269501E-01  0.35000000000E-01  0.51099999109E-03 0. -1.
       22    1    1    2    0    0  0.19895628620E-01 -0.57078750887E-02 -0.28143593427E-01  0.34935336369E-01  0.00000000000E+00 0. -1.
       22    1    1    2    0    0 -0.17543354585E-01  0.54753246638E-02  0.26208233292E-01  0.32009685449E-01  0.00000000000E+00 0.  1.
       22    1    1    2    0    0 -0.23522740356E-02  0.23255042484E-03  0.19353601354E-02  0.30549781820E-02  0.00000000000E+00 0.  1.
</event>
<event>
 5   0  0.4146200E+04  0.9118800E+02  0.7546771E-02  0.1180000E+00
      -11   -1    0    0    0    0  0.00000000000E+00  0.00000000000E+00  0.34996269501E-01  0.35000000000E-01  0.51099999109E-03 0.  1.
       11   -1    0    0    0    0 -0.00000000000E+00 -0.00000000000E+00 -0.34996269501E-01  0.35000000000E-01  0.51099999109E-03 0. -1.
       22    1    1    2    0    0 -0.43511027524E-02 -0.17308833540E-02  0.34342052990E-01  0.34659842122E-01  0.00000000000E+00 0.  1.
       22    1    1    2    0    0  0.43213723491E-03  0.81581185725E-03 -0.26587523780E-01  0.26603546988E-01  0.00000000000E+00 0. -1.
       22    1    1    2    0    0  0.39189655175E-02  0.91507149676E-03 -0.77545292104E-02  0.87366108902E-02  0.00000000000E+00 0. -1.
</event>
<event>
 5   0  0.4146200E+04  0.9118800E+02  0.7546771E-02  0.1180000E+00
      -11   -1    0    0    0    0  0.00000000000E+00  0.00000000000E+00  0.34996269501E-01  0.35000000000E-01  0.51099999109E-03 0. -1.
       11   -1    0    0    0    0 -0.00000000000E+00 -0.00000000000E+00 -0.34996269501E-01  0.35000000000E-01  0.51099999109E-03 0.  1.
       22    1    1    2    0    0 -0.32756172637E-02  0.19603119558E-02 -0.30548546532E-01  0.30786136274E-01  0.00000000000E+00 0.  1.
       22    1    1    2    0    0  0.10269279791E-02 -0.25616743146E-02  0.34509448355E-01  0.34619630011E-01  0.00000000000E+00 0. -1.
       22    1    1    2    0    0  0.22486892846E-02  0.60136235882E-03 -0.39609018223E-02  0.45942337153E-02  0.00000000000E+00 0.  1.
</event>
<event>
 5   0  0.4146200E+04  0.9118800E+02  0.7546771E-02  0.1180000E+00
      -11   -1    0    0    0    0  0.00000000000E+00  0.00000000000E+00  0.34996269501E-01  0.35000000000E-01  0.51099999109E-03 0.  1.
       11   -1    0    0    0    0 -0.00000000000E+00 -0.00000000000E+00 -0.34996269501E-01  0.35000000000E-01  0.51099999109E-03 0.  1.
       22    1    1    2    0    0  0.00000000000E+00  0.00000000000E+00  0.34967361940E-01  0.34965022008E-01  0.00000000000E+00 0.  1.
       22    1    1    2    0    0 -0.89928588198E-04 -0.27584270839E-03 -0.34366617387E-01  0.34367842047E-01  0.00000000000E+00 0.  1.
       22    1    1    2    0    0  0.89928588198E-04  0.27584270839E-03 -0.60074455313E-03  0.66713594481E-03  0.00000000000E+00 0.  1.
</event>
<event>
 5   0  0.4146200E+04  0.9118800E+02  0.7546771E-02  0.1180000E+00
      -11   -1    0    0    0    0  0.00000000000E+00  0.00000000000E+00  0.34996269501E-01  0.35000000000E-01  0.51099999109E-03 0.  1.
       11   -1    0    0    0    0 -0.00000000000E+00 -0.00000000000E+00 -0.34996269501E-01  0.35000000000E-01  0.51099999109E-03 0. -1.
       22    1    1    2    0    0 -0.10503380635E-02  0.11847894981E-01  0.32521975724E-01  0.34628813588E-01  0.00000000000E+00 0.  1.
       22    1    1    2    0    0 -0.80839429533E-03 -0.11303080629E-01 -0.30648910354E-01  0.32676732379E-01  0.00000000000E+00 0. -1.
       22    1    1    2    0    0  0.18587323588E-02 -0.54481435224E-03 -0.18730653694E-02  0.26944540334E-02  0.00000000000E+00 0.  1.
</event>
<event>
 5   0  0.4146200E+04  0.9118800E+02  0.7546771E-02  0.1180000E+00
      -11   -1    0    0    0    0  0.00000000000E+00  0.00000000000E+00  0.34996269501E-01  0.35000000000E-01  0.51099999109E-03 0. -1.
       11   -1    0    0    0    0 -0.00000000000E+00 -0.00000000000E+00 -0.34996269501E-01  0.35000000000E-01  0.51099999109E-03 0.  1.
       22    1    1    2    0    0  0.16563771088E-01 -0.10280196094E-01 -0.21599674407E-01  0.29096166052E-01  0.00000000000E+00 0.  1.
       22    1    1    2    0    0 -0.23718890022E-01  0.28456610654E-02  0.11683308993E-01  0.26592917099E-01  0.00000000000E+00 0. -1.
       22    1    1    2    0    0  0.71551189341E-02  0.74345350283E-02  0.99163654143E-02  0.14310916850E-01  0.00000000000E+00 0. -1.
</event>
<event>
 5   0  0.4146200E+04  0.9118800E+02  0.7546771E-02  0.1180000E+00
      -11   -1    0    0    0    0  0.00000000000E+00  0.00000000000E+00  0.34996269501E-01  0.35000000000E-01  0.51099999109E-03 0.  1.
       11   -1    0    0    0    0 -0.00000000000E+00 -0.00000000000E+00 -0.34996269501E-01  0.35000000000E-01  0.51099999109E-03 0. -1.
       22    1    1    2    0    0 -0.58626714453E-02 -0.10848984366E-01 -0.22435201743E-01  0.25600969816E-01  0.00000000000E+00 0. -1.
       22    1    1    2    0    0  0.48953581114E-02  0.11562522444E-01 -0.73768383328E-02  0.14562767598E-01  0.00000000000E+00 0.  1.
       22    1    1    2    0    0  0.96731333390E-03 -0.71353807815E-03  0.29812040076E-01  0.29836262587E-01  0.00000000000E+00 0.  1.
</event>
<event>
 5   0  0.4146200E+04  0.9118800E+02  0.7546771E-02  0.1180000E+00
      -11   -1    0    0    0    0  0.00000000000E+00  0.00000000000E+00  0.34996269501E-01  0.35000000000E-01  0.51099999109E-03 0.  1.
       11   -1    0    0    0    0 -0.00000000000E+00 -0.00000000000E+00 -0.34996269501E-01  0.35000000000E-01  0.51099999109E-03 0. -1.
       22    1    1    2    0    0  0.17399430969E-01 -0.74614655854E-02  0.29349458633E-01  0.34925698114E-01  0.00000000000E+00 0.  1.
       22    1    1    2    0    0 -0.94933745220E-04  0.24737046079E-03 -0.13631561879E-02  0.13886681942E-02  0.00000000000E+00 0.  1.
       22    1    1    2    0    0 -0.17304497223E-01  0.72140951246E-02 -0.27986302445E-01  0.33685633691E-01  0.00000000000E+00 0. -1.
</event>
<event>
 5   0  0.4146200E+04  0.9118800E+02  0.7546771E-02  0.1180000E+00
      -11   -1    0    0    0    0  0.00000000000E+00  0.00000000000E+00  0.34996269501E-01  0.35000000000E-01  0.51099999109E-03 0.  1.
       11   -1    0    0    0    0 -0.00000000000E+00 -0.00000000000E+00 -0.34996269501E-01  0.35000000000E-01  0.51099999109E-03 0. -1.
       22    1    1    2    0    0  0.41640981012E-03  0.74412379676E-02  0.33833723770E-01  0.34644859413E-01  0.00000000000E+00 0.  1.
       22    1    1    2    0    0 -0.15293271932E-02 -0.81829945410E-02 -0.23412611348E-01  0.24848553508E-01  0.00000000000E+00 0. -1.
       22    1    1    2    0    0  0.11129173831E-02  0.74175657346E-03 -0.10421112422E-01  0.10506587078E-01  0.00000000000E+00 0.  1.
</event>
<event>
 5   0  0.4146200E+04  0.9118800E+02  0.7546771E-02  0.1180000E+00
      -11   -1    0    0    0    0  0.00000000000E+00  0.00000000000E+00  0.34996269501E-01  0.35000000000E-01  0.51099999109E-03 0.  1.
       11   -1    0    0    0    0 -0.00000000000E+00 -0.00000000000E+00 -0.34996269501E-01  0.35000000000E-01  0.51099999109E-03 0. -1.
       22    1    1    2    0    0 -0.58139964387E-02  0.15867435715E-01 -0.30532600443E-01  0.34897245745E-01  0.00000000000E+00 0. -1.
       22    1    1    2    0    0  0.59590463308E-02 -0.16028800086E-01  0.30090175497E-01  0.34609988830E-01  0.00000000000E+00 0.  1.
       22    1    1    2    0    0 -0.14504989208E-03  0.16136437068E-03  0.44242494587E-03  0.49276542497E-03  0.00000000000E+00 0.  1.
</event>
<event>
 5   0  0.4146200E+04  0.9118800E+02  0.7546771E-02  0.1180000E+00
      -11   -1    0    0    0    0  0.00000000000E+00  0.00000000000E+00  0.34996269501E-01  0.35000000000E-01  0.51099999109E-03 0. -1.
       11   -1    0    0    0    0 -0.00000000000E+00 -0.00000000000E+00 -0.34996269501E-01  0.35000000000E-01  0.51099999109E-03 0.  1.
       22    1    1    2    0    0 -0.12945238061E-03  0.34941528483E-02 -0.63127544737E-02  0.72164209336E-02  0.00000000000E+00 0. -1.
       22    1    1    2    0    0 -0.36626974428E-03 -0.42994885166E-02 -0.28064010117E-01  0.28393809517E-01  0.00000000000E+00 0.  1.
       22    1    1    2    0    0  0.49572212489E-03  0.80533566835E-03  0.34376764591E-01  0.34389769550E-01  0.00000000000E+00 0. -1.
</event>
<event>
 5   0  0.4146200E+04  0.9118800E+02  0.7546771E-02  0.1180000E+00
      -11   -1    0    0    0    0  0.00000000000E+00  0.00000000000E+00  0.34996269501E-01  0.35000000000E-01  0.51099999109E-03 0. -1.
       11   -1    0    0    0    0 -0.00000000000E+00 -0.00000000000E+00 -0.34996269501E-01  0.35000000000E-01  0.51099999109E-03 0.  1.
       22    1    1    2    0    0 -0.66130564671E-02  0.19725603825E-01 -0.25992923670E-01  0.33293603635E-01  0.00000000000E+00 0.  1.
       22    1    1    2    0    0  0.72325420059E-02 -0.19929230543E-01  0.15671431149E-01  0.26364325293E-01  0.00000000000E+00 0. -1.
       22    1    1    2    0    0 -0.61948553875E-03  0.20362671835E-03  0.10321492522E-01  0.10342071072E-01  0.00000000000E+00 0. -1.
</event>
<event>
 5   0  0.4146200E+04  0.9118800E+02  0.7546771E-02  0.1180000E+00
      -11   -1    0    0    0    0  0.00000000000E+00  0.00000000000E+00  0.34996269501E-01  0.35000000000E-01  0.51099999109E-03 0. -1.
       11   -1    0    0    0    0 -0.00000000000E+00 -0.00000000000E+00 -0.34996269501E-01  0.35000000000E-01  0.51099999109E-03 0.  1.
       22    1    1    2    0    0 -0.14829249154E-01 -0.13892965801E-02  0.25657562715E-01  0.29667276585E-01  0.00000000000E+00 0. -1.
       22    1    1    2    0    0  0.23068821699E-02 -0.32095211378E-02  0.53067878377E-02  0.66170029798E-02  0.00000000000E+00 0. -1.
       22    1    1    2    0    0  0.12522366984E-01  0.45988177180E-02 -0.30964350553E-01  0.33715720435E-01  0.00000000000E+00 0.  1.
</event>
<event>
 5   0  0.4146200E+04  0.9118800E+02  0.7546771E-02  0.1180000E+00
      -11   -1    0    0    0    0  0.00000000000E+00  0.00000000000E+00  0.34996269501E-01  0.35000000000E-01  0.51099999109E-03 0. -1.
       11   -1    0    0    0    0 -0.00000000000E+00 -0.00000000000E+00 -0.34996269501E-01  0.35000000000E-01  0.51099999109E-03 0.  1.
       22    1    1    2    0    0  0.53674209107E-02 -0.49769706582E-02 -0.12892939792E-01  0.14825901007E-01  0.00000000000E+00 0.  1.
       22    1    1    2    0    0  0.42720329498E-03  0.11971875446E-02 -0.20769350357E-01  0.20808211719E-01  0.00000000000E+00 0.  1.
       22    1    1    2    0    0 -0.57946242057E-02  0.37797831136E-02  0.33662290150E-01  0.34365887275E-01  0.00000000000E+00 0. -1.
</event>
<event>
 5   0  0.4146200E+04  0.9118800E+02  0.7546771E-02  0.1180000E+00
      -11   -1    0    0    0    0  0.00000000000E+00  0.00000000000E+00  0.34996269501E-01  0.35000000000E-01  0.51099999109E-03 0. -1.
       11   -1    0    0    0    0 -0.00000000000E+00 -0.00000000000E+00 -0.34996269501E-01  0.35000000000E-01  0.51099999109E-03 0.  1.
       22    1    1    2    0    0  0.15727558636E-01  0.26613514897E-02 -0.62865997471E-02  0.17145268408E-01  0.00000000000E+00 0. -1.
       22    1    1    2    0    0 -0.15883879741E-01 -0.15965676870E-02 -0.20535728942E-01  0.26010821348E-01  0.00000000000E+00 0.  1.
       22    1    1    2    0    0  0.15632110435E-03 -0.10647838027E-02  0.26822328690E-01  0.26843910244E-01  0.00000000000E+00 0. -1.
</event>
<event>
 5   0  0.4146200E+04  0.9118800E+02  0.7546771E-02  0.1180000E+00
      -11   -1    0    0    0    0  0.00000000000E+00  0.00000000000E+00  0.34996269501E-01  0.35000000000E-01  0.51099999109E-03 0.  1.
       11   -1    0    0    0    0 -0.00000000000E+00 -0.00000000000E+00 -0.34996269501E-01  0.35000000000E-01  0.51099999109E-03 0. -1.
       22    1    1    2    0    0 -0.14110412675E-01  0.19613214301E-01 -0.22278851313E-01  0.32865318147E-01  0.00000000000E+00 0. -1.
       22    1    1    2    0    0  0.15553720430E-02  0.50302590042E-04 -0.25988917185E-02  0.30291831749E-02  0.00000000000E+00 0.  1.
       22    1    1    2    0    0  0.12555040632E-01 -0.19663516891E-01  0.24877743031E-01  0.34105498679E-01  0.00000000000E+00 0.  1.
</event>
<event>
 5   0  0.4146200E+04  0.9118800E+02  0.7546771E-02  0.1180000E+00
      -11   -1    0    0    0    0  0.00000000000E+00  0.00000000000E+00  0.34996269501E-01  0.35000000000E-01  0.51099999109E-03 0.  1.
       11   -1    0    0    0    0 -0.00000000000E+00 -0.00000000000E+00 -0.34996269501E-01  0.35000000000E-01  0.51099999109E-03 0. -1.
       22    1    1    2    0    0  0.36869070553E-02 -0.19867276033E-01 -0.23541534846E-01  0.31024277647E-01  0.00000000000E+00 0. -1.
       22    1    1    2    0    0  0.50162611988E-03 -0.15218559666E-03 -0.43540317122E-02  0.43854739049E-02  0.00000000000E+00 0. -1.
       22    1    1    2    0    0 -0.41885331752E-02  0.20019461629E-01  0.27895566559E-01  0.34590248448E-01  0.00000000000E+00 0.  1.
</event>
<event>
 5   0  0.4146200E+04  0.9118800E+02  0.7546771E-02  0.1180000E+00
      -11   -1    0    0    0    0  0.00000000000E+00  0.00000000000E+00  0.34996269501E-01  0.35000000000E-01  0.51099999109E-03 0.  1.
       11   -1    0    0    0    0 -0.00000000000E+00 -0.00000000000E+00 -0.34996269501E-01  0.35000000000E-01  0.51099999109E-03 0. -1.
       22    1    1    2    0    0 -0.13267827059E-01 -0.93895962072E-02 -0.29723668507E-01  0.33877665523E-01  0.00000000000E+00 0. -1.
       22    1    1    2    0    0  0.18919371801E-02 -0.21205100732E-02  0.11061496854E-01  0.11420713721E-01  0.00000000000E+00 0.  1.
       22    1    1    2    0    0  0.11375889878E-01  0.11510106280E-01  0.18662171654E-01  0.24701620755E-01  0.00000000000E+00 0.  1.
</event>
<event>
 5   0  0.4146200E+04  0.9118800E+02  0.7546771E-02  0.1180000E+00
      -11   -1    0    0    0    0  0.00000000000E+00  0.00000000000E+00  0.34996269501E-01  0.35000000000E-01  0.51099999109E-03 0. -1.
       11   -1    0    0    0    0 -0.00000000000E+00 -0.00000000000E+00 -0.34996269501E-01  0.35000000000E-01  0.51099999109E-03 0.  1.
       22    1    1    2    0    0 -0.60327519628E-03 -0.53363054414E-02  0.34258382480E-01  0.34676748216E-01  0.00000000000E+00 0. -1.
       22    1    1    2    0    0  0.10784451281E-02  0.19169013530E-02 -0.28671952936E-01  0.28756189592E-01  0.00000000000E+00 0.  1.
       22    1    1    2    0    0 -0.47516993186E-03  0.34194040884E-02 -0.55864295439E-02  0.65670621919E-02  0.00000000000E+00 0.  1.
</event>
<event>
 5   0  0.4146200E+04  0.9118800E+02  0.7546771E-02  0.1180000E+00
      -11   -1    0    0    0    0  0.00000000000E+00  0.00000000000E+00  0.34996269501E-01  0.35000000000E-01  0.51099999109E-03 0.  1.
       11   -1    0    0    0    0 -0.00000000000E+00 -0.00000000000E+00 -0.34996269501E-01  0.35000000000E-01  0.51099999109E-03 0. -1.
       22    1    1    2    0    0 -0.47470314011E-03 -0.45404528188E-03  0.28238369340E-02  0.28992335572E-02  0.00000000000E+00 0. -1.
       22    1    1    2    0    0 -0.10735687405E-01 -0.66419441730E-02  0.29539201695E-01  0.32123742672E-01  0.00000000000E+00 0.  1.
       22    1    1    2    0    0  0.11210390545E-01  0.70959894549E-02 -0.32363038629E-01  0.34977023771E-01  0.00000000000E+00 0. -1.
</event>
<event>
 5   0  0.4146200E+04  0.9118800E+02  0.7546771E-02  0.1180000E+00
      -11   -1    0    0    0    0  0.00000000000E+00  0.00000000000E+00  0.34996269501E-01  0.35000000000E-01  0.51099999109E-03 0. -1.
       11   -1    0    0    0    0 -0.00000000000E+00 -0.00000000000E+00 -0.34996269501E-01  0.35000000000E-01  0.51099999109E-03 0.  1.
       22    1    1    2    0    0  0.98523774631E-03 -0.23025871825E-02 -0.43467967478E-03  0.25419574287E-02  0.00000000000E+00 0.  1.
       22    1    1    2    0    0 -0.14522454442E-01  0.30090772059E-02 -0.30372673477E-01  0.33800229626E-01  0.00000000000E+00 0.  1.
       22    1    1    2    0    0  0.13537216696E-01 -0.70649002339E-03  0.30807353152E-01  0.33657812945E-01  0.00000000000E+00 0. -1.
</event>
<event>
 5   0  0.4146200E+04  0.9118800E+02  0.7546771E-02  0.1180000E+00
      -11   -1    0    0    0    0  0.00000000000E+00  0.00000000000E+00  0.34996269501E-01  0.35000000000E-01  0.51099999109E-03 0. -1.
       11   -1    0    0    0    0 -0.00000000000E+00 -0.00000000000E+00 -0.34996269501E-01  0.35000000000E-01  0.51099999109E-03 0.  1.
       22    1    1    2    0    0  0.66282341382E-02  0.59498189434E-02 -0.30447309838E-01  0.31723374815E-01  0.00000000000E+00 0.  1.
       22    1    1    2    0    0 -0.78757490586E-02 -0.63376111989E-02  0.33480869222E-01  0.34973723605E-01  0.00000000000E+00 0. -1.
       22    1    1    2    0    0  0.12475149204E-02  0.38779225549E-03 -0.30335593839E-02  0.33029015797E-02  0.00000000000E+00 0. -1.
</event>
<event>
 5   0  0.4146200E+04  0.9118800E+02  0.7546771E-02  0.1180000E+00
      -11   -1    0    0    0    0  0.00000000000E+00  0.00000000000E+00  0.34996269501E-01  0.35000000000E-01  0.51099999109E-03 0. -1.
       11   -1    0    0    0    0 -0.00000000000E+00 -0.00000000000E+00 -0.34996269501E-01  0.35000000000E-01  0.51099999109E-03 0. -1.
       22    1    1    2    0    0 -0.76300765707E-02 -0.76619979872E-03 -0.21655569408E-01  0.22973219561E-01  0.00000000000E+00 0. -1.
       22    1    1    2    0    0  0.30080691776E-03 -0.20912112083E-03  0.33262689205E-01  0.33264706666E-01  0.00000000000E+00 0. -1.
       22    1    1    2    0    0  0.73292696529E-02  0.97532091955E-03 -0.11607119797E-01  0.13762073772E-01  0.00000000000E+00 0.  1.
</event>
<event>
 5   0  0.4146200E+04  0.9118800E+02  0.7546771E-02  0.1180000E+00
      -11   -1    0    0    0    0  0.00000000000E+00  0.00000000000E+00  0.34996269501E-01  0.35000000000E-01  0.51099999109E-03 0. -1.
       11   -1    0    0    0    0 -0.00000000000E+00 -0.00000000000E+00 -0.34996269501E-01  0.35000000000E-01  0.51099999109E-03 0.  1.
       22    1    1    2    0    0 -0.52894204829E-03 -0.32650212356E-03  0.43633023995E-02  0.44073564817E-02  0.00000000000E+00 0. -1.
       22    1    1    2    0    0  0.81420412486E-02 -0.13232482696E-01  0.26679025615E-01  0.30873319254E-01  0.00000000000E+00 0. -1.
       22    1    1    2    0    0 -0.76130992003E-02  0.13558984820E-01 -0.31042328015E-01  0.34719324264E-01  0.00000000000E+00 0.  1.
</event>
<event>
 5   0  0.4146200E+04  0.9118800E+02  0.7546771E-02  0.1180000E+00
      -11   -1    0    0    0    0  0.00000000000E+00  0.00000000000E+00  0.34996269501E-01  0.35000000000E-01  0.51099999109E-03 0. -1.
       11   -1    0    0    0    0 -0.00000000000E+00 -0.00000000000E+00 -0.34996269501E-01  0.35000000000E-01  0.51099999109E-03 0.  1.
       22    1    1    2    0    0  0.23287368689E-01 -0.57955879031E-02  0.24933683269E-01  0.34606053531E-01  0.00000000000E+00 0. -1.
       22    1    1    2    0    0 -0.11350135989E-04 -0.19349028990E-04  0.45930947164E-03  0.45985693563E-03  0.00000000000E+00 0. -1.
       22    1    1    2    0    0 -0.23276018553E-01  0.58149369321E-02 -0.25392992741E-01  0.34934089534E-01  0.00000000000E+00 0.  1.
</event>
<event>
 5   0  0.4146200E+04  0.9118800E+02  0.7546771E-02  0.1180000E+00
      -11   -1    0    0    0    0  0.00000000000E+00  0.00000000000E+00  0.34996269501E-01  0.35000000000E-01  0.51099999109E-03 0. -1.
       11   -1    0    0    0    0 -0.00000000000E+00 -0.00000000000E+00 -0.34996269501E-01  0.35000000000E-01  0.51099999109E-03 0.  1.
       22    1    1    2    0    0  0.43889548064E-03 -0.36049305316E-03 -0.27569113679E-01  0.27574963527E-01  0.00000000000E+00 0.  1.
       22    1    1    2    0    0  0.16496051447E-02  0.26678937474E-02 -0.70238167393E-02  0.76923894707E-02  0.00000000000E+00 0.  1.
       22    1    1    2    0    0 -0.20885006253E-02 -0.23074006943E-02  0.34592930418E-01  0.34732647002E-01  0.00000000000E+00 0. -1.
</event>
<event>
 5   0  0.4146200E+04  0.9118800E+02  0.7546771E-02  0.1180000E+00
      -11   -1    0    0    0    0  0.00000000000E+00  0.00000000000E+00  0.34996269501E-01  0.35000000000E-01  0.51099999109E-03 0.  1.
       11   -1    0    0    0    0 -0.00000000000E+00 -0.00000000000E+00 -0.34996269501E-01  0.35000000000E-01  0.51099999109E-03 0. -1.
       22    1    1    2    0    0  0.33912883760E-01  0.35250487706E-03 -0.27709493325E-03  0.33915847714E-01  0.00000000000E+00 0.  1.
       22    1    1    2    0    0  0.70764221423E-03  0.10155269131E-03 -0.12357236282E-02  0.14276145620E-02  0.00000000000E+00 0. -1.
       22    1    1    2    0    0 -0.34620525974E-01 -0.45405756837E-03  0.15128185614E-02  0.34656537724E-01  0.00000000000E+00 0. -1.
</event>
<event>
 5   0  0.4146200E+04  0.9118800E+02  0.7546771E-02  0.1180000E+00
      -11   -1    0    0    0    0  0.00000000000E+00  0.00000000000E+00  0.34996269501E-01  0.35000000000E-01  0.51099999109E-03 0.  1.
       11   -1    0    0    0    0 -0.00000000000E+00 -0.00000000000E+00 -0.34996269501E-01  0.35000000000E-01  0.51099999109E-03 0. -1.
       22    1    1    2    0    0  0.66960658444E-02  0.10308561879E-01 -0.19568056989E-02  0.12447201868E-01  0.00000000000E+00 0.  1.
       22    1    1    2    0    0  0.95770923461E-02  0.33795501934E-02  0.24525025932E-01  0.26544659619E-01  0.00000000000E+00 0.  1.
       22    1    1    2    0    0 -0.16273158190E-01 -0.13688112072E-01 -0.22568220233E-01  0.31008138513E-01  0.00000000000E+00 0. -1.
</event>
<event>
 5   0  0.4146200E+04  0.9118800E+02  0.7546771E-02  0.1180000E+00
      -11   -1    0    0    0    0  0.00000000000E+00  0.00000000000E+00  0.34996269501E-01  0.35000000000E-01  0.51099999109E-03 0. -1.
       11   -1    0    0    0    0 -0.00000000000E+00 -0.00000000000E+00 -0.34996269501E-01  0.35000000000E-01  0.51099999109E-03 0.  1.
       22    1    1    2    0    0  0.20052827005E-02  0.21758134503E-03  0.34925332254E-01  0.34983529459E-01  0.00000000000E+00 0. -1.
       22    1    1    2    0    0 -0.20607448352E-02 -0.51701948526E-04 -0.34420985137E-01  0.34482655933E-01  0.00000000000E+00 0.  1.
       22    1    1    2    0    0  0.55462134667E-04 -0.16587939650E-03 -0.50434711626E-03  0.53381460850E-03  0.00000000000E+00 0.  1.
</event>
<event>
 5   0  0.4146200E+04  0.9118800E+02  0.7546771E-02  0.1180000E+00
      -11   -1    0    0    0    0  0.00000000000E+00  0.00000000000E+00  0.34996269501E-01  0.35000000000E-01  0.51099999109E-03 0.  1.
       11   -1    0    0    0    0 -0.00000000000E+00 -0.00000000000E+00 -0.34996269501E-01  0.35000000000E-01  0.51099999109E-03 0. -1.
       22    1    1    2    0    0 -0.20928016544E-01  0.60156499064E-02  0.27228363349E-01  0.34864791566E-01  0.00000000000E+00 0.  1.
       22    1    1    2    0    0  0.20799257418E-01 -0.61389875023E-02 -0.25834868364E-01  0.33730352801E-01  0.00000000000E+00 0. -1.
       22    1    1    2    0    0  0.12875912674E-03  0.12333759584E-03 -0.13934949853E-02  0.14048556329E-02  0.00000000000E+00 0. -1.
</event>
<event>
 5   0  0.4146200E+04  0.9118800E+02  0.7546771E-02  0.1180000E+00
      -11   -1    0    0    0    0  0.00000000000E+00  0.00000000000E+00  0.34996269501E-01  0.35000000000E-01  0.51099999109E-03 0. -1.
       11   -1    0    0    0    0 -0.00000000000E+00 -0.00000000000E+00 -0.34996269501E-01  0.35000000000E-01  0.51099999109E-03 0.  1.
       22    1    1    2    0    0 -0.83857845262E-02  0.12725438922E-01 -0.27304905792E-01  0.31270050499E-01  0.00000000000E+00 0.  1.
       22    1    1    2    0    0 -0.13975702935E-03  0.49239586055E-03 -0.38212665026E-02  0.38553940647E-02  0.00000000000E+00 0.  1.
       22    1    1    2    0    0  0.85255415555E-02 -0.13217834783E-01  0.31126172295E-01  0.34874555436E-01  0.00000000000E+00 0. -1.
</event>
<event>
 5   0  0.4146200E+04  0.9118800E+02  0.7546771E-02  0.1180000E+00
      -11   -1    0    0    0    0  0.00000000000E+00  0.00000000000E+00  0.34996269501E-01  0.35000000000E-01  0.51099999109E-03 0.  1.
       11   -1    0    0    0    0 -0.00000000000E+00 -0.00000000000E+00 -0.34996269501E-01  0.35000000000E-01  0.51099999109E-03 0. -1.
       22    1    1    2    0    0 -0.42850189194E-03 -0.19575490894E-03  0.23253981199E-01  0.23258752664E-01  0.00000000000E+00 0.  1.
       22    1    1    2    0    0  0.16485680386E-01 -0.33329542770E-02  0.16501656252E-02  0.16899978952E-01  0.00000000000E+00 0.  1.
       22    1    1    2    0    0 -0.16057178494E-01  0.35287091859E-02 -0.24904146825E-01  0.29841268384E-01  0.00000000000E+00 0. -1.
</event>
<event>
 5   0  0.4146200E+04  0.9118800E+02  0.7546771E-02  0.1180000E+00
      -11   -1    0    0    0    0  0.00000000000E+00  0.00000000000E+00  0.34996269501E-01  0.35000000000E-01  0.51099999109E-03 0. -1.
       11   -1    0    0    0    0 -0.00000000000E+00 -0.00000000000E+00 -0.34996269501E-01  0.35000000000E-01  0.51099999109E-03 0.  1.
       22    1    1    2    0    0 -0.23290629631E-02 -0.24875152564E-02 -0.35982748045E-02  0.49557893423E-02  0.00000000000E+00 0.  1.
       22    1    1    2    0    0  0.31890750412E-02  0.24093605921E-02  0.34198765447E-01  0.34431537523E-01  0.00000000000E+00 0. -1.
       22    1    1    2    0    0 -0.86001207810E-03  0.78154664303E-04 -0.30600490642E-01  0.30612673135E-01  0.00000000000E+00 0.  1.
</event>
<event>
 5   0  0.4146200E+04  0.9118800E+02  0.7546771E-02  0.1180000E+00
      -11   -1    0    0    0    0  0.00000000000E+00  0.00000000000E+00  0.34996269501E-01  0.35000000000E-01  0.51099999109E-03 0.  1.
       11   -1    0    0    0    0 -0.00000000000E+00 -0.00000000000E+00 -0.34996269501E-01  0.35000000000E-01  0.51099999109E-03 0. -1.
       22    1    1    2    0    0  0.16897462872E-03 -0.11090837325E-03 -0.13960639025E-02  0.14106195491E-02  0.00000000000E+00 0.  1.
       22    1    1    2    0    0  0.26569614270E-02  0.11951247849E-01  0.32745571542E-01  0.34959465453E-01  0.00000000000E+00 0.  1.
       22    1    1    2    0    0 -0.28259360557E-02 -0.11840339476E-01 -0.31349507640E-01  0.33629914997E-01  0.00000000000E+00 0. -1.
</event>
<event>
 5   0  0.4146200E+04  0.9118800E+02  0.7546771E-02  0.1180000E+00
      -11   -1    0    0    0    0  0.00000000000E+00  0.00000000000E+00  0.34996269501E-01  0.35000000000E-01  0.51099999109E-03 0. -1.
       11   -1    0    0    0    0 -0.00000000000E+00 -0.00000000000E+00 -0.34996269501E-01  0.35000000000E-01  0.51099999109E-03 0.  1.
       22    1    1    2    0    0 -0.10849443087E-01  0.46308601046E-02 -0.32907632587E-01  0.34958082944E-01  0.00000000000E+00 0.  1.
       22    1    1    2    0    0  0.23943541930E-03 -0.13150836280E-03  0.26464054352E-02  0.26604671576E-02  0.00000000000E+00 0.  1.
       22    1    1    2    0    0  0.10610007668E-01 -0.44993517418E-02  0.30261227152E-01  0.32381449899E-01  0.00000000000E+00 0. -1.
</event>
<event>
 5   0  0.4146200E+04  0.9118800E+02  0.7546771E-02  0.1180000E+00
      -11   -1    0    0    0    0  0.00000000000E+00  0.00000000000E+00  0.34996269501E-01  0.35000000000E-01  0.51099999109E-03 0. -1.
       11   -1    0    0    0    0 -0.00000000000E+00 -0.00000000000E+00 -0.34996269501E-01  0.35000000000E-01  0.51099999109E-03 0.  1.
       22    1    1    2    0    0 -0.86862682228E-02  0.15185308712E-01  0.29588777667E-01  0.34373545353E-01  0.00000000000E+00 0. -1.
       22    1    1    2    0    0  0.92458615639E-02 -0.13549567781E-01 -0.29662547733E-01  0.33896068816E-01  0.00000000000E+00 0.  1.
       22    1    1    2    0    0 -0.55959334113E-03 -0.16357409315E-02  0.73770066724E-04  0.17303858313E-02  0.00000000000E+00 0. -1.
</event>
<event>
 5   0  0.4146200E+04  0.9118800E+02  0.7546771E-02  0.1180000E+00
      -11   -1    0    0    0    0  0.00000000000E+00  0.00000000000E+00  0.34996269501E-01  0.35000000000E-01  0.51099999109E-03 0. -1.
       11   -1    0    0    0    0 -0.00000000000E+00 -0.00000000000E+00 -0.34996269501E-01  0.35000000000E-01  0.51099999109E-03 0.  1.
       22    1    1    2    0    0  0.28448301062E-02  0.19919276702E-02 -0.43106310312E-02  0.55355554431E-02  0.00000000000E+00 0. -1.
       22    1    1    2    0    0  0.53787666692E-02  0.27758218456E-01  0.14737727100E-01  0.31884956058E-01  0.00000000000E+00 0. -1.
       22    1    1    2    0    0 -0.82235967754E-02 -0.29750146126E-01 -0.10427096069E-01  0.32579488499E-01  0.00000000000E+00 0.  1.
</event>
<event>
 5   0  0.4146200E+04  0.9118800E+02  0.7546771E-02  0.1180000E+00
      -11   -1    0    0    0    0  0.00000000000E+00  0.00000000000E+00  0.34996269501E-01  0.35000000000E-01  0.51099999109E-03 0.  1.
       11   -1    0    0    0    0 -0.00000000000E+00 -0.00000000000E+00 -0.34996269501E-01  0.35000000000E-01  0.51099999109E-03 0. -1.
       22    1    1    2    0    0 -0.21906691351E-02  0.15447540242E-01 -0.26606396483E-01  0.30843570880E-01  0.00000000000E+00 0. -1.
       22    1    1    2    0    0  0.10982833498E-01 -0.67461762806E-03  0.14158908629E-01  0.17931883174E-01  0.00000000000E+00 0.  1.
       22    1    1    2    0    0 -0.87921643628E-02 -0.14772922614E-01  0.12447487854E-01  0.21224545946E-01  0.00000000000E+00 0.  1.
</event>
<event>
 5   0  0.4146200E+04  0.9118800E+02  0.7546771E-02  0.1180000E+00
      -11   -1    0    0    0    0  0.00000000000E+00  0.00000000000E+00  0.34996269501E-01  0.35000000000E-01  0.51099999109E-03 0. -1.
       11   -1    0    0    0    0 -0.00000000000E+00 -0.00000000000E+00 -0.34996269501E-01  0.35000000000E-01  0.51099999109E-03 0.  1.
       22    1    1    2    0    0 -0.32086626015E-03 -0.31406081164E-03 -0.56950525017E-03  0.72520726712E-03  0.00000000000E+00 0. -1.
       22    1    1    2    0    0  0.29554579870E-01  0.14688545900E-01 -0.10870923520E-01  0.34747712876E-01  0.00000000000E+00 0.  1.
       22    1    1    2    0    0 -0.29233713610E-01 -0.14374485088E-01  0.11440428770E-01  0.34527079857E-01  0.00000000000E+00 0. -1.
</event>
<event>
 5   0  0.4146200E+04  0.9118800E+02  0.7546771E-02  0.1180000E+00
      -11   -1    0    0    0    0  0.00000000000E+00  0.00000000000E+00  0.34996269501E-01  0.35000000000E-01  0.51099999109E-03 0. -1.
       11   -1    0    0    0    0 -0.00000000000E+00 -0.00000000000E+00 -0.34996269501E-01  0.35000000000E-01  0.51099999109E-03 0.  1.
       22    1    1    2    0    0 -0.12044556714E-02 -0.17575413973E-01  0.29725256109E-01  0.34553389711E-01  0.00000000000E+00 0. -1.
       22    1    1    2    0    0  0.15582448989E-02  0.24737922250E-02 -0.11032043185E-01  0.11412876586E-01  0.00000000000E+00 0.  1.
       22    1    1    2    0    0 -0.35378922750E-03  0.15101621748E-01 -0.18693212924E-01  0.24033733702E-01  0.00000000000E+00 0.  1.
</event>
<event>
 5   0  0.4146200E+04  0.9118800E+02  0.7546771E-02  0.1180000E+00
      -11   -1    0    0    0    0  0.00000000000E+00  0.00000000000E+00  0.34996269501E-01  0.35000000000E-01  0.51099999109E-03 0. -1.
       11   -1    0    0    0    0 -0.00000000000E+00 -0.00000000000E+00 -0.34996269501E-01  0.35000000000E-01  0.51099999109E-03 0.  1.
       22    1    1    2    0    0  0.95695328150E-02  0.12841057296E-01 -0.22611292254E-01  0.27708107986E-01  0.00000000000E+00 0.  1.
       22    1    1    2    0    0 -0.81149369084E-02 -0.15529709020E-01  0.29749776276E-01  0.34526413827E-01  0.00000000000E+00 0. -1.
       22    1    1    2    0    0 -0.14545959065E-02  0.26886517245E-02 -0.71384840221E-02  0.77654781875E-02  0.00000000000E+00 0. -1.
</event>
<event>
 5   0  0.4146200E+04  0.9118800E+02  0.7546771E-02  0.1180000E+00
      -11   -1    0    0    0    0  0.00000000000E+00  0.00000000000E+00  0.34996269501E-01  0.35000000000E-01  0.51099999109E-03 0. -1.
       11   -1    0    0    0    0 -0.00000000000E+00 -0.00000000000E+00 -0.34996269501E-01  0.35000000000E-01  0.51099999109E-03 0.  1.
       22    1    1    2    0    0 -0.54112645340E-02  0.12047007964E-02  0.30757486754E-01  0.31253097115E-01  0.00000000000E+00 0. -1.
       22    1    1    2    0    0  0.11599651353E-01 -0.74235445420E-02 -0.24008975776E-01  0.27678364166E-01  0.00000000000E+00 0.  1.
       22    1    1    2    0    0 -0.61883868188E-02  0.62188437456E-02 -0.67485109780E-02  0.11068538719E-01  0.00000000000E+00 0. -1.
</event>
<event>
 5   0  0.4146200E+04  0.9118800E+02  0.7546771E-02  0.1180000E+00
      -11   -1    0    0    0    0  0.00000000000E+00  0.00000000000E+00  0.34996269501E-01  0.35000000000E-01  0.51099999109E-03 0.  1.
       11   -1    0    0    0    0 -0.00000000000E+00 -0.00000000000E+00 -0.34996269501E-01  0.35000000000E-01  0.51099999109E-03 0. -1.
       22    1    1    2    0    0 -0.20363544711E-02 -0.12525624935E-01 -0.32493468815E-01  0.34883571136E-01  0.00000000000E+00 0. -1.
       22    1    1    2    0    0 -0.14570064932E-03 -0.20008425622E-03  0.18135005883E-02  0.18303132990E-02  0.00000000000E+00 0.  1.
       22    1    1    2    0    0  0.21820551204E-02  0.12725709192E-01  0.30679968227E-01  0.33286115565E-01  0.00000000000E+00 0.  1.
</event>
<event>
 5   0  0.4146200E+04  0.9118800E+02  0.7546771E-02  0.1180000E+00
      -11   -1    0    0    0    0  0.00000000000E+00  0.00000000000E+00  0.34996269501E-01  0.35000000000E-01  0.51099999109E-03 0. -1.
       11   -1    0    0    0    0 -0.00000000000E+00 -0.00000000000E+00 -0.34996269501E-01  0.35000000000E-01  0.51099999109E-03 0.  1.
       22    1    1    2    0    0 -0.39622552004E-02  0.92669088623E-02 -0.26273815484E-01  0.28140512544E-01  0.00000000000E+00 0.  1.
       22    1    1    2    0    0  0.21470075866E-02 -0.71933498410E-03 -0.70522648728E-02  0.74068565689E-02  0.00000000000E+00 0.  1.
       22    1    1    2    0    0  0.18152476138E-02 -0.85475738782E-02  0.33326080357E-01  0.34452630887E-01  0.00000000000E+00 0. -1.
</event>
<event>
 5   0  0.4146200E+04  0.9118800E+02  0.7546771E-02  0.1180000E+00
      -11   -1    0    0    0    0  0.00000000000E+00  0.00000000000E+00  0.34996269501E-01  0.35000000000E-01  0.51099999109E-03 0. -1.
       11   -1    0    0    0    0 -0.00000000000E+00 -0.00000000000E+00 -0.34996269501E-01  0.35000000000E-01  0.51099999109E-03 0. -1.
       22    1    1    2    0    0 -0.17361114170E-02  0.49030656300E-02 -0.69716829897E-02  0.86981894169E-02  0.00000000000E+00 0.  1.
       22    1    1    2    0    0  0.14147272584E-03 -0.61680172505E-04 -0.26974563828E-01  0.26975005332E-01  0.00000000000E+00 0. -1.
       22    1    1    2    0    0  0.15946386912E-02 -0.48413854575E-02  0.33946246818E-01  0.34326805251E-01  0.00000000000E+00 0. -1.
</event>
<event>
 5   0  0.4146200E+04  0.9118800E+02  0.7546771E-02  0.1180000E+00
      -11   -1    0    0    0    0  0.00000000000E+00  0.00000000000E+00  0.34996269501E-01  0.35000000000E-01  0.51099999109E-03 0. -1.
       11   -1    0    0    0    0 -0.00000000000E+00 -0.00000000000E+00 -0.34996269501E-01  0.35000000000E-01  0.51099999109E-03 0.  1.
       22    1    1    2    0    0  0.13160279156E-01 -0.72650719784E-02  0.31562946519E-01  0.34959888605E-01  0.00000000000E+00 0. -1.
       22    1    1    2    0    0 -0.12918603938E-01  0.68276731882E-02 -0.31087923383E-01  0.34350639428E-01  0.00000000000E+00 0.  1.
       22    1    1    2    0    0 -0.24167521823E-03  0.43739879029E-03 -0.47502313632E-03  0.68947196672E-03  0.00000000000E+00 0.  1.
</event>
<event>
 5   0  0.4146200E+04  0.9118800E+02  0.7546771E-02  0.1180000E+00
      -11   -1    0    0    0    0  0.00000000000E+00  0.00000000000E+00  0.34996269501E-01  0.35000000000E-01  0.51099999109E-03 0.  1.
       11   -1    0    0    0    0 -0.00000000000E+00 -0.00000000000E+00 -0.34996269501E-01  0.35000000000E-01  0.51099999109E-03 0. -1.
       22    1    1    2    0    0 -0.26175195562E-01  0.74955267877E-02  0.21045716874E-01  0.34412875254E-01  0.00000000000E+00 0. -1.
       22    1    1    2    0    0 -0.60410844754E-03 -0.31447692648E-03 -0.15512238175E-02  0.16941481888E-02  0.00000000000E+00 0.  1.
       22    1    1    2    0    0  0.26779304010E-01 -0.71810498612E-02 -0.19494493056E-01  0.33892976557E-01  0.00000000000E+00 0.  1.
</event>
<event>
 5   0  0.4146200E+04  0.9118800E+02  0.7546771E-02  0.1180000E+00
      -11   -1    0    0    0    0  0.00000000000E+00  0.00000000000E+00  0.34996269501E-01  0.35000000000E-01  0.51099999109E-03 0. -1.
       11   -1    0    0    0    0 -0.00000000000E+00 -0.00000000000E+00 -0.34996269501E-01  0.35000000000E-01  0.51099999109E-03 0.  1.
       22    1    1    2    0    0  0.14552719732E-02 -0.14584685403E-02 -0.32147220149E-01  0.32213176035E-01  0.00000000000E+00 0.  1.
       22    1    1    2    0    0  0.79685004229E-03  0.10778207723E-02  0.34489330584E-01  0.34515367472E-01  0.00000000000E+00 0. -1.
       22    1    1    2    0    0 -0.22521220155E-02  0.38064776800E-03 -0.23421104348E-02  0.32714564929E-02  0.00000000000E+00 0. -1.
</event>
<event>
 5   0  0.4146200E+04  0.9118800E+02  0.7546771E-02  0.1180000E+00
      -11   -1    0    0    0    0  0.00000000000E+00  0.00000000000E+00  0.34996269501E-01  0.35000000000E-01  0.51099999109E-03 0. -1.
       11   -1    0    0    0    0 -0.00000000000E+00 -0.00000000000E+00 -0.34996269501E-01  0.35000000000E-01  0.51099999109E-03 0.  1.
       22    1    1    2    0    0  0.10095617068E-01  0.35127269216E-02  0.32954587024E-01  0.34644848684E-01  0.00000000000E+00 0. -1.
       22    1    1    2    0    0  0.38479538210E-03 -0.10936808698E-02 -0.92751749836E-02  0.93473566481E-02  0.00000000000E+00 0.  1.
       22    1    1    2    0    0 -0.10480412450E-01 -0.24190460518E-02 -0.23679412040E-01  0.26007794668E-01  0.00000000000E+00 0.  1.
</event>
<event>
 5   0  0.4146200E+04  0.9118800E+02  0.7546771E-02  0.1180000E+00
      -11   -1    0    0    0    0  0.00000000000E+00  0.00000000000E+00  0.34996269501E-01  0.35000000000E-01  0.51099999109E-03 0. -1.
       11   -1    0    0    0    0 -0.00000000000E+00 -0.00000000000E+00 -0.34996269501E-01  0.35000000000E-01  0.51099999109E-03 0.  1.
       22    1    1    2    0    0 -0.28267812740E-02  0.17715392235E-01  0.27816132282E-01  0.33099290469E-01  0.00000000000E+00 0. -1.
       22    1    1    2    0    0 -0.14293274358E-02 -0.19093107962E-01 -0.25425752248E-01  0.31828581903E-01  0.00000000000E+00 0.  1.
       22    1    1    2    0    0  0.42561087098E-02  0.13777157271E-02 -0.23903800335E-02  0.50721276284E-02  0.00000000000E+00 0. -1.
</event>
<event>
 5   0  0.4146200E+04  0.9118800E+02  0.7546771E-02  0.1180000E+00
      -11   -1    0    0    0    0  0.00000000000E+00  0.00000000000E+00  0.34996269501E-01  0.35000000000E-01  0.51099999109E-03 0.  1.
       11   -1    0    0    0    0 -0.00000000000E+00 -0.00000000000E+00 -0.34996269501E-01  0.35000000000E-01  0.51099999109E-03 0. -1.
       22    1    1    2    0    0 -0.17175725902E-01  0.11597434939E-01 -0.28063200407E-01  0.34886233309E-01  0.00000000000E+00 0. -1.
       22    1    1    2    0    0  0.17124073125E-01 -0.11583076773E-01  0.26789863187E-01  0.33839301374E-01  0.00000000000E+00 0.  1.
       22    1    1    2    0    0  0.51652776875E-04 -0.14358166166E-04  0.12733372201E-02  0.12744653162E-02  0.00000000000E+00 0. -1.
</event>
<event>
 5   0  0.4146200E+04  0.9118800E+02  0.7546771E-02  0.1180000E+00
      -11   -1    0    0    0    0  0.00000000000E+00  0.00000000000E+00  0.34996269501E-01  0.35000000000E-01  0.51099999109E-03 0.  1.
       11   -1    0    0    0    0 -0.00000000000E+00 -0.00000000000E+00 -0.34996269501E-01  0.35000000000E-01  0.51099999109E-03 0. -1.
       22    1    1    2    0    0 -0.32579714323E-03  0.35610211740E-03 -0.34086797683E-03  0.59088363845E-03  0.00000000000E+00 0.  1.
       22    1    1    2    0    0  0.89589710404E-02  0.85048148477E-02 -0.32257677770E-01  0.34542044132E-01  0.00000000000E+00 0. -1.
       22    1    1    2    0    0 -0.86331738972E-02 -0.88609169651E-02  0.32598545747E-01  0.34867072229E-01  0.00000000000E+00 0.  1.
</event>
<event>
 5   0  0.4146200E+04  0.9118800E+02  0.7546771E-02  0.1180000E+00
      -11   -1    0    0    0    0  0.00000000000E+00  0.00000000000E+00  0.34996269501E-01  0.35000000000E-01  0.51099999109E-03 0. -1.
       11   -1    0    0    0    0 -0.00000000000E+00 -0.00000000000E+00 -0.34996269501E-01  0.35000000000E-01  0.51099999109E-03 0.  1.
       22    1    1    2    0    0  0.10734201578E-03  0.34659900740E-04 -0.49363128373E-03  0.50635507437E-03  0.00000000000E+00 0.  1.
       22    1    1    2    0    0 -0.15786408061E-01 -0.14282875043E-01 -0.27253723490E-01  0.34582895238E-01  0.00000000000E+00 0.  1.
       22    1    1    2    0    0  0.15679066045E-01  0.14248215142E-01  0.27747354774E-01  0.34910749688E-01  0.00000000000E+00 0. -1.
</event>
<event>
 5   0  0.4146200E+04  0.9118800E+02  0.7546771E-02  0.1180000E+00
      -11   -1    0    0    0    0  0.00000000000E+00  0.00000000000E+00  0.34996269501E-01  0.35000000000E-01  0.51099999109E-03 0.  1.
       11   -1    0    0    0    0 -0.00000000000E+00 -0.00000000000E+00 -0.34996269501E-01  0.35000000000E-01  0.51099999109E-03 0. -1.
       22    1    1    2    0    0 -0.20036847355E-01 -0.14112001640E-01  0.23367792800E-01  0.33862628110E-01  0.00000000000E+00 0.  1.
       22    1    1    2    0    0  0.13752325296E-03 -0.91917203836E-04  0.13563744367E-02  0.13664234446E-02  0.00000000000E+00 0. -1.
       22    1    1    2    0    0  0.19899324102E-01  0.14203918844E-01 -0.24724167236E-01  0.34770948445E-01  0.00000000000E+00 0. -1.
</event>
<event>
 5   0  0.4146200E+04  0.9118800E+02  0.7546771E-02  0.1180000E+00
      -11   -1    0    0    0    0  0.00000000000E+00  0.00000000000E+00  0.34996269501E-01  0.35000000000E-01  0.51099999109E-03 0. -1.
       11   -1    0    0    0    0 -0.00000000000E+00 -0.00000000000E+00 -0.34996269501E-01  0.35000000000E-01  0.51099999109E-03 0.  1.
       22    1    1    2    0    0 -0.96261076237E-02 -0.17430950020E-01 -0.28637478521E-01  0.34879867297E-01  0.00000000000E+00 0.  1.
       22    1    1    2    0    0 -0.12547058590E-04 -0.49130533076E-04  0.11403575664E-02  0.11414843920E-02  0.00000000000E+00 0. -1.
       22    1    1    2    0    0  0.96386546823E-02  0.17480080553E-01  0.27497120955E-01  0.33978648311E-01  0.00000000000E+00 0. -1.
</event>
<event>
 5   0  0.4146200E+04  0.9118800E+02  0.7546771E-02  0.1180000E+00
      -11   -1    0    0    0    0  0.00000000000E+00  0.00000000000E+00  0.34996269501E-01  0.35000000000E-01  0.51099999109E-03 0.  1.
       11   -1    0    0    0    0 -0.00000000000E+00 -0.00000000000E+00 -0.34996269501E-01  0.35000000000E-01  0.51099999109E-03 0. -1.
       22    1    1    2    0    0 -0.17054994526E-01 -0.11580918113E-01  0.26500457091E-01  0.33574763270E-01  0.00000000000E+00 0.  1.
       22    1    1    2    0    0  0.17463839320E-01  0.13328123536E-01 -0.26748601100E-01  0.34613757692E-01  0.00000000000E+00 0. -1.
       22    1    1    2    0    0 -0.40884479402E-03 -0.17472054231E-02  0.24814400851E-03  0.18114790380E-02  0.00000000000E+00 0. -1.
</event>
<event>
 5   0  0.4146200E+04  0.9118800E+02  0.7546771E-02  0.1180000E+00
      -11   -1    0    0    0    0  0.00000000000E+00  0.00000000000E+00  0.34996269501E-01  0.35000000000E-01  0.51099999109E-03 0.  1.
       11   -1    0    0    0    0 -0.00000000000E+00 -0.00000000000E+00 -0.34996269501E-01  0.35000000000E-01  0.51099999109E-03 0. -1.
       22    1    1    2    0    0  0.51964675273E-02 -0.72091305165E-02  0.33532448728E-01  0.34690055567E-01  0.00000000000E+00 0.  1.
       22    1    1    2    0    0  0.13096164689E-02  0.91925440540E-03 -0.23655283265E-02  0.28558445723E-02  0.00000000000E+00 0. -1.
       22    1    1    2    0    0 -0.65060839962E-02  0.62898761111E-02 -0.31166920401E-01  0.32454099861E-01  0.00000000000E+00 0. -1.
</event>
<event>
 5   0  0.4146200E+04  0.9118800E+02  0.7546771E-02  0.1180000E+00
      -11   -1    0    0    0    0  0.00000000000E+00  0.00000000000E+00  0.34996269501E-01  0.35000000000E-01  0.51099999109E-03 0.  1.
       11   -1    0    0    0    0 -0.00000000000E+00 -0.00000000000E+00 -0.34996269501E-01  0.35000000000E-01  0.51099999109E-03 0. -1.
       22    1    1    2    0    0  0.70527551778E-03 -0.18305546009E-02 -0.22483577181E-01  0.22568996135E-01  0.00000000000E+00 0. -1.
       22    1    1    2    0    0  0.20973441462E-02 -0.40166194558E-02 -0.11747560090E-01  0.12591157707E-01  0.00000000000E+00 0. -1.
       22    1    1    2    0    0 -0.28026196640E-02  0.58471740567E-02  0.34231137271E-01  0.34839846158E-01  0.00000000000E+00 0.  1.
</event>
<event>
 5   0  0.4146200E+04  0.9118800E+02  0.7546771E-02  0.1180000E+00
      -11   -1    0    0    0    0  0.00000000000E+00  0.00000000000E+00  0.34996269501E-01  0.35000000000E-01  0.51099999109E-03 0. -1.
       11   -1    0    0    0    0 -0.00000000000E+00 -0.00000000000E+00 -0.34996269501E-01  0.35000000000E-01  0.51099999109E-03 0.  1.
       22    1    1    2    0    0  0.27677177869E-03 -0.45048334715E-03 -0.83730486784E-03  0.99026123081E-03  0.00000000000E+00 0.  1.
       22    1    1    2    0    0 -0.96130846808E-03  0.24421870767E-02  0.34841586769E-01  0.34940299945E-01  0.00000000000E+00 0. -1.
       22    1    1    2    0    0  0.68453668939E-03 -0.19917037295E-02 -0.34004281901E-01  0.34069438824E-01  0.00000000000E+00 0.  1.
</event>
<event>
 5   0  0.4146200E+04  0.9118800E+02  0.7546771E-02  0.1180000E+00
      -11   -1    0    0    0    0  0.00000000000E+00  0.00000000000E+00  0.34996269501E-01  0.35000000000E-01  0.51099999109E-03 0.  1.
       11   -1    0    0    0    0 -0.00000000000E+00 -0.00000000000E+00 -0.34996269501E-01  0.35000000000E-01  0.51099999109E-03 0. -1.
       22    1    1    2    0    0 -0.14762273216E-03 -0.62826728797E-04 -0.18755912225E-02  0.18824404647E-02  0.00000000000E+00 0. -1.
       22    1    1    2    0    0 -0.31748240473E-02  0.22824868722E-01  0.26027955653E-01  0.34763610506E-01  0.00000000000E+00 0.  1.
       22    1    1    2    0    0  0.33224467795E-02 -0.22762041994E-01 -0.24152364430E-01  0.33353949030E-01  0.00000000000E+00 0. -1.
</event>
<event>
 5   0  0.4146200E+04  0.9118800E+02  0.7546771E-02  0.1180000E+00
      -11   -1    0    0    0    0  0.00000000000E+00  0.00000000000E+00  0.34996269501E-01  0.35000000000E-01  0.51099999109E-03 0.  1.
       11   -1    0    0    0    0 -0.00000000000E+00 -0.00000000000E+00 -0.34996269501E-01  0.35000000000E-01  0.51099999109E-03 0. -1.
       22    1    1    2    0    0 -0.13342357844E-01 -0.29017462918E-02 -0.18763894739E-01  0.23206085197E-01  0.00000000000E+00 0. -1.
       22    1    1    2    0    0  0.12453610117E-01  0.12857391469E-02  0.31514660624E-01  0.33910460986E-01  0.00000000000E+00 0.  1.
       22    1    1    2    0    0  0.88874772679E-03  0.16160071449E-02 -0.12750765884E-01  0.12883453817E-01  0.00000000000E+00 0. -1.
</event>
<event>
 5   0  0.4146200E+04  0.9118800E+02  0.7546771E-02  0.1180000E+00
      -11   -1    0    0    0    0  0.00000000000E+00  0.00000000000E+00  0.34996269501E-01  0.35000000000E-01  0.51099999109E-03 0.  1.
       11   -1    0    0    0    0 -0.00000000000E+00 -0.00000000000E+00 -0.34996269501E-01  0.35000000000E-01  0.51099999109E-03 0. -1.
       22    1    1    2    0    0 -0.48730388708E-03 -0.45368347871E-03  0.27071887105E-01  0.27080073212E-01  0.00000000000E+00 0.  1.
       22    1    1    2    0    0 -0.30745383613E-02 -0.12537317092E-01 -0.26453738786E-01  0.29435308759E-01  0.00000000000E+00 0. -1.
       22    1    1    2    0    0  0.35618422484E-02  0.12991000571E-01 -0.61814831914E-03  0.13484618029E-01  0.00000000000E+00 0.  1.
</event>
<event>
 5   0  0.4146200E+04  0.9118800E+02  0.7546771E-02  0.1180000E+00
      -11   -1    0    0    0    0  0.00000000000E+00  0.00000000000E+00  0.34996269501E-01  0.35000000000E-01  0.51099999109E-03 0. -1.
       11   -1    0    0    0    0 -0.00000000000E+00 -0.00000000000E+00 -0.34996269501E-01  0.35000000000E-01  0.51099999109E-03 0.  1.
       22    1    1    2    0    0  0.47476438797E-02  0.49078031816E-02 -0.78447209433E-02  0.10400302936E-01  0.00000000000E+00 0.  1.
       22    1    1    2    0    0 -0.78801469250E-02  0.13454886665E-02  0.32760051526E-01  0.33721329026E-01  0.00000000000E+00 0. -1.
       22    1    1    2    0    0  0.31325030452E-02 -0.62532918481E-02 -0.24915330583E-01  0.25878368038E-01  0.00000000000E+00 0.  1.
</event>
<event>
 5   0  0.4146200E+04  0.9118800E+02  0.7546771E-02  0.1180000E+00
      -11   -1    0    0    0    0  0.00000000000E+00  0.00000000000E+00  0.34996269501E-01  0.35000000000E-01  0.51099999109E-03 0. -1.
       11   -1    0    0    0    0 -0.00000000000E+00 -0.00000000000E+00 -0.34996269501E-01  0.35000000000E-01  0.51099999109E-03 0.  1.
       22    1    1    2    0    0 -0.99913166449E-03  0.63292947790E-03  0.82667093751E-02  0.83508890365E-02  0.00000000000E+00 0. -1.
       22    1    1    2    0    0 -0.13535445889E-01  0.35894795306E-02  0.22990950367E-01  0.26919815332E-01  0.00000000000E+00 0. -1.
       22    1    1    2    0    0  0.14534577553E-01 -0.42224090086E-02 -0.31257659743E-01  0.34729295632E-01  0.00000000000E+00 0.  1.
</event>
<event>
 5   0  0.4146200E+04  0.9118800E+02  0.7546771E-02  0.1180000E+00
      -11   -1    0    0    0    0  0.00000000000E+00  0.00000000000E+00  0.34996269501E-01  0.35000000000E-01  0.51099999109E-03 0.  1.
       11   -1    0    0    0    0 -0.00000000000E+00 -0.00000000000E+00 -0.34996269501E-01  0.35000000000E-01  0.51099999109E-03 0. -1.
       22    1    1    2    0    0  0.26491519481E-01  0.10063346286E-01 -0.15385858229E-01  0.32245870686E-01  0.00000000000E+00 0. -1.
       22    1    1    2    0    0 -0.24155432827E-01 -0.96221160815E-02  0.19839348443E-01  0.32705806817E-01  0.00000000000E+00 0.  1.
       22    1    1    2    0    0 -0.23360866540E-02 -0.44123020420E-03 -0.44534902135E-02  0.50483224966E-02  0.00000000000E+00 0.  1.
</event>
<event>
 5   0  0.4146200E+04  0.9118800E+02  0.7546771E-02  0.1180000E+00
      -11   -1    0    0    0    0  0.00000000000E+00  0.00000000000E+00  0.34996269501E-01  0.35000000000E-01  0.51099999109E-03 0.  1.
       11   -1    0    0    0    0 -0.00000000000E+00 -0.00000000000E+00 -0.34996269501E-01  0.35000000000E-01  0.51099999109E-03 0.  1.
       22    1    1    2    0    0 -0.11355847860E-03  0.44442729158E-04  0.34234379331E-01  0.34234596520E-01  0.00000000000E+00 0.  1.
       22    1    1    2    0    0  0.30805846911E-03 -0.47168325281E-02 -0.24672534297E-01  0.25121253109E-01  0.00000000000E+00 0.  1.
       22    1    1    2    0    0 -0.19449999052E-03  0.46723897989E-02 -0.95618450335E-02  0.10644150371E-01  0.00000000000E+00 0. -1.
</event>
<event>
 5   0  0.4146200E+04  0.9118800E+02  0.7546771E-02  0.1180000E+00
      -11   -1    0    0    0    0  0.00000000000E+00  0.00000000000E+00  0.34996269501E-01  0.35000000000E-01  0.51099999109E-03 0.  1.
       11   -1    0    0    0    0 -0.00000000000E+00 -0.00000000000E+00 -0.34996269501E-01  0.35000000000E-01  0.51099999109E-03 0. -1.
       22    1    1    2    0    0 -0.21178410801E-02  0.14429484447E-02 -0.51007536785E-03  0.26129538717E-02  0.00000000000E+00 0.  1.
       22    1    1    2    0    0  0.12796431679E-01 -0.49697377624E-02  0.31531465702E-01  0.34390119024E-01  0.00000000000E+00 0.  1.
       22    1    1    2    0    0 -0.10678590599E-01  0.35267893177E-02 -0.31021390334E-01  0.32996927105E-01  0.00000000000E+00 0. -1.
</event>
<event>
 5   0  0.4146200E+04  0.9118800E+02  0.7546771E-02  0.1180000E+00
      -11   -1    0    0    0    0  0.00000000000E+00  0.00000000000E+00  0.34996269501E-01  0.35000000000E-01  0.51099999109E-03 0.  1.
       11   -1    0    0    0    0 -0.00000000000E+00 -0.00000000000E+00 -0.34996269501E-01  0.35000000000E-01  0.51099999109E-03 0. -1.
       22    1    1    2    0    0  0.44213158730E-03 -0.23801667425E-01  0.25013784131E-01  0.34531206888E-01  0.00000000000E+00 0.  1.
       22    1    1    2    0    0  0.24915276105E-03  0.14035348143E-04  0.51252994337E-03  0.57005353449E-03  0.00000000000E+00 0. -1.
       22    1    1    2    0    0 -0.69128434834E-03  0.23787632077E-01 -0.25526314075E-01  0.34898739578E-01  0.00000000000E+00 0. -1.
</event>
<event>
 5   0  0.4146200E+04  0.9118800E+02  0.7546771E-02  0.1180000E+00
      -11   -1    0    0    0    0  0.00000000000E+00  0.00000000000E+00  0.34996269501E-01  0.35000000000E-01  0.51099999109E-03 0. -1.
       11   -1    0    0    0    0 -0.00000000000E+00 -0.00000000000E+00 -0.34996269501E-01  0.35000000000E-01  0.51099999109E-03 0.  1.
       22    1    1    2    0    0 -0.19362441334E-01 -0.42352646456E-02  0.27091155308E-01  0.33567429109E-01  0.00000000000E+00 0. -1.
       22    1    1    2    0    0  0.21553121576E-01  0.47782798853E-02 -0.25047623017E-01  0.33387908397E-01  0.00000000000E+00 0.  1.
       22    1    1    2    0    0 -0.21906802428E-02 -0.54301523968E-03 -0.20435322913E-02  0.30446624940E-02  0.00000000000E+00 0. -1.
</event>
<event>
 5   0  0.4146200E+04  0.9118800E+02  0.7546771E-02  0.1180000E+00
      -11   -1    0    0    0    0  0.00000000000E+00  0.00000000000E+00  0.34996269501E-01  0.35000000000E-01  0.51099999109E-03 0.  1.
       11   -1    0    0    0    0 -0.00000000000E+00 -0.00000000000E+00 -0.34996269501E-01  0.35000000000E-01  0.51099999109E-03 0. -1.
       22    1    1    2    0    0 -0.26497631104E-02  0.13161804969E-02 -0.36771134847E-02  0.47196121897E-02  0.00000000000E+00 0. -1.
       22    1    1    2    0    0 -0.18284508930E-01  0.35405441735E-02 -0.23911992797E-01  0.30309109512E-01  0.00000000000E+00 0. -1.
       22    1    1    2    0    0  0.20934272041E-01 -0.48567246704E-02  0.27589106282E-01  0.34971278299E-01  0.00000000000E+00 0.  1.
</event>
<event>
 5   0  0.4146200E+04  0.9118800E+02  0.7546771E-02  0.1180000E+00
      -11   -1    0    0    0    0  0.00000000000E+00  0.00000000000E+00  0.34996269501E-01  0.35000000000E-01  0.51099999109E-03 0. -1.
       11   -1    0    0    0    0 -0.00000000000E+00 -0.00000000000E+00 -0.34996269501E-01  0.35000000000E-01  0.51099999109E-03 0.  1.
       22    1    1    2    0    0  0.12171167125E-01 -0.17402748563E-01  0.26313187837E-01  0.33813855457E-01  0.00000000000E+00 0. -1.
       22    1    1    2    0    0 -0.57831210269E-03 -0.11471594533E-04  0.13701275524E-02  0.14872208966E-02  0.00000000000E+00 0.  1.
       22    1    1    2    0    0 -0.11592855022E-01  0.17414220157E-01 -0.27683315390E-01  0.34698923646E-01  0.00000000000E+00 0.  1.
</event>
<event>
 5   0  0.4146200E+04  0.9118800E+02  0.7546771E-02  0.1180000E+00
      -11   -1    0    0    0    0  0.00000000000E+00  0.00000000000E+00  0.34996269501E-01  0.35000000000E-01  0.51099999109E-03 0.  1.
       11   -1    0    0    0    0 -0.00000000000E+00 -0.00000000000E+00 -0.34996269501E-01  0.35000000000E-01  0.51099999109E-03 0. -1.
       22    1    1    2    0    0 -0.22337777839E-03 -0.51272297247E-03 -0.43780890787E-02  0.44136658754E-02  0.00000000000E+00 0.  1.
       22    1    1    2    0    0 -0.10826325929E-02  0.11870778882E-01 -0.28438285490E-01  0.30835427129E-01  0.00000000000E+00 0. -1.
       22    1    1    2    0    0  0.13060103713E-02 -0.11358055910E-01  0.32816374569E-01  0.34750906995E-01  0.00000000000E+00 0.  1.
</event>
<event>
 5   0  0.4146200E+04  0.9118800E+02  0.7546771E-02  0.1180000E+00
      -11   -1    0    0    0    0  0.00000000000E+00  0.00000000000E+00  0.34996269501E-01  0.35000000000E-01  0.51099999109E-03 0.  1.
       11   -1    0    0    0    0 -0.00000000000E+00 -0.00000000000E+00 -0.34996269501E-01  0.35000000000E-01  0.51099999109E-03 0.  1.
       22    1    1    2    0    0  0.50947427306E-03  0.56409249397E-03 -0.33525041591E-01  0.33533657392E-01  0.00000000000E+00 0.  1.
       22    1    1    2    0    0  0.35275590318E-03  0.21136529762E-03  0.34765684694E-01  0.34768116778E-01  0.00000000000E+00 0.  1.
       22    1    1    2    0    0 -0.86223017624E-03 -0.77545779159E-03 -0.12406431029E-02  0.16982258307E-02  0.00000000000E+00 0. -1.
</event>
<event>
 5   0  0.4146200E+04  0.9118800E+02  0.7546771E-02  0.1180000E+00
      -11   -1    0    0    0    0  0.00000000000E+00  0.00000000000E+00  0.34996269501E-01  0.35000000000E-01  0.51099999109E-03 0. -1.
       11   -1    0    0    0    0 -0.00000000000E+00 -0.00000000000E+00 -0.34996269501E-01  0.35000000000E-01  0.51099999109E-03 0.  1.
       22    1    1    2    0    0  0.61093240013E-05  0.18599401045E-03 -0.40975211445E-02  0.41017448269E-02  0.00000000000E+00 0.  1.
       22    1    1    2    0    0 -0.53252938747E-02 -0.18986736785E-01  0.28487780457E-01  0.34646912762E-01  0.00000000000E+00 0. -1.
       22    1    1    2    0    0  0.53191845507E-02  0.18800742775E-01 -0.24390259312E-01  0.31251342411E-01  0.00000000000E+00 0.  1.
</event>
<event>
 5   0  0.4146200E+04  0.9118800E+02  0.7546771E-02  0.1180000E+00
      -11   -1    0    0    0    0  0.00000000000E+00  0.00000000000E+00  0.34996269501E-01  0.35000000000E-01  0.51099999109E-03 0. -1.
       11   -1    0    0    0    0 -0.00000000000E+00 -0.00000000000E+00 -0.34996269501E-01  0.35000000000E-01  0.51099999109E-03 0.  1.
       22    1    1    2    0    0 -0.58182993890E-02 -0.11415441706E-01 -0.28365768934E-01  0.31125259265E-01  0.00000000000E+00 0.  1.
       22    1    1    2    0    0  0.98268875723E-02  0.12229376096E-01  0.71018301133E-02  0.17220956710E-01  0.00000000000E+00 0. -1.
       22    1    1    2    0    0 -0.40085881833E-02 -0.81393439052E-03  0.21263938820E-01  0.21653784024E-01  0.00000000000E+00 0. -1.
</event>
<event>
 5   0  0.4146200E+04  0.9118800E+02  0.7546771E-02  0.1180000E+00
      -11   -1    0    0    0    0  0.00000000000E+00  0.00000000000E+00  0.34996269501E-01  0.35000000000E-01  0.51099999109E-03 0. -1.
       11   -1    0    0    0    0 -0.00000000000E+00 -0.00000000000E+00 -0.34996269501E-01  0.35000000000E-01  0.51099999109E-03 0.  1.
       22    1    1    2    0    0 -0.57907021017E-02 -0.17184020942E-03 -0.34179448750E-01  0.34666936362E-01  0.00000000000E+00 0.  1.
       22    1    1    2    0    0 -0.70763520425E-04  0.19861900955E-03 -0.29569834600E-03  0.36317282196E-03  0.00000000000E+00 0.  1.
       22    1    1    2    0    0  0.58614656221E-02 -0.26778800135E-04  0.34475147096E-01  0.34969890816E-01  0.00000000000E+00 0. -1.
</event>
<event>
 5   0  0.4146200E+04  0.9118800E+02  0.7546771E-02  0.1180000E+00
      -11   -1    0    0    0    0  0.00000000000E+00  0.00000000000E+00  0.34996269501E-01  0.35000000000E-01  0.51099999109E-03 0. -1.
       11   -1    0    0    0    0 -0.00000000000E+00 -0.00000000000E+00 -0.34996269501E-01  0.35000000000E-01  0.51099999109E-03 0.  1.
       22    1    1    2    0    0  0.12893081991E-01  0.12458392511E-01 -0.29664490041E-01  0.34661579256E-01  0.00000000000E+00 0.  1.
       22    1    1    2    0    0 -0.12958730732E-01 -0.10266636304E-01  0.23021815401E-01  0.28343191556E-01  0.00000000000E+00 0. -1.
       22    1    1    2    0    0  0.65648741174E-04 -0.21917562074E-02  0.66426746391E-02  0.69952291879E-02  0.00000000000E+00 0.  1.
</event>
<event>
 5   0  0.4146200E+04  0.9118800E+02  0.7546771E-02  0.1180000E+00
      -11   -1    0    0    0    0  0.00000000000E+00  0.00000000000E+00  0.34996269501E-01  0.35000000000E-01  0.51099999109E-03 0. -1.
       11   -1    0    0    0    0 -0.00000000000E+00 -0.00000000000E+00 -0.34996269501E-01  0.35000000000E-01  0.51099999109E-03 0.  1.
       22    1    1    2    0    0 -0.21552941704E-02 -0.85487066435E-02  0.33829553594E-01  0.34959467596E-01  0.00000000000E+00 0. -1.
       22    1    1    2    0    0  0.18890154643E-02  0.86117313896E-02 -0.33259489880E-01  0.34408196175E-01  0.00000000000E+00 0.  1.
       22    1    1    2    0    0  0.26627870611E-03 -0.63024746027E-04 -0.57006371455E-03  0.63233622906E-03  0.00000000000E+00 0.  1.
</event>
<event>
 5   0  0.4146200E+04  0.9118800E+02  0.7546771E-02  0.1180000E+00
      -11   -1    0    0    0    0  0.00000000000E+00  0.00000000000E+00  0.34996269501E-01  0.35000000000E-01  0.51099999109E-03 0. -1.
       11   -1    0    0    0    0 -0.00000000000E+00 -0.00000000000E+00 -0.34996269501E-01  0.35000000000E-01  0.51099999109E-03 0.  1.
       22    1    1    2    0    0 -0.15152030161E-01  0.29210961733E-02 -0.27840195219E-01  0.31830697301E-01  0.00000000000E+00 0.  1.
       22    1    1    2    0    0  0.17494395626E-01 -0.30541214320E-02  0.30076448271E-01  0.34928130163E-01  0.00000000000E+00 0. -1.
       22    1    1    2    0    0 -0.23423654653E-02  0.13302525865E-03 -0.22362530526E-02  0.32411725359E-02  0.00000000000E+00 0. -1.
</event>
<event>
 5   0  0.4146200E+04  0.9118800E+02  0.7546771E-02  0.1180000E+00
      -11   -1    0    0    0    0  0.00000000000E+00  0.00000000000E+00  0.34996269501E-01  0.35000000000E-01  0.51099999109E-03 0.  1.
       11   -1    0    0    0    0 -0.00000000000E+00 -0.00000000000E+00 -0.34996269501E-01  0.35000000000E-01  0.51099999109E-03 0.  1.
       22    1    1    2    0    0  0.11619772451E-02  0.89453371880E-03  0.34749336988E-01  0.34780264559E-01  0.00000000000E+00 0.  1.
       22    1    1    2    0    0 -0.90788911460E-03 -0.24240372176E-02 -0.31635703379E-01  0.31741423210E-01  0.00000000000E+00 0.  1.
       22    1    1    2    0    0 -0.25408813053E-03  0.15295034988E-02 -0.31136336085E-02  0.34783122313E-02  0.00000000000E+00 0. -1.
</event>
<event>
 5   0  0.4146200E+04  0.9118800E+02  0.7546771E-02  0.1180000E+00
      -11   -1    0    0    0    0  0.00000000000E+00  0.00000000000E+00  0.34996269501E-01  0.35000000000E-01  0.51099999109E-03 0. -1.
       11   -1    0    0    0    0 -0.00000000000E+00 -0.00000000000E+00 -0.34996269501E-01  0.35000000000E-01  0.51099999109E-03 0.  1.
       22    1    1    2    0    0  0.62483448765E-03 -0.37385670609E-02 -0.93347535788E-02  0.10074965319E-01  0.00000000000E+00 0. -1.
       22    1    1    2    0    0  0.26707229643E-02 -0.22022327368E-02  0.34084491528E-01  0.34259818343E-01  0.00000000000E+00 0. -1.
       22    1    1    2    0    0 -0.32955574519E-02  0.59407997978E-02 -0.24749737949E-01  0.25665216338E-01  0.00000000000E+00 0.  1.
</event>
<event>
 5   0  0.4146200E+04  0.9118800E+02  0.7546771E-02  0.1180000E+00
      -11   -1    0    0    0    0  0.00000000000E+00  0.00000000000E+00  0.34996269501E-01  0.35000000000E-01  0.51099999109E-03 0.  1.
       11   -1    0    0    0    0 -0.00000000000E+00 -0.00000000000E+00 -0.34996269501E-01  0.35000000000E-01  0.51099999109E-03 0. -1.
       22    1    1    2    0    0 -0.22598637596E-03 -0.12599507790E-04 -0.63550072412E-03  0.67460340947E-03  0.00000000000E+00 0.  1.
       22    1    1    2    0    0  0.16285512407E-03 -0.69991442088E-03  0.34973032785E-01  0.34980414866E-01  0.00000000000E+00 0.  1.
       22    1    1    2    0    0  0.63131251888E-04  0.71251392867E-03 -0.34337532061E-01  0.34344981725E-01  0.00000000000E+00 0. -1.
</event>
<event>
 5   0  0.4146200E+04  0.9118800E+02  0.7546771E-02  0.1180000E+00
      -11   -1    0    0    0    0  0.00000000000E+00  0.00000000000E+00  0.34996269501E-01  0.35000000000E-01  0.51099999109E-03 0.  1.
       11   -1    0    0    0    0 -0.00000000000E+00 -0.00000000000E+00 -0.34996269501E-01  0.35000000000E-01  0.51099999109E-03 0. -1.
       22    1    1    2    0    0 -0.18276118374E-01 -0.71567224981E-02 -0.27923294785E-01  0.34131299000E-01  0.00000000000E+00 0. -1.
       22    1    1    2    0    0  0.18247561613E-01  0.77224020242E-02  0.20815491526E-01  0.28738366087E-01  0.00000000000E+00 0.  1.
       22    1    1    2    0    0  0.28556760591E-04 -0.56567952615E-03  0.71078032590E-02  0.71303349138E-02  0.00000000000E+00 0.  1.
</event>
<event>
 5   0  0.4146200E+04  0.9118800E+02  0.7546771E-02  0.1180000E+00
      -11   -1    0    0    0    0  0.00000000000E+00  0.00000000000E+00  0.34996269501E-01  0.35000000000E-01  0.51099999109E-03 0. -1.
       11   -1    0    0    0    0 -0.00000000000E+00 -0.00000000000E+00 -0.34996269501E-01  0.35000000000E-01  0.51099999109E-03 0.  1.
       22    1    1    2    0    0  0.31330021289E-02  0.97761824687E-02  0.32571897242E-01  0.34151397276E-01  0.00000000000E+00 0. -1.
       22    1    1    2    0    0 -0.30586377867E-02 -0.17496898016E-02 -0.23385219716E-01  0.23649210995E-01  0.00000000000E+00 0.  1.
       22    1    1    2    0    0 -0.74364342132E-04 -0.80264926671E-02 -0.91866775254E-02  0.12199391729E-01  0.00000000000E+00 0.  1.
</event>
<event>
 5   0  0.4146200E+04  0.9118800E+02  0.7546771E-02  0.1180000E+00
      -11   -1    0    0    0    0  0.00000000000E+00  0.00000000000E+00  0.34996269501E-01  0.35000000000E-01  0.51099999109E-03 0.  1.
       11   -1    0    0    0    0 -0.00000000000E+00 -0.00000000000E+00 -0.34996269501E-01  0.35000000000E-01  0.51099999109E-03 0. -1.
       22    1    1    2    0    0  0.41654876049E-02  0.86988355304E-05 -0.30357656334E-02  0.51543414358E-02  0.00000000000E+00 0. -1.
       22    1    1    2    0    0  0.39648277080E-02 -0.12225616976E-01 -0.27837988211E-01  0.30661688748E-01  0.00000000000E+00 0. -1.
       22    1    1    2    0    0 -0.81303153129E-02  0.12216918141E-01  0.30873753845E-01  0.34183969816E-01  0.00000000000E+00 0.  1.
</event>
<event>
 5   0  0.4146200E+04  0.9118800E+02  0.7546771E-02  0.1180000E+00
      -11   -1    0    0    0    0  0.00000000000E+00  0.00000000000E+00  0.34996269501E-01  0.35000000000E-01  0.51099999109E-03 0. -1.
       11   -1    0    0    0    0 -0.00000000000E+00 -0.00000000000E+00 -0.34996269501E-01  0.35000000000E-01  0.51099999109E-03 0.  1.
       22    1    1    2    0    0 -0.10884545522E-01  0.40973624024E-02  0.32963186884E-01  0.34954733577E-01  0.00000000000E+00 0. -1.
       22    1    1    2    0    0  0.26515592498E-03 -0.27775097275E-03 -0.30492521286E-02  0.30733356165E-02  0.00000000000E+00 0. -1.
       22    1    1    2    0    0  0.10619389598E-01 -0.38196114297E-02 -0.29913934756E-01  0.31971930806E-01  0.00000000000E+00 0.  1.
</event>
<event>
 5   0  0.4146200E+04  0.9118800E+02  0.7546771E-02  0.1180000E+00
      -11   -1    0    0    0    0  0.00000000000E+00  0.00000000000E+00  0.34996269501E-01  0.35000000000E-01  0.51099999109E-03 0. -1.
       11   -1    0    0    0    0 -0.00000000000E+00 -0.00000000000E+00 -0.34996269501E-01  0.35000000000E-01  0.51099999109E-03 0.  1.
       22    1    1    2    0    0  0.10790753899E-03 -0.27406388573E-03  0.30421834379E-03  0.42344285462E-03  0.00000000000E+00 0.  1.
       22    1    1    2    0    0  0.10248626402E-01 -0.21796012483E-01  0.24808312318E-01  0.34576767682E-01  0.00000000000E+00 0.  1.
       22    1    1    2    0    0 -0.10356533941E-01  0.22070076369E-01 -0.25112530662E-01  0.34999789463E-01  0.00000000000E+00 0. -1.
</event>
<event>
 5   0  0.4146200E+04  0.9118800E+02  0.7546771E-02  0.1180000E+00
      -11   -1    0    0    0    0  0.00000000000E+00  0.00000000000E+00  0.34996269501E-01  0.35000000000E-01  0.51099999109E-03 0.  1.
       11   -1    0    0    0    0 -0.00000000000E+00 -0.00000000000E+00 -0.34996269501E-01  0.35000000000E-01  0.51099999109E-03 0. -1.
       22    1    1    2    0    0 -0.57470956756E-04 -0.59148387085E-04 -0.92193778090E-03  0.92561909791E-03  0.00000000000E+00 0.  1.
       22    1    1    2    0    0  0.10628915833E-01  0.72635646397E-02  0.32525047177E-01  0.34980164621E-01  0.00000000000E+00 0.  1.
       22    1    1    2    0    0 -0.10571444876E-01 -0.72044162526E-02 -0.31603109396E-01  0.34094216281E-01  0.00000000000E+00 0. -1.
</event>
<event>
 5   0  0.4146200E+04  0.9118800E+02  0.7546771E-02  0.1180000E+00
      -11   -1    0    0    0    0  0.00000000000E+00  0.00000000000E+00  0.34996269501E-01  0.35000000000E-01  0.51099999109E-03 0. -1.
       11   -1    0    0    0    0 -0.00000000000E+00 -0.00000000000E+00 -0.34996269501E-01  0.35000000000E-01  0.51099999109E-03 0.  1.
       22    1    1    2    0    0 -0.46771405493E-02  0.62263235559E-03  0.10608507551E-01  0.11610501592E-01  0.00000000000E+00 0. -1.
       22    1    1    2    0    0 -0.17930812107E-01 -0.90428943331E-03 -0.25595006857E-01  0.31263975086E-01  0.00000000000E+00 0.  1.
       22    1    1    2    0    0  0.22607952656E-01  0.28165707772E-03  0.14986499306E-01  0.27125523322E-01  0.00000000000E+00 0. -1.
</event>
<event>
 5   0  0.4146200E+04  0.9118800E+02  0.7546771E-02  0.1180000E+00
      -11   -1    0    0    0    0  0.00000000000E+00  0.00000000000E+00  0.34996269501E-01  0.35000000000E-01  0.51099999109E-03 0.  1.
       11   -1    0    0    0    0 -0.00000000000E+00 -0.00000000000E+00 -0.34996269501E-01  0.35000000000E-01  0.51099999109E-03 0. -1.
       22    1    1    2    0    0 -0.70933584325E-04  0.14270981583E-01  0.31931854197E-01  0.34975838223E-01  0.00000000000E+00 0.  1.
       22    1    1    2    0    0  0.14123105795E-03 -0.13849508954E-01 -0.31528596762E-01  0.34436626697E-01  0.00000000000E+00 0. -1.
       22    1    1    2    0    0 -0.70297473624E-04 -0.42147262905E-03 -0.40325743491E-03  0.58753508036E-03  0.00000000000E+00 0. -1.
</event>
<event>
 5   0  0.4146200E+04  0.9118800E+02  0.7546771E-02  0.1180000E+00
      -11   -1    0    0    0    0  0.00000000000E+00  0.00000000000E+00  0.34996269501E-01  0.35000000000E-01  0.51099999109E-03 0. -1.
       11   -1    0    0    0    0 -0.00000000000E+00 -0.00000000000E+00 -0.34996269501E-01  0.35000000000E-01  0.51099999109E-03 0.  1.
       22    1    1    2    0    0  0.96451210841E-02  0.30320540534E-02 -0.24631477102E-01  0.26625765280E-01  0.00000000000E+00 0.  1.
       22    1    1    2    0    0 -0.86854110796E-02  0.12999516724E-03 -0.72546203628E-02  0.11317366344E-01  0.00000000000E+00 0. -1.
       22    1    1    2    0    0 -0.95971000442E-03 -0.31620492206E-02  0.31886097464E-01  0.32056868376E-01  0.00000000000E+00 0. -1.
</event>
<event>
 5   0  0.4146200E+04  0.9118800E+02  0.7546771E-02  0.1180000E+00
      -11   -1    0    0    0    0  0.00000000000E+00  0.00000000000E+00  0.34996269501E-01  0.35000000000E-01  0.51099999109E-03 0. -1.
       11   -1    0    0    0    0 -0.00000000000E+00 -0.00000000000E+00 -0.34996269501E-01  0.35000000000E-01  0.51099999109E-03 0. -1.
       22    1    1    2    0    0 -0.30083693886E-02 -0.11230112807E-02 -0.33056716642E-01  0.33212316328E-01  0.00000000000E+00 0. -1.
       22    1    1    2    0    0  0.17085012090E-02  0.71761824369E-03  0.34645635279E-01  0.34695158109E-01  0.00000000000E+00 0. -1.
       22    1    1    2    0    0  0.12998681796E-02  0.40539303699E-03 -0.15889186371E-02  0.20925255636E-02  0.00000000000E+00 0.  1.
</event>
<event>
 5   0  0.4146200E+04  0.9118800E+02  0.7546771E-02  0.1180000E+00
      -11   -1    0    0    0    0  0.00000000000E+00  0.00000000000E+00  0.34996269501E-01  0.35000000000E-01  0.51099999109E-03 0.  1.
       11   -1    0    0    0    0 -0.00000000000E+00 -0.00000000000E+00 -0.34996269501E-01  0.35000000000E-01  0.51099999109E-03 0. -1.
       22    1    1    2    0    0 -0.35692054431E-02 -0.27176799670E-03  0.30508557008E-01  0.30717830914E-01  0.00000000000E+00 0.  1.
       22    1    1    2    0    0 -0.10503214648E-01  0.10892715725E-02 -0.14732394730E-01  0.18125878875E-01  0.00000000000E+00 0.  1.
       22    1    1    2    0    0  0.14072420091E-01 -0.81750357577E-03 -0.15776162278E-01  0.21156290212E-01  0.00000000000E+00 0. -1.
</event>
<event>
 5   0  0.4146200E+04  0.9118800E+02  0.7546771E-02  0.1180000E+00
      -11   -1    0    0    0    0  0.00000000000E+00  0.00000000000E+00  0.34996269501E-01  0.35000000000E-01  0.51099999109E-03 0.  1.
       11   -1    0    0    0    0 -0.00000000000E+00 -0.00000000000E+00 -0.34996269501E-01  0.35000000000E-01  0.51099999109E-03 0. -1.
       22    1    1    2    0    0 -0.59320098258E-02  0.11608538648E-01 -0.71168580483E-02  0.14852494019E-01  0.00000000000E+00 0. -1.
       22    1    1    2    0    0  0.15012135645E-01  0.63558860872E-02 -0.17121275120E-01  0.23641056793E-01  0.00000000000E+00 0. -1.
       22    1    1    2    0    0 -0.90801258192E-02 -0.17964424735E-01  0.24238133168E-01  0.31506449188E-01  0.00000000000E+00 0.  1.
</event>
<event>
 5   0  0.4146200E+04  0.9118800E+02  0.7546771E-02  0.1180000E+00
      -11   -1    0    0    0    0  0.00000000000E+00  0.00000000000E+00  0.34996269501E-01  0.35000000000E-01  0.51099999109E-03 0. -1.
       11   -1    0    0    0    0 -0.00000000000E+00 -0.00000000000E+00 -0.34996269501E-01  0.35000000000E-01  0.51099999109E-03 0.  1.
       22    1    1    2    0    0 -0.16561951760E-01 -0.11036094273E-01  0.27476577082E-01  0.33927214902E-01  0.00000000000E+00 0. -1.
       22    1    1    2    0    0 -0.46544102036E-04 -0.11948076023E-03  0.11447360055E-02  0.11518951896E-02  0.00000000000E+00 0. -1.
       22    1    1    2    0    0  0.16608495862E-01  0.11155575033E-01 -0.28621313088E-01  0.34920889908E-01  0.00000000000E+00 0.  1.
</event>
<event>
 5   0  0.4146200E+04  0.9118800E+02  0.7546771E-02  0.1180000E+00
      -11   -1    0    0    0    0  0.00000000000E+00  0.00000000000E+00  0.34996269501E-01  0.35000000000E-01  0.51099999109E-03 0. -1.
       11   -1    0    0    0    0 -0.00000000000E+00 -0.00000000000E+00 -0.34996269501E-01  0.35000000000E-01  0.51099999109E-03 0.  1.
       22    1    1    2    0    0  0.14376475105E-03  0.12004328895E-02  0.34761932934E-01  0.34782951121E-01  0.00000000000E+00 0. -1.
       22    1    1    2    0    0 -0.16814583891E-02 -0.19666447223E-02 -0.30671823793E-01  0.30780769460E-01  0.00000000000E+00 0.  1.
       22    1    1    2    0    0  0.15376936380E-02  0.76621183285E-03 -0.40901091408E-02  0.44362794187E-02  0.00000000000E+00 0. -1.
</event>
<event>
 5   0  0.4146200E+04  0.9118800E+02  0.7546771E-02  0.1180000E+00
      -11   -1    0    0    0    0  0.00000000000E+00  0.00000000000E+00  0.34996269501E-01  0.35000000000E-01  0.51099999109E-03 0. -1.
       11   -1    0    0    0    0 -0.00000000000E+00 -0.00000000000E+00 -0.34996269501E-01  0.35000000000E-01  0.51099999109E-03 0.  1.
       22    1    1    2    0    0  0.29991870467E-03 -0.70874548200E-05 -0.46062564602E-03  0.54970669197E-03  0.00000000000E+00 0.  1.
       22    1    1    2    0    0 -0.18732242232E-02 -0.10135698233E-02  0.34897478835E-01  0.34962412986E-01  0.00000000000E+00 0. -1.
       22    1    1    2    0    0  0.15733055186E-02  0.10206572781E-02 -0.34436853189E-01  0.34487880322E-01  0.00000000000E+00 0.  1.
</event>
<event>
 5   0  0.4146200E+04  0.9118800E+02  0.7546771E-02  0.1180000E+00
      -11   -1    0    0    0    0  0.00000000000E+00  0.00000000000E+00  0.34996269501E-01  0.35000000000E-01  0.51099999109E-03 0. -1.
       11   -1    0    0    0    0 -0.00000000000E+00 -0.00000000000E+00 -0.34996269501E-01  0.35000000000E-01  0.51099999109E-03 0. -1.
       22    1    1    2    0    0  0.33425740910E-04 -0.33190426230E-03 -0.34386783888E-01  0.34388401881E-01  0.00000000000E+00 0. -1.
       22    1    1    2    0    0  0.93028563637E-04  0.13734723662E-03  0.34977007133E-01  0.34977400512E-01  0.00000000000E+00 0. -1.
       22    1    1    2    0    0 -0.12645430455E-03  0.19455702568E-03 -0.59022324451E-03  0.63419760780E-03  0.00000000000E+00 0. -1.
</event>
<event>
 5   0  0.4146200E+04  0.9118800E+02  0.7546771E-02  0.1180000E+00
      -11   -1    0    0    0    0  0.00000000000E+00  0.00000000000E+00  0.34996269501E-01  0.35000000000E-01  0.51099999109E-03 0.  1.
       11   -1    0    0    0    0 -0.00000000000E+00 -0.00000000000E+00 -0.34996269501E-01  0.35000000000E-01  0.51099999109E-03 0. -1.
       22    1    1    2    0    0  0.50482237782E-02  0.44420247970E-02  0.34270953371E-01  0.34924409695E-01  0.00000000000E+00 0.  1.
       22    1    1    2    0    0 -0.14835748630E-04  0.27183297392E-03 -0.27389224591E-03  0.38617383070E-03  0.00000000000E+00 0.  1.
       22    1    1    2    0    0 -0.50333880296E-02 -0.47138577709E-02 -0.33997061125E-01  0.34689416474E-01  0.00000000000E+00 0. -1.
</event>
<event>
 5   0  0.4146200E+04  0.9118800E+02  0.7546771E-02  0.1180000E+00
      -11   -1    0    0    0    0  0.00000000000E+00  0.00000000000E+00  0.34996269501E-01  0.35000000000E-01  0.51099999109E-03 0.  1.
       11   -1    0    0    0    0 -0.00000000000E+00 -0.00000000000E+00 -0.34996269501E-01  0.35000000000E-01  0.51099999109E-03 0. -1.
       22    1    1    2    0    0  0.19060972627E-01  0.15562809959E-01  0.23855634568E-01  0.34272628028E-01  0.00000000000E+00 0.  1.
       22    1    1    2    0    0 -0.19050146264E-01 -0.15574692231E-01 -0.24710443362E-01  0.34872412046E-01  0.00000000000E+00 0. -1.
       22    1    1    2    0    0 -0.10826363691E-04  0.11882272032E-04  0.85480879466E-03  0.85495992536E-03  0.00000000000E+00 0. -1.
</event>
<event>
 5   0  0.4146200E+04  0.9118800E+02  0.7546771E-02  0.1180000E+00
      -11   -1    0    0    0    0  0.00000000000E+00  0.00000000000E+00  0.34996269501E-01  0.35000000000E-01  0.51099999109E-03 0.  1.
       11   -1    0    0    0    0 -0.00000000000E+00 -0.00000000000E+00 -0.34996269501E-01  0.35000000000E-01  0.51099999109E-03 0. -1.
       22    1    1    2    0    0 -0.23650334487E-02 -0.10942633576E-02 -0.45129381899E-02  0.52112768700E-02  0.00000000000E+00 0. -1.
       22    1    1    2    0    0  0.16578407696E-01  0.25904267343E-01 -0.10494920626E-01  0.32496430993E-01  0.00000000000E+00 0.  1.
       22    1    1    2    0    0 -0.14213374247E-01 -0.24810003985E-01  0.15007858816E-01  0.32292292137E-01  0.00000000000E+00 0. -1.
</event>
<event>
 5   0  0.4146200E+04  0.9118800E+02  0.7546771E-02  0.1180000E+00
      -11   -1    0    0    0    0  0.00000000000E+00  0.00000000000E+00  0.34996269501E-01  0.35000000000E-01  0.51099999109E-03 0.  1.
       11   -1    0    0    0    0 -0.00000000000E+00 -0.00000000000E+00 -0.34996269501E-01  0.35000000000E-01  0.51099999109E-03 0. -1.
       22    1    1    2    0    0  0.92707703485E-02  0.10694487211E-01 -0.31564916090E-01  0.34592819592E-01  0.00000000000E+00 0. -1.
       22    1    1    2    0    0 -0.99101976698E-02 -0.11188839223E-01  0.27870799101E-01  0.31625679179E-01  0.00000000000E+00 0.  1.
       22    1    1    2    0    0  0.63942732125E-03  0.49435201210E-03  0.36941169892E-02  0.37815012285E-02  0.00000000000E+00 0. -1.
</event>
<event>
 5   0  0.4146200E+04  0.9118800E+02  0.7546771E-02  0.1180000E+00
      -11   -1    0    0    0    0  0.00000000000E+00  0.00000000000E+00  0.34996269501E-01  0.35000000000E-01  0.51099999109E-03 0.  1.
       11   -1    0    0    0    0 -0.00000000000E+00 -0.00000000000E+00 -0.34996269501E-01  0.35000000000E-01  0.51099999109E-03 0. -1.
       22    1    1    2    0    0 -0.91378278862E-03  0.14064140652E-01  0.30735919312E-01  0.33813189545E-01  0.00000000000E+00 0.  1.
       22    1    1    2    0    0 -0.19181993151E-04  0.63014219213E-04  0.12269228382E-02  0.12286897052E-02  0.00000000000E+00 0. -1.
       22    1    1    2    0    0  0.93296478178E-03 -0.14127154872E-01 -0.31962842150E-01  0.34958120750E-01  0.00000000000E+00 0. -1.
</event>
<event>
 5   0  0.4146200E+04  0.9118800E+02  0.7546771E-02  0.1180000E+00
      -11   -1    0    0    0    0  0.00000000000E+00  0.00000000000E+00  0.34996269501E-01  0.35000000000E-01  0.51099999109E-03 0. -1.
       11   -1    0    0    0    0 -0.00000000000E+00 -0.00000000000E+00 -0.34996269501E-01  0.35000000000E-01  0.51099999109E-03 0.  1.
       22    1    1    2    0    0 -0.76875084348E-02 -0.62816975293E-02  0.33542715254E-01  0.34981012798E-01  0.00000000000E+00 0. -1.
       22    1    1    2    0    0  0.49709891074E-03  0.18753541657E-04 -0.11764824996E-02  0.12773292819E-02  0.00000000000E+00 0.  1.
       22    1    1    2    0    0  0.71904095241E-02  0.62629439876E-02 -0.32366232754E-01  0.33741657920E-01  0.00000000000E+00 0.  1.
</event>
<event>
 5   0  0.4146200E+04  0.9118800E+02  0.7546771E-02  0.1180000E+00
      -11   -1    0    0    0    0  0.00000000000E+00  0.00000000000E+00  0.34996269501E-01  0.35000000000E-01  0.51099999109E-03 0. -1.
       11   -1    0    0    0    0 -0.00000000000E+00 -0.00000000000E+00 -0.34996269501E-01  0.35000000000E-01  0.51099999109E-03 0.  1.
       22    1    1    2    0    0 -0.58275465002E-03 -0.69075716531E-03 -0.12931990048E-02  0.15776920199E-02  0.00000000000E+00 0.  1.
       22    1    1    2    0    0 -0.80551929085E-04 -0.28901080629E-02 -0.33406825088E-01  0.33531704038E-01  0.00000000000E+00 0.  1.
       22    1    1    2    0    0  0.66330657910E-03  0.35808652282E-02  0.34700024093E-01  0.34890603942E-01  0.00000000000E+00 0. -1.
</event>
<event>
 5   0  0.4146200E+04  0.9118800E+02  0.7546771E-02  0.1180000E+00
      -11   -1    0    0    0    0  0.00000000000E+00  0.00000000000E+00  0.34996269501E-01  0.35000000000E-01  0.51099999109E-03 0.  1.
       11   -1    0    0    0    0 -0.00000000000E+00 -0.00000000000E+00 -0.34996269501E-01  0.35000000000E-01  0.51099999109E-03 0. -1.
       22    1    1    2    0    0 -0.79494008060E-02 -0.38741961276E-02  0.33836462541E-01  0.34972969077E-01  0.00000000000E+00 0.  1.
       22    1    1    2    0    0  0.80611774942E-02  0.38506123534E-02 -0.33538019980E-01  0.34707471562E-01  0.00000000000E+00 0. -1.
       22    1    1    2    0    0 -0.11177668821E-03  0.23583774184E-04 -0.29844256103E-03  0.31955936016E-03  0.00000000000E+00 0. -1.
</event>
<event>
 5   0  0.4146200E+04  0.9118800E+02  0.7546771E-02  0.1180000E+00
      -11   -1    0    0    0    0  0.00000000000E+00  0.00000000000E+00  0.34996269501E-01  0.35000000000E-01  0.51099999109E-03 0.  1.
       11   -1    0    0    0    0 -0.00000000000E+00 -0.00000000000E+00 -0.34996269501E-01  0.35000000000E-01  0.51099999109E-03 0. -1.
       22    1    1    2    0    0 -0.70026491961E-03  0.94310235900E-05 -0.96806450032E-03  0.11948258361E-02  0.00000000000E+00 0.  1.
       22    1    1    2    0    0  0.23692275036E-02  0.11627115902E-02 -0.33837322198E-01  0.33940087076E-01  0.00000000000E+00 0. -1.
       22    1    1    2    0    0 -0.16689625840E-02 -0.11721426138E-02  0.34805386698E-01  0.34865087088E-01  0.00000000000E+00 0.  1.
</event>
<event>
 5   0  0.4146200E+04  0.9118800E+02  0.7546771E-02  0.1180000E+00
      -11   -1    0    0    0    0  0.00000000000E+00  0.00000000000E+00  0.34996269501E-01  0.35000000000E-01  0.51099999109E-03 0.  1.
       11   -1    0    0    0    0 -0.00000000000E+00 -0.00000000000E+00 -0.34996269501E-01  0.35000000000E-01  0.51099999109E-03 0. -1.
       22    1    1    2    0    0 -0.31722463155E-03 -0.20566988496E-03  0.34879104396E-01  0.34881153293E-01  0.00000000000E+00 0.  1.
       22    1    1    2    0    0  0.83506286965E-03 -0.30334012105E-03 -0.33837307885E-01  0.33848969705E-01  0.00000000000E+00 0. -1.
       22    1    1    2    0    0 -0.51783823810E-03  0.50901000601E-03 -0.10417965118E-02  0.12698770016E-02  0.00000000000E+00 0.  1.
</event>
<event>
 5   0  0.4146200E+04  0.9118800E+02  0.7546771E-02  0.1180000E+00
      -11   -1    0    0    0    0  0.00000000000E+00  0.00000000000E+00  0.34996269501E-01  0.35000000000E-01  0.51099999109E-03 0.  1.
       11   -1    0    0    0    0 -0.00000000000E+00 -0.00000000000E+00 -0.34996269501E-01  0.35000000000E-01  0.51099999109E-03 0. -1.
       22    1    1    2    0    0 -0.87470640529E-03  0.71338619704E-03 -0.14835573220E-02  0.18641280775E-02  0.00000000000E+00 0. -1.
       22    1    1    2    0    0  0.44842412918E-02  0.29442148060E-02  0.34402515104E-01  0.34818240425E-01  0.00000000000E+00 0.  1.
       22    1    1    2    0    0 -0.36095348865E-02 -0.36576010030E-02 -0.32918957782E-01  0.33317631498E-01  0.00000000000E+00 0. -1.
</event>
<event>
 5   0  0.4146200E+04  0.9118800E+02  0.7546771E-02  0.1180000E+00
      -11   -1    0    0    0    0  0.00000000000E+00  0.00000000000E+00  0.34996269501E-01  0.35000000000E-01  0.51099999109E-03 0.  1.
       11   -1    0    0    0    0 -0.00000000000E+00 -0.00000000000E+00 -0.34996269501E-01  0.35000000000E-01  0.51099999109E-03 0. -1.
       22    1    1    2    0    0  0.20455683719E-03 -0.10483190775E-03  0.25567137899E-02  0.25670252496E-02  0.00000000000E+00 0.  1.
       22    1    1    2    0    0  0.13647224593E-01  0.52596578103E-02 -0.31613758635E-01  0.34833037112E-01  0.00000000000E+00 0. -1.
       22    1    1    2    0    0 -0.13851781431E-01 -0.51548259025E-02  0.29057044845E-01  0.32599937639E-01  0.00000000000E+00 0.  1.
</event>
<event>
 5   0  0.4146200E+04  0.9118800E+02  0.7546771E-02  0.1180000E+00
      -11   -1    0    0    0    0  0.00000000000E+00  0.00000000000E+00  0.34996269501E-01  0.35000000000E-01  0.51099999109E-03 0. -1.
       11   -1    0    0    0    0 -0.00000000000E+00 -0.00000000000E+00 -0.34996269501E-01  0.35000000000E-01  0.51099999109E-03 0.  1.
       22    1    1    2    0    0 -0.25384270519E-02  0.27029040142E-02  0.34443223393E-01  0.34642242129E-01  0.00000000000E+00 0. -1.
       22    1    1    2    0    0  0.44913336258E-02 -0.25457591587E-02 -0.30717291533E-01  0.31148113370E-01  0.00000000000E+00 0.  1.
       22    1    1    2    0    0 -0.19529065739E-02 -0.15714485554E-03 -0.37259318605E-02  0.42096445006E-02  0.00000000000E+00 0. -1.
</event>
<event>
 5   0  0.4146200E+04  0.9118800E+02  0.7546771E-02  0.1180000E+00
      -11   -1    0    0    0    0  0.00000000000E+00  0.00000000000E+00  0.34996269501E-01  0.35000000000E-01  0.51099999109E-03 0.  1.
       11   -1    0    0    0    0 -0.00000000000E+00 -0.00000000000E+00 -0.34996269501E-01  0.35000000000E-01  0.51099999109E-03 0. -1.
       22    1    1    2    0    0 -0.99519864832E-02 -0.19359604474E-01  0.27046527463E-01  0.34718164816E-01  0.00000000000E+00 0.  1.
       22    1    1    2    0    0  0.10408252961E-01  0.19543739174E-01 -0.26660315611E-01  0.34656339955E-01  0.00000000000E+00 0. -1.
       22    1    1    2    0    0 -0.45626647762E-03 -0.18413469986E-03 -0.38621185197E-03  0.62549522852E-03  0.00000000000E+00 0.  1.
</event>
<event>
 5   0  0.4146200E+04  0.9118800E+02  0.7546771E-02  0.1180000E+00
      -11   -1    0    0    0    0  0.00000000000E+00  0.00000000000E+00  0.34996269501E-01  0.35000000000E-01  0.51099999109E-03 0.  1.
       11   -1    0    0    0    0 -0.00000000000E+00 -0.00000000000E+00 -0.34996269501E-01  0.35000000000E-01  0.51099999109E-03 0. -1.
       22    1    1    2    0    0 -0.21061758321E-01 -0.32232943230E-02  0.27660128935E-01  0.34915183267E-01  0.00000000000E+00 0.  1.
       22    1    1    2    0    0  0.21167455315E-01  0.31973648426E-02 -0.27210390861E-01  0.34622098106E-01  0.00000000000E+00 0. -1.
       22    1    1    2    0    0 -0.10569699440E-03  0.25929480480E-04 -0.44973807381E-03  0.46271862683E-03  0.00000000000E+00 0. -1.
</event>
<event>
 5   0  0.4146200E+04  0.9118800E+02  0.7546771E-02  0.1180000E+00
      -11   -1    0    0    0    0  0.00000000000E+00  0.00000000000E+00  0.34996269501E-01  0.35000000000E-01  0.51099999109E-03 0.  1.
       11   -1    0    0    0    0 -0.00000000000E+00 -0.00000000000E+00 -0.34996269501E-01  0.35000000000E-01  0.51099999109E-03 0.  1.
       22    1    1    2    0    0  0.77040356981E-03  0.21690512095E-03 -0.32614900993E-01  0.32624719712E-01  0.00000000000E+00 0.  1.
       22    1    1    2    0    0  0.15977026351E-03 -0.23692667496E-03  0.34903563731E-01  0.34904733517E-01  0.00000000000E+00 0.  1.
       22    1    1    2    0    0 -0.93017383332E-03  0.20021554010E-04 -0.22886627373E-02  0.24705467710E-02  0.00000000000E+00 0. -1.
</event>
<event>
 5   0  0.4146200E+04  0.9118800E+02  0.7546771E-02  0.1180000E+00
      -11   -1    0    0    0    0  0.00000000000E+00  0.00000000000E+00  0.34996269501E-01  0.35000000000E-01  0.51099999109E-03 0. -1.
       11   -1    0    0    0    0 -0.00000000000E+00 -0.00000000000E+00 -0.34996269501E-01  0.35000000000E-01  0.51099999109E-03 0.  1.
       22    1    1    2    0    0 -0.16004407623E-02  0.10712121406E-01 -0.27499190912E-01  0.29555311815E-01  0.00000000000E+00 0.  1.
       22    1    1    2    0    0  0.12627502924E-01 -0.94068251002E-02  0.24180196649E-01  0.28855226538E-01  0.00000000000E+00 0. -1.
       22    1    1    2    0    0 -0.11027062161E-01 -0.13052963062E-02  0.33189942626E-02  0.11589461647E-01  0.00000000000E+00 0. -1.
</event>
<event>
 5   0  0.4146200E+04  0.9118800E+02  0.7546771E-02  0.1180000E+00
      -11   -1    0    0    0    0  0.00000000000E+00  0.00000000000E+00  0.34996269501E-01  0.35000000000E-01  0.51099999109E-03 0.  1.
       11   -1    0    0    0    0 -0.00000000000E+00 -0.00000000000E+00 -0.34996269501E-01  0.35000000000E-01  0.51099999109E-03 0. -1.
       22    1    1    2    0    0  0.55106939087E-02  0.98567496915E-02 -0.29570081442E-01  0.31653008994E-01  0.00000000000E+00 0. -1.
       22    1    1    2    0    0 -0.57397933692E-02 -0.10404928587E-01  0.32891811221E-01  0.34972546550E-01  0.00000000000E+00 0.  1.
       22    1    1    2    0    0  0.22909946052E-03  0.54817889569E-03 -0.33217297785E-02  0.33744444559E-02  0.00000000000E+00 0.  1.
</event>
<event>
 5   0  0.4146200E+04  0.9118800E+02  0.7546771E-02  0.1180000E+00
      -11   -1    0    0    0    0  0.00000000000E+00  0.00000000000E+00  0.34996269501E-01  0.35000000000E-01  0.51099999109E-03 0. -1.
       11   -1    0    0    0    0 -0.00000000000E+00 -0.00000000000E+00 -0.34996269501E-01  0.35000000000E-01  0.51099999109E-03 0.  1.
       22    1    1    2    0    0  0.10165676178E-01 -0.11356433085E-01  0.31459905705E-01  0.34957620222E-01  0.00000000000E+00 0. -1.
       22    1    1    2    0    0 -0.60287129139E-03  0.37189474345E-04 -0.97526059877E-03  0.11471573939E-02  0.00000000000E+00 0.  1.
       22    1    1    2    0    0 -0.95628048870E-02  0.11319243611E-01 -0.30484645106E-01  0.33895222384E-01  0.00000000000E+00 0.  1.
</event>
<event>
 5   0  0.4146200E+04  0.9118800E+02  0.7546771E-02  0.1180000E+00
      -11   -1    0    0    0    0  0.00000000000E+00  0.00000000000E+00  0.34996269501E-01  0.35000000000E-01  0.51099999109E-03 0. -1.
       11   -1    0    0    0    0 -0.00000000000E+00 -0.00000000000E+00 -0.34996269501E-01  0.35000000000E-01  0.51099999109E-03 0.  1.
       22    1    1    2    0    0  0.12036879529E-04  0.48538946955E-04  0.71315518248E-03  0.71490644853E-03  0.00000000000E+00 0. -1.
       22    1    1    2    0    0  0.60590561834E-02  0.18215938662E-01  0.28463282696E-01  0.34332070212E-01  0.00000000000E+00 0. -1.
       22    1    1    2    0    0 -0.60710930629E-02 -0.18264477609E-01 -0.29176437879E-01  0.34953023340E-01  0.00000000000E+00 0.  1.
</event>
<event>
 5   0  0.4146200E+04  0.9118800E+02  0.7546771E-02  0.1180000E+00
      -11   -1    0    0    0    0  0.00000000000E+00  0.00000000000E+00  0.34996269501E-01  0.35000000000E-01  0.51099999109E-03 0.  1.
       11   -1    0    0    0    0 -0.00000000000E+00 -0.00000000000E+00 -0.34996269501E-01  0.35000000000E-01  0.51099999109E-03 0. -1.
       22    1    1    2    0    0  0.37364613005E-02 -0.12034109256E-01 -0.29222812301E-01  0.31823791217E-01  0.00000000000E+00 0. -1.
       22    1    1    2    0    0 -0.70489071547E-02  0.48972236064E-02  0.72672549016E-03  0.86138273180E-02  0.00000000000E+00 0. -1.
       22    1    1    2    0    0  0.33124458541E-02  0.71368856497E-02  0.28496086811E-01  0.29562381465E-01  0.00000000000E+00 0.  1.
</event>
<event>
 5   0  0.4146200E+04  0.9118800E+02  0.7546771E-02  0.1180000E+00
      -11   -1    0    0    0    0  0.00000000000E+00  0.00000000000E+00  0.34996269501E-01  0.35000000000E-01  0.51099999109E-03 0.  1.
       11   -1    0    0    0    0 -0.00000000000E+00 -0.00000000000E+00 -0.34996269501E-01  0.35000000000E-01  0.51099999109E-03 0. -1.
       22    1    1    2    0    0  0.19917275415E-01 -0.11494681711E-01 -0.25476373065E-01  0.34320127508E-01  0.00000000000E+00 0. -1.
       22    1    1    2    0    0  0.30614006990E-04  0.25032776207E-03 -0.79241989461E-03  0.83158312589E-03  0.00000000000E+00 0. -1.
       22    1    1    2    0    0 -0.19947889422E-01  0.11244353949E-01  0.26268792960E-01  0.34848289366E-01  0.00000000000E+00 0.  1.
</event>
<event>
 5   0  0.4146200E+04  0.9118800E+02  0.7546771E-02  0.1180000E+00
      -11   -1    0    0    0    0  0.00000000000E+00  0.00000000000E+00  0.34996269501E-01  0.35000000000E-01  0.51099999109E-03 0. -1.
       11   -1    0    0    0    0 -0.00000000000E+00 -0.00000000000E+00 -0.34996269501E-01  0.35000000000E-01  0.51099999109E-03 0.  1.
       22    1    1    2    0    0 -0.17776902395E-01 -0.15377512564E-01  0.18818894106E-01  0.30110412266E-01  0.00000000000E+00 0. -1.
       22    1    1    2    0    0  0.18346299789E-03 -0.63587906950E-02 -0.71999143570E-02  0.96076346997E-02  0.00000000000E+00 0. -1.
       22    1    1    2    0    0  0.17593439397E-01  0.21736303259E-01 -0.11618979749E-01  0.30281953035E-01  0.00000000000E+00 0.  1.
</event>
<event>
 5   0  0.4146200E+04  0.9118800E+02  0.7546771E-02  0.1180000E+00
      -11   -1    0    0    0    0  0.00000000000E+00  0.00000000000E+00  0.34996269501E-01  0.35000000000E-01  0.51099999109E-03 0.  1.
       11   -1    0    0    0    0 -0.00000000000E+00 -0.00000000000E+00 -0.34996269501E-01  0.35000000000E-01  0.51099999109E-03 0.  1.
       22    1    1    2    0    0  0.55171416165E-03  0.34055006689E-03  0.28896023335E-01  0.28903296135E-01  0.00000000000E+00 0.  1.
       22    1    1    2    0    0  0.87500794260E-02  0.40037598626E-02  0.81981642345E-03  0.96574366147E-02  0.00000000000E+00 0. -1.
       22    1    1    2    0    0 -0.93017935877E-02 -0.43443099294E-02 -0.29715839758E-01  0.31439267251E-01  0.00000000000E+00 0.  1.
</event>
<event>
 5   0  0.4146200E+04  0.9118800E+02  0.7546771E-02  0.1180000E+00
      -11   -1    0    0    0    0  0.00000000000E+00  0.00000000000E+00  0.34996269501E-01  0.35000000000E-01  0.51099999109E-03 0.  1.
       11   -1    0    0    0    0 -0.00000000000E+00 -0.00000000000E+00 -0.34996269501E-01  0.35000000000E-01  0.51099999109E-03 0. -1.
       22    1    1    2    0    0 -0.67005715284E-04 -0.10502038812E-03 -0.27971730948E-03  0.30620388799E-03  0.00000000000E+00 0. -1.
       22    1    1    2    0    0 -0.11772197628E-02  0.27337397050E-03 -0.34685247273E-01  0.34706295655E-01  0.00000000000E+00 0. -1.
       22    1    1    2    0    0  0.12442254781E-02 -0.16835358239E-03  0.34964964583E-01  0.34987500457E-01  0.00000000000E+00 0.  1.
</event>
<event>
 5   0  0.4146200E+04  0.9118800E+02  0.7546771E-02  0.1180000E+00
      -11   -1    0    0    0    0  0.00000000000E+00  0.00000000000E+00  0.34996269501E-01  0.35000000000E-01  0.51099999109E-03 0.  1.
       11   -1    0    0    0    0 -0.00000000000E+00 -0.00000000000E+00 -0.34996269501E-01  0.35000000000E-01  0.51099999109E-03 0. -1.
       22    1    1    2    0    0  0.61144305743E-03  0.25102254834E-02  0.34592095615E-01  0.34688444382E-01  0.00000000000E+00 0.  1.
       22    1    1    2    0    0 -0.71961444273E-03 -0.18171415967E-02 -0.23271800690E-02  0.30390155647E-02  0.00000000000E+00 0. -1.
       22    1    1    2    0    0  0.10817138530E-03 -0.69308388665E-03 -0.32264915546E-01  0.32272540054E-01  0.00000000000E+00 0. -1.
</event>
<event>
 5   0  0.4146200E+04  0.9118800E+02  0.7546771E-02  0.1180000E+00
      -11   -1    0    0    0    0  0.00000000000E+00  0.00000000000E+00  0.34996269501E-01  0.35000000000E-01  0.51099999109E-03 0. -1.
       11   -1    0    0    0    0 -0.00000000000E+00 -0.00000000000E+00 -0.34996269501E-01  0.35000000000E-01  0.51099999109E-03 0.  1.
       22    1    1    2    0    0  0.85860522599E-03  0.65252908011E-02 -0.18353936814E-01  0.19498297863E-01  0.00000000000E+00 0.  1.
       22    1    1    2    0    0 -0.26927144316E-03 -0.55782541486E-02 -0.15579347173E-01  0.16550090174E-01  0.00000000000E+00 0. -1.
       22    1    1    2    0    0 -0.58933378283E-03 -0.94703665252E-03  0.33933283987E-01  0.33951611963E-01  0.00000000000E+00 0. -1.
</event>
<event>
 5   0  0.4146200E+04  0.9118800E+02  0.7546771E-02  0.1180000E+00
      -11   -1    0    0    0    0  0.00000000000E+00  0.00000000000E+00  0.34996269501E-01  0.35000000000E-01  0.51099999109E-03 0. -1.
       11   -1    0    0    0    0 -0.00000000000E+00 -0.00000000000E+00 -0.34996269501E-01  0.35000000000E-01  0.51099999109E-03 0.  1.
       22    1    1    2    0    0 -0.48203406839E-02  0.27502337258E-03  0.34624422246E-01  0.34959432748E-01  0.00000000000E+00 0. -1.
       22    1    1    2    0    0  0.50452774557E-02 -0.35139870530E-03 -0.33968862371E-01  0.34343295073E-01  0.00000000000E+00 0.  1.
       22    1    1    2    0    0 -0.22493677182E-03  0.76375332711E-04 -0.65555987494E-03  0.69727217957E-03  0.00000000000E+00 0.  1.
</event>
<event>
 5   0  0.4146200E+04  0.9118800E+02  0.7546771E-02  0.1180000E+00
      -11   -1    0    0    0    0  0.00000000000E+00  0.00000000000E+00  0.34996269501E-01  0.35000000000E-01  0.51099999109E-03 0.  1.
       11   -1    0    0    0    0 -0.00000000000E+00 -0.00000000000E+00 -0.34996269501E-01  0.35000000000E-01  0.51099999109E-03 0. -1.
       22    1    1    2    0    0 -0.48325799839E-03 -0.46151171180E-02  0.34087636600E-01  0.34402032110E-01  0.00000000000E+00 0.  1.
       22    1    1    2    0    0 -0.27670913109E-02 -0.14998046994E-02 -0.77404825412E-02  0.83559127826E-02  0.00000000000E+00 0.  1.
       22    1    1    2    0    0  0.32503493093E-02  0.61149218174E-02 -0.26347154059E-01  0.27242055107E-01  0.00000000000E+00 0. -1.
</event>
<event>
 5   0  0.4146200E+04  0.9118800E+02  0.7546771E-02  0.1180000E+00
      -11   -1    0    0    0    0  0.00000000000E+00  0.00000000000E+00  0.34996269501E-01  0.35000000000E-01  0.51099999109E-03 0. -1.
       11   -1    0    0    0    0 -0.00000000000E+00 -0.00000000000E+00 -0.34996269501E-01  0.35000000000E-01  0.51099999109E-03 0.  1.
       22    1    1    2    0    0  0.10610886402E-01 -0.10500746440E-01  0.98280333989E-02  0.17873075464E-01  0.00000000000E+00 0. -1.
       22    1    1    2    0    0  0.11047229125E-03  0.50879614265E-02  0.19648834224E-01  0.20297197885E-01  0.00000000000E+00 0. -1.
       22    1    1    2    0    0 -0.10721358693E-01  0.54127850139E-02 -0.29476867623E-01  0.31829726651E-01  0.00000000000E+00 0.  1.
</event>
<event>
 5   0  0.4146200E+04  0.9118800E+02  0.7546771E-02  0.1180000E+00
      -11   -1    0    0    0    0  0.00000000000E+00  0.00000000000E+00  0.34996269501E-01  0.35000000000E-01  0.51099999109E-03 0. -1.
       11   -1    0    0    0    0 -0.00000000000E+00 -0.00000000000E+00 -0.34996269501E-01  0.35000000000E-01  0.51099999109E-03 0. -1.
       22    1    1    2    0    0  0.23041011767E-03 -0.52231820057E-04 -0.32219367331E-03  0.39953191170E-03  0.00000000000E+00 0. -1.
       22    1    1    2    0    0 -0.23041011767E-03  0.52231820057E-04 -0.34640502200E-01  0.34641307852E-01  0.00000000000E+00 0. -1.
       22    1    1    2    0    0  0.00000000000E+00  0.00000000000E+00  0.34962695874E-01  0.34959160236E-01  0.00000000000E+00 0. -1.
</event>
<event>
 5   0  0.4146200E+04  0.9118800E+02  0.7546771E-02  0.1180000E+00
      -11   -1    0    0    0    0  0.00000000000E+00  0.00000000000E+00  0.34996269501E-01  0.35000000000E-01  0.51099999109E-03 0. -1.
       11   -1    0    0    0    0 -0.00000000000E+00 -0.00000000000E+00 -0.34996269501E-01  0.35000000000E-01  0.51099999109E-03 0.  1.
       22    1    1    2    0    0  0.14823554366E-01 -0.16363611091E-01  0.26062013507E-01  0.34157489369E-01  0.00000000000E+00 0. -1.
       22    1    1    2    0    0 -0.15867267963E-01  0.16569532329E-01 -0.26135431710E-01  0.34776146780E-01  0.00000000000E+00 0.  1.
       22    1    1    2    0    0  0.10437135973E-02 -0.20592123745E-03  0.73418203234E-04  0.10663638505E-02  0.00000000000E+00 0.  1.
</event>
<event>
 5   0  0.4146200E+04  0.9118800E+02  0.7546771E-02  0.1180000E+00
      -11   -1    0    0    0    0  0.00000000000E+00  0.00000000000E+00  0.34996269501E-01  0.35000000000E-01  0.51099999109E-03 0.  1.
       11   -1    0    0    0    0 -0.00000000000E+00 -0.00000000000E+00 -0.34996269501E-01  0.35000000000E-01  0.51099999109E-03 0. -1.
       22    1    1    2    0    0  0.74973433696E-02 -0.73357745793E-02 -0.27276723372E-01  0.29224020672E-01  0.00000000000E+00 0. -1.
       22    1    1    2    0    0 -0.29672796930E-02 -0.97942490052E-02  0.18170099692E-01  0.20853886573E-01  0.00000000000E+00 0.  1.
       22    1    1    2    0    0 -0.45300636766E-02  0.17130023585E-01  0.91066236799E-02  0.19922092756E-01  0.00000000000E+00 0. -1.
</event>
<event>
 5   0  0.4146200E+04  0.9118800E+02  0.7546771E-02  0.1180000E+00
      -11   -1    0    0    0    0  0.00000000000E+00  0.00000000000E+00  0.34996269501E-01  0.35000000000E-01  0.51099999109E-03 0. -1.
       11   -1    0    0    0    0 -0.00000000000E+00 -0.00000000000E+00 -0.34996269501E-01  0.35000000000E-01  0.51099999109E-03 0.  1.
       22    1    1    2    0    0 -0.00000000000E+00 -0.00000000000E+00  0.34918991185E-01  0.34918945652E-01  0.00000000000E+00 0. -1.
       22    1    1    2    0    0 -0.23713270897E-03  0.40738478437E-03 -0.34298905858E-01  0.34302144792E-01  0.00000000000E+00 0.  1.
       22    1    1    2    0    0  0.23713270897E-03 -0.40738478437E-03 -0.62008532711E-03  0.77890955643E-03  0.00000000000E+00 0. -1.
</event>
<event>
 5   0  0.4146200E+04  0.9118800E+02  0.7546771E-02  0.1180000E+00
      -11   -1    0    0    0    0  0.00000000000E+00  0.00000000000E+00  0.34996269501E-01  0.35000000000E-01  0.51099999109E-03 0. -1.
       11   -1    0    0    0    0 -0.00000000000E+00 -0.00000000000E+00 -0.34996269501E-01  0.35000000000E-01  0.51099999109E-03 0.  1.
       22    1    1    2    0    0 -0.15374841316E-01  0.14395253061E-01  0.19837413105E-01  0.28933233744E-01  0.00000000000E+00 0. -1.
       22    1    1    2    0    0 -0.66379089040E-03 -0.31007819286E-02  0.70812574520E-02  0.77588448893E-02  0.00000000000E+00 0. -1.
       22    1    1    2    0    0  0.16038632206E-01 -0.11294471132E-01 -0.26918670557E-01  0.33307921367E-01  0.00000000000E+00 0.  1.
</event>
<event>
 5   0  0.4146200E+04  0.9118800E+02  0.7546771E-02  0.1180000E+00
      -11   -1    0    0    0    0  0.00000000000E+00  0.00000000000E+00  0.34996269501E-01  0.35000000000E-01  0.51099999109E-03 0. -1.
       11   -1    0    0    0    0 -0.00000000000E+00 -0.00000000000E+00 -0.34996269501E-01  0.35000000000E-01  0.51099999109E-03 0.  1.
       22    1    1    2    0    0  0.17848165578E-01 -0.99870351921E-02 -0.28280357865E-01  0.34900953102E-01  0.00000000000E+00 0.  1.
       22    1    1    2    0    0  0.16462851429E-03 -0.24095585240E-04  0.36424600149E-03  0.40044761773E-03  0.00000000000E+00 0.  1.
       22    1    1    2    0    0 -0.18012794092E-01  0.10011130777E-01  0.27916111864E-01  0.34698599281E-01  0.00000000000E+00 0. -1.
</event>
<event>
 5   0  0.4146200E+04  0.9118800E+02  0.7546771E-02  0.1180000E+00
      -11   -1    0    0    0    0  0.00000000000E+00  0.00000000000E+00  0.34996269501E-01  0.35000000000E-01  0.51099999109E-03 0.  1.
       11   -1    0    0    0    0 -0.00000000000E+00 -0.00000000000E+00 -0.34996269501E-01  0.35000000000E-01  0.51099999109E-03 0. -1.
       22    1    1    2    0    0 -0.19341616917E-01 -0.93740720818E-04  0.14637752836E-01  0.24256354640E-01  0.00000000000E+00 0.  1.
       22    1    1    2    0    0  0.22555027107E-01  0.32899364804E-02 -0.25362830922E-01  0.34100236395E-01  0.00000000000E+00 0. -1.
       22    1    1    2    0    0 -0.32134101891E-02 -0.31961957596E-02  0.10725078086E-01  0.11643408965E-01  0.00000000000E+00 0.  1.
</event>
<event>
 5   0  0.4146200E+04  0.9118800E+02  0.7546771E-02  0.1180000E+00
      -11   -1    0    0    0    0  0.00000000000E+00  0.00000000000E+00  0.34996269501E-01  0.35000000000E-01  0.51099999109E-03 0.  1.
       11   -1    0    0    0    0 -0.00000000000E+00 -0.00000000000E+00 -0.34996269501E-01  0.35000000000E-01  0.51099999109E-03 0. -1.
       22    1    1    2    0    0  0.88845217530E-02  0.17051816930E-01 -0.27107413964E-01  0.33234185400E-01  0.00000000000E+00 0. -1.
       22    1    1    2    0    0  0.17586014484E-03  0.11829985653E-03 -0.18722664157E-02  0.18842248215E-02  0.00000000000E+00 0.  1.
       22    1    1    2    0    0 -0.90603818978E-02 -0.17170116786E-01  0.28979680380E-01  0.34881589779E-01  0.00000000000E+00 0.  1.
</event>
<event>
 5   0  0.4146200E+04  0.9118800E+02  0.7546771E-02  0.1180000E+00
      -11   -1    0    0    0    0  0.00000000000E+00  0.00000000000E+00  0.34996269501E-01  0.35000000000E-01  0.51099999109E-03 0.  1.
       11   -1    0    0    0    0 -0.00000000000E+00 -0.00000000000E+00 -0.34996269501E-01  0.35000000000E-01  0.51099999109E-03 0. -1.
       22    1    1    2    0    0  0.12947380504E-03 -0.32819775418E-04 -0.27800539229E-02  0.27832607528E-02  0.00000000000E+00 0. -1.
       22    1    1    2    0    0  0.52942691135E-02  0.21499618644E-01  0.26657221637E-01  0.34653576333E-01  0.00000000000E+00 0.  1.
       22    1    1    2    0    0 -0.54237429185E-02 -0.21466798869E-01 -0.23877167714E-01  0.32563162914E-01  0.00000000000E+00 0. -1.
</event>
<event>
 5   0  0.4146200E+04  0.9118800E+02  0.7546771E-02  0.1180000E+00
      -11   -1    0    0    0    0  0.00000000000E+00  0.00000000000E+00  0.34996269501E-01  0.35000000000E-01  0.51099999109E-03 0.  1.
       11   -1    0    0    0    0 -0.00000000000E+00 -0.00000000000E+00 -0.34996269501E-01  0.35000000000E-01  0.51099999109E-03 0. -1.
       22    1    1    2    0    0 -0.22996883867E-02 -0.21142351061E-03  0.18657044321E-01  0.18799430028E-01  0.00000000000E+00 0. -1.
       22    1    1    2    0    0 -0.52057934945E-02  0.15793655767E-01 -0.27222703017E-01  0.31900084764E-01  0.00000000000E+00 0. -1.
       22    1    1    2    0    0  0.75054818812E-02 -0.15582232257E-01  0.85656586960E-02  0.19300485208E-01  0.00000000000E+00 0.  1.
</event>
<event>
 5   0  0.4146200E+04  0.9118800E+02  0.7546771E-02  0.1180000E+00
      -11   -1    0    0    0    0  0.00000000000E+00  0.00000000000E+00  0.34996269501E-01  0.35000000000E-01  0.51099999109E-03 0.  1.
       11   -1    0    0    0    0 -0.00000000000E+00 -0.00000000000E+00 -0.34996269501E-01  0.35000000000E-01  0.51099999109E-03 0. -1.
       22    1    1    2    0    0  0.59653994587E-02 -0.85496459292E-02  0.33021332953E-01  0.34627891449E-01  0.00000000000E+00 0.  1.
       22    1    1    2    0    0 -0.62397509051E-02  0.91276438012E-02 -0.25128828007E-01  0.27453713223E-01  0.00000000000E+00 0. -1.
       22    1    1    2    0    0  0.27435144632E-03 -0.57799787200E-03 -0.78925049460E-02  0.79183953285E-02  0.00000000000E+00 0. -1.
</event>
<event>
 5   0  0.4146200E+04  0.9118800E+02  0.7546771E-02  0.1180000E+00
      -11   -1    0    0    0    0  0.00000000000E+00  0.00000000000E+00  0.34996269501E-01  0.35000000000E-01  0.51099999109E-03 0. -1.
       11   -1    0    0    0    0 -0.00000000000E+00 -0.00000000000E+00 -0.34996269501E-01  0.35000000000E-01  0.51099999109E-03 0.  1.
       22    1    1    2    0    0  0.50738326960E-03 -0.54524028088E-02 -0.34124636943E-02  0.64522122281E-02  0.00000000000E+00 0.  1.
       22    1    1    2    0    0 -0.17101982511E-01  0.22153912195E-03  0.28368198615E-01  0.33125240799E-01  0.00000000000E+00 0. -1.
       22    1    1    2    0    0  0.16594599241E-01  0.52308636869E-02 -0.24955734920E-01  0.30422546973E-01  0.00000000000E+00 0.  1.
</event>
<event>
 5   0  0.4146200E+04  0.9118800E+02  0.7546771E-02  0.1180000E+00
      -11   -1    0    0    0    0  0.00000000000E+00  0.00000000000E+00  0.34996269501E-01  0.35000000000E-01  0.51099999109E-03 0. -1.
       11   -1    0    0    0    0 -0.00000000000E+00 -0.00000000000E+00 -0.34996269501E-01  0.35000000000E-01  0.51099999109E-03 0.  1.
       22    1    1    2    0    0  0.15863597785E-02 -0.30556229564E-01 -0.16274942199E-01  0.34656506548E-01  0.00000000000E+00 0.  1.
       22    1    1    2    0    0 -0.16025383854E-02  0.30787503527E-01  0.16544473256E-01  0.34987970761E-01  0.00000000000E+00 0. -1.
       22    1    1    2    0    0  0.16178606890E-04 -0.23127396275E-03 -0.26953105698E-03  0.35552269104E-03  0.00000000000E+00 0.  1.
</event>
<event>
 5   0  0.4146200E+04  0.9118800E+02  0.7546771E-02  0.1180000E+00
      -11   -1    0    0    0    0  0.00000000000E+00  0.00000000000E+00  0.34996269501E-01  0.35000000000E-01  0.51099999109E-03 0.  1.
       11   -1    0    0    0    0 -0.00000000000E+00 -0.00000000000E+00 -0.34996269501E-01  0.35000000000E-01  0.51099999109E-03 0. -1.
       22    1    1    2    0    0 -0.12193684552E-01 -0.55318425529E-02  0.32025287150E-01  0.34711759420E-01  0.00000000000E+00 0.  1.
       22    1    1    2    0    0  0.65623221210E-05  0.55454229483E-05  0.30132449110E-03  0.30144695176E-03  0.00000000000E+00 0.  1.
       22    1    1    2    0    0  0.12187122230E-01  0.55262971300E-02 -0.32326611641E-01  0.34986793628E-01  0.00000000000E+00 0. -1.
</event>
<event>
 5   0  0.4146200E+04  0.9118800E+02  0.7546771E-02  0.1180000E+00
      -11   -1    0    0    0    0  0.00000000000E+00  0.00000000000E+00  0.34996269501E-01  0.35000000000E-01  0.51099999109E-03 0.  1.
       11   -1    0    0    0    0 -0.00000000000E+00 -0.00000000000E+00 -0.34996269501E-01  0.35000000000E-01  0.51099999109E-03 0. -1.
       22    1    1    2    0    0 -0.26374621022E-03  0.30721657510E-02 -0.32149370307E-01  0.32296900402E-01  0.00000000000E+00 0. -1.
       22    1    1    2    0    0 -0.12095082847E-03 -0.18407610771E-02 -0.24571401312E-02  0.30725507433E-02  0.00000000000E+00 0. -1.
       22    1    1    2    0    0  0.38469703869E-03 -0.12314046739E-02  0.34606510438E-01  0.34630548855E-01  0.00000000000E+00 0.  1.
</event>
<event>
 5   0  0.4146200E+04  0.9118800E+02  0.7546771E-02  0.1180000E+00
      -11   -1    0    0    0    0  0.00000000000E+00  0.00000000000E+00  0.34996269501E-01  0.35000000000E-01  0.51099999109E-03 0. -1.
       11   -1    0    0    0    0 -0.00000000000E+00 -0.00000000000E+00 -0.34996269501E-01  0.35000000000E-01  0.51099999109E-03 0.  1.
       22    1    1    2    0    0  0.45128759770E-02 -0.15338357276E-01 -0.20700178676E-01  0.26155853088E-01  0.00000000000E+00 0.  1.
       22    1    1    2    0    0  0.34101720383E-02  0.39381087346E-02  0.27777091979E-01  0.28261366077E-01  0.00000000000E+00 0. -1.
       22    1    1    2    0    0 -0.79230480154E-02  0.11400248542E-01 -0.70769133027E-02  0.15582780835E-01  0.00000000000E+00 0. -1.
</event>
<event>
 5   0  0.4146200E+04  0.9118800E+02  0.7546771E-02  0.1180000E+00
      -11   -1    0    0    0    0  0.00000000000E+00  0.00000000000E+00  0.34996269501E-01  0.35000000000E-01  0.51099999109E-03 0. -1.
       11   -1    0    0    0    0 -0.00000000000E+00 -0.00000000000E+00 -0.34996269501E-01  0.35000000000E-01  0.51099999109E-03 0.  1.
       22    1    1    2    0    0 -0.21151762486E-02 -0.87287327636E-03 -0.24105542134E-01  0.24213901790E-01  0.00000000000E+00 0.  1.
       22    1    1    2    0    0  0.84990318438E-02 -0.30620206133E-02  0.32964124739E-01  0.34179570394E-01  0.00000000000E+00 0. -1.
       22    1    1    2    0    0 -0.63838555952E-02  0.39348938897E-02 -0.88585826043E-02  0.11606527816E-01  0.00000000000E+00 0.  1.
</event>
<event>
 5   0  0.4146200E+04  0.9118800E+02  0.7546771E-02  0.1180000E+00
      -11   -1    0    0    0    0  0.00000000000E+00  0.00000000000E+00  0.34996269501E-01  0.35000000000E-01  0.51099999109E-03 0. -1.
       11   -1    0    0    0    0 -0.00000000000E+00 -0.00000000000E+00 -0.34996269501E-01  0.35000000000E-01  0.51099999109E-03 0.  1.
       22    1    1    2    0    0  0.11920996161E-01  0.66851509589E-02 -0.30536687914E-01  0.33455802211E-01  0.00000000000E+00 0.  1.
       22    1    1    2    0    0 -0.34693284584E-02 -0.81185406952E-04  0.23411776670E-01  0.23667575242E-01  0.00000000000E+00 0. -1.
       22    1    1    2    0    0 -0.84516677022E-02 -0.66039655520E-02  0.71249112449E-02  0.12876622547E-01  0.00000000000E+00 0. -1.
</event>
<event>
 5   0  0.4146200E+04  0.9118800E+02  0.7546771E-02  0.1180000E+00
      -11   -1    0    0    0    0  0.00000000000E+00  0.00000000000E+00  0.34996269501E-01  0.35000000000E-01  0.51099999109E-03 0. -1.
       11   -1    0    0    0    0 -0.00000000000E+00 -0.00000000000E+00 -0.34996269501E-01  0.35000000000E-01  0.51099999109E-03 0.  1.
       22    1    1    2    0    0 -0.16525669337E-02  0.96734550234E-03  0.34640803267E-01  0.34693687982E-01  0.00000000000E+00 0. -1.
       22    1    1    2    0    0 -0.11083138169E-02 -0.49984485201E-03 -0.28833868691E-01  0.28859490434E-01  0.00000000000E+00 0.  1.
       22    1    1    2    0    0  0.27608807506E-02 -0.46750065033E-03 -0.58069345757E-02  0.64468215846E-02  0.00000000000E+00 0.  1.
</event>
<event>
 5   0  0.4146200E+04  0.9118800E+02  0.7546771E-02  0.1180000E+00
      -11   -1    0    0    0    0  0.00000000000E+00  0.00000000000E+00  0.34996269501E-01  0.35000000000E-01  0.51099999109E-03 0.  1.
       11   -1    0    0    0    0 -0.00000000000E+00 -0.00000000000E+00 -0.34996269501E-01  0.35000000000E-01  0.51099999109E-03 0. -1.
       22    1    1    2    0    0 -0.95838919171E-02 -0.14565514960E-01  0.29841734286E-01  0.34562035755E-01  0.00000000000E+00 0.  1.
       22    1    1    2    0    0 -0.25636758647E-03 -0.37605715306E-03  0.18016462173E-03  0.48949219880E-03  0.00000000000E+00 0.  1.
       22    1    1    2    0    0  0.98402595035E-02  0.14941572113E-01 -0.30021898908E-01  0.34948472046E-01  0.00000000000E+00 0. -1.
</event>
<event>
 5   0  0.4146200E+04  0.9118800E+02  0.7546771E-02  0.1180000E+00
      -11   -1    0    0    0    0  0.00000000000E+00  0.00000000000E+00  0.34996269501E-01  0.35000000000E-01  0.51099999109E-03 0. -1.
       11   -1    0    0    0    0 -0.00000000000E+00 -0.00000000000E+00 -0.34996269501E-01  0.35000000000E-01  0.51099999109E-03 0.  1.
       22    1    1    2    0    0  0.47623670867E-03  0.46671967472E-04 -0.36360595030E-02  0.36674116737E-02  0.00000000000E+00 0.  1.
       22    1    1    2    0    0  0.16701911928E-01 -0.11036491892E-01  0.28088642226E-01  0.34492460588E-01  0.00000000000E+00 0. -1.
       22    1    1    2    0    0 -0.17178148637E-01  0.10989819924E-01 -0.24452582723E-01  0.31840127738E-01  0.00000000000E+00 0.  1.
</event>
<event>
 5   0  0.4146200E+04  0.9118800E+02  0.7546771E-02  0.1180000E+00
      -11   -1    0    0    0    0  0.00000000000E+00  0.00000000000E+00  0.34996269501E-01  0.35000000000E-01  0.51099999109E-03 0.  1.
       11   -1    0    0    0    0 -0.00000000000E+00 -0.00000000000E+00 -0.34996269501E-01  0.35000000000E-01  0.51099999109E-03 0. -1.
       22    1    1    2    0    0  0.91340921038E-05  0.96027972157E-05  0.11585033626E-02  0.11585791671E-02  0.00000000000E+00 0.  1.
       22    1    1    2    0    0 -0.26591647132E-03  0.17196746548E-01  0.29232528625E-01  0.33916655690E-01  0.00000000000E+00 0.  1.
       22    1    1    2    0    0  0.25678237921E-03 -0.17206349346E-01 -0.30391031987E-01  0.34924765142E-01  0.00000000000E+00 0. -1.
</event>
<event>
 5   0  0.4146200E+04  0.9118800E+02  0.7546771E-02  0.1180000E+00
      -11   -1    0    0    0    0  0.00000000000E+00  0.00000000000E+00  0.34996269501E-01  0.35000000000E-01  0.51099999109E-03 0.  1.
       11   -1    0    0    0    0 -0.00000000000E+00 -0.00000000000E+00 -0.34996269501E-01  0.35000000000E-01  0.51099999109E-03 0. -1.
       22    1    1    2    0    0 -0.77895976430E-03 -0.67577583138E-03 -0.25164456948E-02  0.27195496362E-02  0.00000000000E+00 0. -1.
       22    1    1    2    0    0 -0.83104579228E-02 -0.16864326620E-02 -0.31173377954E-01  0.32306148936E-01  0.00000000000E+00 0. -1.
       22    1    1    2    0    0  0.90894176871E-02  0.23622084933E-02  0.33689823649E-01  0.34974301428E-01  0.00000000000E+00 0.  1.
</event>
<event>
 5   0  0.4146200E+04  0.9118800E+02  0.7546771E-02  0.1180000E+00
      -11   -1    0    0    0    0  0.00000000000E+00  0.00000000000E+00  0.34996269501E-01  0.35000000000E-01  0.51099999109E-03 0.  1.
       11   -1    0    0    0    0 -0.00000000000E+00 -0.00000000000E+00 -0.34996269501E-01  0.35000000000E-01  0.51099999109E-03 0. -1.
       22    1    1    2    0    0 -0.55854706585E-03  0.13385225731E-01  0.19115489919E-01  0.23342626192E-01  0.00000000000E+00 0.  1.
       22    1    1    2    0    0  0.12811408821E-02 -0.14442985311E-01 -0.31252848916E-01  0.34452600947E-01  0.00000000000E+00 0. -1.
       22    1    1    2    0    0 -0.72259381621E-03  0.10577595792E-02  0.12137358997E-01  0.12204772860E-01  0.00000000000E+00 0.  1.
</event>
<event>
 5   0  0.4146200E+04  0.9118800E+02  0.7546771E-02  0.1180000E+00
      -11   -1    0    0    0    0  0.00000000000E+00  0.00000000000E+00  0.34996269501E-01  0.35000000000E-01  0.51099999109E-03 0.  1.
       11   -1    0    0    0    0 -0.00000000000E+00 -0.00000000000E+00 -0.34996269501E-01  0.35000000000E-01  0.51099999109E-03 0. -1.
       22    1    1    2    0    0 -0.16043374998E-01 -0.12179235823E-01 -0.27900884235E-01  0.34411960241E-01  0.00000000000E+00 0. -1.
       22    1    1    2    0    0  0.92308891940E-02  0.93899725143E-02  0.11014403049E-01  0.17166769459E-01  0.00000000000E+00 0.  1.
       22    1    1    2    0    0  0.68124858038E-02  0.27892633083E-02  0.16886481186E-01  0.18421270300E-01  0.00000000000E+00 0.  1.
</event>
<event>
 5   0  0.4146200E+04  0.9118800E+02  0.7546771E-02  0.1180000E+00
      -11   -1    0    0    0    0  0.00000000000E+00  0.00000000000E+00  0.34996269501E-01  0.35000000000E-01  0.51099999109E-03 0.  1.
       11   -1    0    0    0    0 -0.00000000000E+00 -0.00000000000E+00 -0.34996269501E-01  0.35000000000E-01  0.51099999109E-03 0. -1.
       22    1    1    2    0    0 -0.13338909707E-02 -0.49596031500E-02 -0.62516523267E-02  0.80907407164E-02  0.00000000000E+00 0.  1.
       22    1    1    2    0    0  0.26835490862E-02 -0.52752381159E-02  0.32849403788E-01  0.33378329828E-01  0.00000000000E+00 0.  1.
       22    1    1    2    0    0 -0.13496581155E-02  0.10234841266E-01 -0.26597751462E-01  0.28530929455E-01  0.00000000000E+00 0. -1.
</event>
<event>
 5   0  0.4146200E+04  0.9118800E+02  0.7546771E-02  0.1180000E+00
      -11   -1    0    0    0    0  0.00000000000E+00  0.00000000000E+00  0.34996269501E-01  0.35000000000E-01  0.51099999109E-03 0.  1.
       11   -1    0    0    0    0 -0.00000000000E+00 -0.00000000000E+00 -0.34996269501E-01  0.35000000000E-01  0.51099999109E-03 0.  1.
       22    1    1    2    0    0 -0.00000000000E+00  0.00000000000E+00  0.32482726899E-01  0.32480033639E-01  0.00000000000E+00 0.  1.
       22    1    1    2    0    0 -0.87877909870E-02 -0.23483244074E-02 -0.11591765648E-01  0.14734616683E-01  0.00000000000E+00 0. -1.
       22    1    1    2    0    0  0.87877909870E-02  0.23483244074E-02 -0.20890961251E-01  0.22785349678E-01  0.00000000000E+00 0.  1.
</event>
<event>
 5   0  0.4146200E+04  0.9118800E+02  0.7546771E-02  0.1180000E+00
      -11   -1    0    0    0    0  0.00000000000E+00  0.00000000000E+00  0.34996269501E-01  0.35000000000E-01  0.51099999109E-03 0. -1.
       11   -1    0    0    0    0 -0.00000000000E+00 -0.00000000000E+00 -0.34996269501E-01  0.35000000000E-01  0.51099999109E-03 0.  1.
       22    1    1    2    0    0  0.12753476200E-02 -0.11582253989E-02  0.22947892376E-02  0.28695043599E-02  0.00000000000E+00 0. -1.
       22    1    1    2    0    0 -0.69919922177E-02  0.12008106191E-01 -0.32057869952E-01  0.34939799589E-01  0.00000000000E+00 0.  1.
       22    1    1    2    0    0  0.57166445976E-02 -0.10849880792E-01  0.29763080714E-01  0.32190696051E-01  0.00000000000E+00 0. -1.
</event>
<event>
 5   0  0.4146200E+04  0.9118800E+02  0.7546771E-02  0.1180000E+00
      -11   -1    0    0    0    0  0.00000000000E+00  0.00000000000E+00  0.34996269501E-01  0.35000000000E-01  0.51099999109E-03 0. -1.
       11   -1    0    0    0    0 -0.00000000000E+00 -0.00000000000E+00 -0.34996269501E-01  0.35000000000E-01  0.51099999109E-03 0.  1.
       22    1    1    2    0    0  0.57573105137E-02 -0.80845929234E-03 -0.67006789280E-02  0.88712642207E-02  0.00000000000E+00 0.  1.
       22    1    1    2    0    0  0.61189875764E-03  0.29767244295E-01 -0.30169732543E-02  0.29925998407E-01  0.00000000000E+00 0.  1.
       22    1    1    2    0    0 -0.63692092713E-02 -0.28958785003E-01  0.97176521823E-02  0.31202737372E-01  0.00000000000E+00 0. -1.
</event>
<event>
 5   0  0.4146200E+04  0.9118800E+02  0.7546771E-02  0.1180000E+00
      -11   -1    0    0    0    0  0.00000000000E+00  0.00000000000E+00  0.34996269501E-01  0.35000000000E-01  0.51099999109E-03 0. -1.
       11   -1    0    0    0    0 -0.00000000000E+00 -0.00000000000E+00 -0.34996269501E-01  0.35000000000E-01  0.51099999109E-03 0.  1.
       22    1    1    2    0    0  0.32289957847E-02 -0.11459576132E-01 -0.32568576393E-01  0.34676511750E-01  0.00000000000E+00 0.  1.
       22    1    1    2    0    0 -0.10530680939E-02  0.13864076840E-02  0.78289607629E-03  0.19089276945E-02  0.00000000000E+00 0.  1.
       22    1    1    2    0    0 -0.21759276909E-02  0.10073168448E-01  0.31785680317E-01  0.33414560555E-01  0.00000000000E+00 0. -1.
</event>
<event>
 5   0  0.4146200E+04  0.9118800E+02  0.7546771E-02  0.1180000E+00
      -11   -1    0    0    0    0  0.00000000000E+00  0.00000000000E+00  0.34996269501E-01  0.35000000000E-01  0.51099999109E-03 0. -1.
       11   -1    0    0    0    0 -0.00000000000E+00 -0.00000000000E+00 -0.34996269501E-01  0.35000000000E-01  0.51099999109E-03 0.  1.
       22    1    1    2    0    0  0.14735318140E-02 -0.31889855304E-02  0.34714727223E-01  0.34892022167E-01  0.00000000000E+00 0. -1.
       22    1    1    2    0    0  0.68933809327E-03 -0.23975245839E-03 -0.17670827541E-02  0.19118707351E-02  0.00000000000E+00 0.  1.
       22    1    1    2    0    0 -0.21628699073E-02  0.34287379888E-02 -0.32947644469E-01  0.33196107098E-01  0.00000000000E+00 0.  1.
</event>
<event>
 5   0  0.4146200E+04  0.9118800E+02  0.7546771E-02  0.1180000E+00
      -11   -1    0    0    0    0  0.00000000000E+00  0.00000000000E+00  0.34996269501E-01  0.35000000000E-01  0.51099999109E-03 0. -1.
       11   -1    0    0    0    0 -0.00000000000E+00 -0.00000000000E+00 -0.34996269501E-01  0.35000000000E-01  0.51099999109E-03 0.  1.
       22    1    1    2    0    0 -0.97565927587E-02 -0.81824474579E-02  0.28026502129E-01  0.30783573059E-01  0.00000000000E+00 0. -1.
       22    1    1    2    0    0  0.98436761154E-02  0.79801302118E-02 -0.32424578447E-01  0.34812838510E-01  0.00000000000E+00 0.  1.
       22    1    1    2    0    0 -0.87083356685E-04  0.20231724609E-03  0.43980763175E-02  0.44035884314E-02  0.00000000000E+00 0.  1.
</event>
<event>
 5   0  0.4146200E+04  0.9118800E+02  0.7546771E-02  0.1180000E+00
      -11   -1    0    0    0    0  0.00000000000E+00  0.00000000000E+00  0.34996269501E-01  0.35000000000E-01  0.51099999109E-03 0. -1.
       11   -1    0    0    0    0 -0.00000000000E+00 -0.00000000000E+00 -0.34996269501E-01  0.35000000000E-01  0.51099999109E-03 0.  1.
       22    1    1    2    0    0  0.18545764511E-01 -0.81607596433E-02  0.27730288442E-01  0.34344028249E-01  0.00000000000E+00 0. -1.
       22    1    1    2    0    0 -0.15627854396E-03  0.22377659446E-03  0.77262828542E-03  0.81942261072E-03  0.00000000000E+00 0. -1.
       22    1    1    2    0    0 -0.18389485967E-01  0.79369830489E-02 -0.28502916727E-01  0.34836549141E-01  0.00000000000E+00 0.  1.
</event>
<event>
 5   0  0.4146200E+04  0.9118800E+02  0.7546771E-02  0.1180000E+00
      -11   -1    0    0    0    0  0.00000000000E+00  0.00000000000E+00  0.34996269501E-01  0.35000000000E-01  0.51099999109E-03 0. -1.
       11   -1    0    0    0    0 -0.00000000000E+00 -0.00000000000E+00 -0.34996269501E-01  0.35000000000E-01  0.51099999109E-03 0.  1.
       22    1    1    2    0    0 -0.16005168351E-01 -0.20284625041E-02 -0.29954794795E-01  0.34023077540E-01  0.00000000000E+00 0.  1.
       22    1    1    2    0    0  0.14636162085E-01  0.12206150043E-02  0.15198710894E-01  0.21135466742E-01  0.00000000000E+00 0. -1.
       22    1    1    2    0    0  0.13690062659E-02  0.80784749978E-03  0.14756083901E-01  0.14841455718E-01  0.00000000000E+00 0. -1.
</event>
<event>
 5   0  0.4146200E+04  0.9118800E+02  0.7546771E-02  0.1180000E+00
      -11   -1    0    0    0    0  0.00000000000E+00  0.00000000000E+00  0.34996269501E-01  0.35000000000E-01  0.51099999109E-03 0.  1.
       11   -1    0    0    0    0 -0.00000000000E+00 -0.00000000000E+00 -0.34996269501E-01  0.35000000000E-01  0.51099999109E-03 0. -1.
       22    1    1    2    0    0  0.10160203613E-01 -0.33479828963E-03 -0.18796037963E-01  0.21368969803E-01  0.00000000000E+00 0. -1.
       22    1    1    2    0    0  0.62161513397E-02 -0.10214288691E-01 -0.88041924429E-02  0.14848772189E-01  0.00000000000E+00 0. -1.
       22    1    1    2    0    0 -0.16376354953E-01  0.10549086981E-01  0.27600230406E-01  0.33782258008E-01  0.00000000000E+00 0.  1.
</event>
<event>
 5   0  0.4146200E+04  0.9118800E+02  0.7546771E-02  0.1180000E+00
      -11   -1    0    0    0    0  0.00000000000E+00  0.00000000000E+00  0.34996269501E-01  0.35000000000E-01  0.51099999109E-03 0.  1.
       11   -1    0    0    0    0 -0.00000000000E+00 -0.00000000000E+00 -0.34996269501E-01  0.35000000000E-01  0.51099999109E-03 0. -1.
       22    1    1    2    0    0  0.84846843698E-02  0.25746984393E-02  0.33473076200E-01  0.34627529095E-01  0.00000000000E+00 0.  1.
       22    1    1    2    0    0  0.49161350131E-03  0.73421765065E-03 -0.97949456670E-02  0.98347201288E-02  0.00000000000E+00 0.  1.
       22    1    1    2    0    0 -0.89762978711E-02 -0.33089160900E-02 -0.23678130533E-01  0.25537750776E-01  0.00000000000E+00 0. -1.
</event>
<event>
 5   0  0.4146200E+04  0.9118800E+02  0.7546771E-02  0.1180000E+00
      -11   -1    0    0    0    0  0.00000000000E+00  0.00000000000E+00  0.34996269501E-01  0.35000000000E-01  0.51099999109E-03 0.  1.
       11   -1    0    0    0    0 -0.00000000000E+00 -0.00000000000E+00 -0.34996269501E-01  0.35000000000E-01  0.51099999109E-03 0. -1.
       22    1    1    2    0    0  0.12862668147E-01  0.10934072312E-02 -0.26576249790E-01  0.29545571988E-01  0.00000000000E+00 0. -1.
       22    1    1    2    0    0 -0.11345172962E-01 -0.13669451830E-02  0.32438693736E-01  0.34392591353E-01  0.00000000000E+00 0.  1.
       22    1    1    2    0    0 -0.15174951851E-02  0.27353795178E-03 -0.58624439467E-02  0.60618366587E-02  0.00000000000E+00 0. -1.
</event>
<event>
 5   0  0.4146200E+04  0.9118800E+02  0.7546771E-02  0.1180000E+00
      -11   -1    0    0    0    0  0.00000000000E+00  0.00000000000E+00  0.34996269501E-01  0.35000000000E-01  0.51099999109E-03 0. -1.
       11   -1    0    0    0    0 -0.00000000000E+00 -0.00000000000E+00 -0.34996269501E-01  0.35000000000E-01  0.51099999109E-03 0.  1.
       22    1    1    2    0    0  0.18473076855E-01  0.15765841478E-01 -0.25050242075E-01  0.34890270191E-01  0.00000000000E+00 0.  1.
       22    1    1    2    0    0 -0.26916709459E-05 -0.28808247710E-04  0.81186044418E-03  0.81237586193E-03  0.00000000000E+00 0. -1.
       22    1    1    2    0    0 -0.18470385184E-01 -0.15737033230E-01  0.24238381630E-01  0.34297353947E-01  0.00000000000E+00 0. -1.
</event>
<event>
 5   0  0.4146200E+04  0.9118800E+02  0.7546771E-02  0.1180000E+00
      -11   -1    0    0    0    0  0.00000000000E+00  0.00000000000E+00  0.34996269501E-01  0.35000000000E-01  0.51099999109E-03 0.  1.
       11   -1    0    0    0    0 -0.00000000000E+00 -0.00000000000E+00 -0.34996269501E-01  0.35000000000E-01  0.51099999109E-03 0. -1.
       22    1    1    2    0    0 -0.11141387361E-01 -0.27709691046E-02 -0.32939581721E-01  0.34883016299E-01  0.00000000000E+00 0. -1.
       22    1    1    2    0    0  0.29871751041E-03  0.29380282926E-04  0.51867582889E-02  0.51954361607E-02  0.00000000000E+00 0.  1.
       22    1    1    2    0    0  0.10842669851E-01  0.27415888216E-02  0.27752823432E-01  0.29921547541E-01  0.00000000000E+00 0.  1.
</event>
<event>
 5   0  0.4146200E+04  0.9118800E+02  0.7546771E-02  0.1180000E+00
      -11   -1    0    0    0    0  0.00000000000E+00  0.00000000000E+00  0.34996269501E-01  0.35000000000E-01  0.51099999109E-03 0.  1.
       11   -1    0    0    0    0 -0.00000000000E+00 -0.00000000000E+00 -0.34996269501E-01  0.35000000000E-01  0.51099999109E-03 0. -1.
       22    1    1    2    0    0 -0.10443471248E-01 -0.85165512190E-02 -0.29763973404E-01  0.32672493770E-01  0.00000000000E+00 0. -1.
       22    1    1    2    0    0  0.84772856712E-04  0.31244008362E-03 -0.24695082222E-02  0.24906376900E-02  0.00000000000E+00 0.  1.
       22    1    1    2    0    0  0.10358698391E-01  0.82041111354E-02  0.32233481627E-01  0.34836868540E-01  0.00000000000E+00 0.  1.
</event>
<event>
 5   0  0.4146200E+04  0.9118800E+02  0.7546771E-02  0.1180000E+00
      -11   -1    0    0    0    0  0.00000000000E+00  0.00000000000E+00  0.34996269501E-01  0.35000000000E-01  0.51099999109E-03 0. -1.
       11   -1    0    0    0    0 -0.00000000000E+00 -0.00000000000E+00 -0.34996269501E-01  0.35000000000E-01  0.51099999109E-03 0.  1.
       22    1    1    2    0    0  0.16388538954E-02  0.16247423439E-03 -0.34445022457E-02  0.38179622429E-02  0.00000000000E+00 0.  1.
       22    1    1    2    0    0 -0.18342480518E-02 -0.13838879785E-02  0.34763134251E-01  0.34838988430E-01  0.00000000000E+00 0. -1.
       22    1    1    2    0    0  0.19539415639E-03  0.12214137441E-02 -0.31318632006E-01  0.31343049327E-01  0.00000000000E+00 0.  1.
</event>
<event>
 5   0  0.4146200E+04  0.9118800E+02  0.7546771E-02  0.1180000E+00
      -11   -1    0    0    0    0  0.00000000000E+00  0.00000000000E+00  0.34996269501E-01  0.35000000000E-01  0.51099999109E-03 0. -1.
       11   -1    0    0    0    0 -0.00000000000E+00 -0.00000000000E+00 -0.34996269501E-01  0.35000000000E-01  0.51099999109E-03 0.  1.
       22    1    1    2    0    0 -0.14238731971E-02 -0.11690642544E-02 -0.33687328999E-01  0.33737668283E-01  0.00000000000E+00 0.  1.
       22    1    1    2    0    0 -0.51238706091E-03  0.21554153970E-03 -0.11925495510E-02  0.13157405090E-02  0.00000000000E+00 0. -1.
       22    1    1    2    0    0  0.19362602581E-02  0.95352271470E-03  0.34879878550E-01  0.34946591207E-01  0.00000000000E+00 0. -1.
</event>
<event>
 5   0  0.4146200E+04  0.9118800E+02  0.7546771E-02  0.1180000E+00
      -11   -1    0    0    0    0  0.00000000000E+00  0.00000000000E+00  0.34996269501E-01  0.35000000000E-01  0.51099999109E-03 0. -1.
       11   -1    0    0    0    0 -0.00000000000E+00 -0.00000000000E+00 -0.34996269501E-01  0.35000000000E-01  0.51099999109E-03 0.  1.
       22    1    1    2    0    0  0.62386477505E-02 -0.43528142507E-02  0.32358506031E-01  0.33240647260E-01  0.00000000000E+00 0. -1.
       22    1    1    2    0    0  0.41106664696E-02 -0.25342356951E-02 -0.68279092340E-02  0.83630301859E-02  0.00000000000E+00 0.  1.
       22    1    1    2    0    0 -0.10349314220E-01  0.68870499458E-02 -0.25530596797E-01  0.28396322554E-01  0.00000000000E+00 0.  1.
</event>
<event>
 5   0  0.4146200E+04  0.9118800E+02  0.7546771E-02  0.1180000E+00
      -11   -1    0    0    0    0  0.00000000000E+00  0.00000000000E+00  0.34996269501E-01  0.35000000000E-01  0.51099999109E-03 0. -1.
       11   -1    0    0    0    0 -0.00000000000E+00 -0.00000000000E+00 -0.34996269501E-01  0.35000000000E-01  0.51099999109E-03 0.  1.
       22    1    1    2    0    0 -0.96096817922E-03  0.71305738041E-04  0.34663078820E-01  0.34676470086E-01  0.00000000000E+00 0. -1.
       22    1    1    2    0    0  0.74904723441E-04  0.19267345715E-02 -0.28829633410E-02  0.34683417439E-02  0.00000000000E+00 0. -1.
       22    1    1    2    0    0  0.88606345578E-03 -0.19980403096E-02 -0.31780115479E-01  0.31855188170E-01  0.00000000000E+00 0.  1.
</event>
<event>
 5   0  0.4146200E+04  0.9118800E+02  0.7546771E-02  0.1180000E+00
      -11   -1    0    0    0    0  0.00000000000E+00  0.00000000000E+00  0.34996269501E-01  0.35000000000E-01  0.51099999109E-03 0.  1.
       11   -1    0    0    0    0 -0.00000000000E+00 -0.00000000000E+00 -0.34996269501E-01  0.35000000000E-01  0.51099999109E-03 0. -1.
       22    1    1    2    0    0  0.15451132119E-03  0.45764913818E-04 -0.11450860397E-02  0.11563694107E-02  0.00000000000E+00 0. -1.
       22    1    1    2    0    0 -0.82877388336E-02 -0.77643881829E-02  0.33091810443E-01  0.34986286703E-01  0.00000000000E+00 0.  1.
       22    1    1    2    0    0  0.81332275124E-02  0.77186232691E-02 -0.31946724404E-01  0.33857343887E-01  0.00000000000E+00 0. -1.
</event>
<event>
 5   0  0.4146200E+04  0.9118800E+02  0.7546771E-02  0.1180000E+00
      -11   -1    0    0    0    0  0.00000000000E+00  0.00000000000E+00  0.34996269501E-01  0.35000000000E-01  0.51099999109E-03 0. -1.
       11   -1    0    0    0    0 -0.00000000000E+00 -0.00000000000E+00 -0.34996269501E-01  0.35000000000E-01  0.51099999109E-03 0.  1.
       22    1    1    2    0    0 -0.89589365861E-02 -0.13463655663E-01  0.30591888865E-01  0.34603413601E-01  0.00000000000E+00 0. -1.
       22    1    1    2    0    0  0.89516217050E-02  0.13446923973E-01 -0.31016780753E-01  0.34971302289E-01  0.00000000000E+00 0.  1.
       22    1    1    2    0    0  0.73148810500E-05  0.16731690299E-04  0.42489188870E-03  0.42528410977E-03  0.00000000000E+00 0.  1.
</event>
<event>
 5   0  0.4146200E+04  0.9118800E+02  0.7546771E-02  0.1180000E+00
      -11   -1    0    0    0    0  0.00000000000E+00  0.00000000000E+00  0.34996269501E-01  0.35000000000E-01  0.51099999109E-03 0. -1.
       11   -1    0    0    0    0 -0.00000000000E+00 -0.00000000000E+00 -0.34996269501E-01  0.35000000000E-01  0.51099999109E-03 0.  1.
       22    1    1    2    0    0  0.46723126611E-03  0.68969211019E-03 -0.26180634754E-01  0.26193885096E-01  0.00000000000E+00 0.  1.
       22    1    1    2    0    0  0.42092917231E-02  0.20372001190E-02  0.33986538063E-01  0.34306749928E-01  0.00000000000E+00 0. -1.
       22    1    1    2    0    0 -0.46765229893E-02 -0.27268922292E-02 -0.78059033083E-02  0.94993649765E-02  0.00000000000E+00 0.  1.
</event>
<event>
 5   0  0.4146200E+04  0.9118800E+02  0.7546771E-02  0.1180000E+00
      -11   -1    0    0    0    0  0.00000000000E+00  0.00000000000E+00  0.34996269501E-01  0.35000000000E-01  0.51099999109E-03 0. -1.
       11   -1    0    0    0    0 -0.00000000000E+00 -0.00000000000E+00 -0.34996269501E-01  0.35000000000E-01  0.51099999109E-03 0.  1.
       22    1    1    2    0    0  0.10343014420E-02  0.94234091622E-03 -0.32199599699E-01  0.32229986141E-01  0.00000000000E+00 0.  1.
       22    1    1    2    0    0 -0.96593555881E-03 -0.27890276245E-02  0.34608393967E-01  0.34734027114E-01  0.00000000000E+00 0. -1.
       22    1    1    2    0    0 -0.68365883214E-04  0.18466867083E-02 -0.24087942677E-02  0.30359867452E-02  0.00000000000E+00 0.  1.
</event>
<event>
 5   0  0.4146200E+04  0.9118800E+02  0.7546771E-02  0.1180000E+00
      -11   -1    0    0    0    0  0.00000000000E+00  0.00000000000E+00  0.34996269501E-01  0.35000000000E-01  0.51099999109E-03 0. -1.
       11   -1    0    0    0    0 -0.00000000000E+00 -0.00000000000E+00 -0.34996269501E-01  0.35000000000E-01  0.51099999109E-03 0.  1.
       22    1    1    2    0    0  0.94161554351E-03 -0.22616921395E-02  0.34140179554E-01  0.34227967383E-01  0.00000000000E+00 0. -1.
       22    1    1    2    0    0  0.68976704375E-03  0.48083150017E-02 -0.73401871586E-02  0.88019326999E-02  0.00000000000E+00 0. -1.
       22    1    1    2    0    0 -0.16313825873E-02 -0.25466228621E-02 -0.26799992396E-01  0.26970099917E-01  0.00000000000E+00 0.  1.
</event>
<event>
 5   0  0.4146200E+04  0.9118800E+02  0.7546771E-02  0.1180000E+00
      -11   -1    0    0    0    0  0.00000000000E+00  0.00000000000E+00  0.34996269501E-01  0.35000000000E-01  0.51099999109E-03 0. -1.
       11   -1    0    0    0    0 -0.00000000000E+00 -0.00000000000E+00 -0.34996269501E-01  0.35000000000E-01  0.51099999109E-03 0.  1.
       22    1    1    2    0    0 -0.28406309815E-03  0.99612786767E-02  0.33345335352E-01  0.34802573963E-01  0.00000000000E+00 0. -1.
       22    1    1    2    0    0  0.21203907482E-02 -0.73960280574E-02 -0.18791837395E-01  0.20305921319E-01  0.00000000000E+00 0.  1.
       22    1    1    2    0    0 -0.18363276500E-02 -0.25652506193E-02 -0.14553497957E-01  0.14891504718E-01  0.00000000000E+00 0.  1.
</event>
<event>
 5   0  0.4146200E+04  0.9118800E+02  0.7546771E-02  0.1180000E+00
      -11   -1    0    0    0    0  0.00000000000E+00  0.00000000000E+00  0.34996269501E-01  0.35000000000E-01  0.51099999109E-03 0.  1.
       11   -1    0    0    0    0 -0.00000000000E+00 -0.00000000000E+00 -0.34996269501E-01  0.35000000000E-01  0.51099999109E-03 0. -1.
       22    1    1    2    0    0  0.66861662274E-03  0.44165164238E-02 -0.17556757004E-02  0.47994856677E-02  0.00000000000E+00 0.  1.
       22    1    1    2    0    0  0.11986382725E-01  0.10040192279E-01  0.28359480780E-01  0.32384239715E-01  0.00000000000E+00 0.  1.
       22    1    1    2    0    0 -0.12654999347E-01 -0.14456708702E-01 -0.26603805080E-01  0.32816274617E-01  0.00000000000E+00 0. -1.
</event>
<event>
 5   0  0.4146200E+04  0.9118800E+02  0.7546771E-02  0.1180000E+00
      -11   -1    0    0    0    0  0.00000000000E+00  0.00000000000E+00  0.34996269501E-01  0.35000000000E-01  0.51099999109E-03 0. -1.
       11   -1    0    0    0    0 -0.00000000000E+00 -0.00000000000E+00 -0.34996269501E-01  0.35000000000E-01  0.51099999109E-03 0.  1.
       22    1    1    2    0    0  0.10292373943E-02 -0.75217274652E-02 -0.27889911857E-01  0.28904721017E-01  0.00000000000E+00 0.  1.
       22    1    1    2    0    0  0.25609862389E-02  0.66836353728E-02  0.33569484029E-01  0.34324042453E-01  0.00000000000E+00 0. -1.
       22    1    1    2    0    0 -0.35902236332E-02  0.83809209235E-03 -0.56795721724E-02  0.67712365306E-02  0.00000000000E+00 0.  1.
</event>
<event>
 5   0  0.4146200E+04  0.9118800E+02  0.7546771E-02  0.1180000E+00
      -11   -1    0    0    0    0  0.00000000000E+00  0.00000000000E+00  0.34996269501E-01  0.35000000000E-01  0.51099999109E-03 0.  1.
       11   -1    0    0    0    0 -0.00000000000E+00 -0.00000000000E+00 -0.34996269501E-01  0.35000000000E-01  0.51099999109E-03 0. -1.
       22    1    1    2    0    0 -0.49882763987E-02 -0.15939411292E-01 -0.30281580425E-01  0.34582102984E-01  0.00000000000E+00 0. -1.
       22    1    1    2    0    0  0.28111320976E-03 -0.39015824245E-03 -0.19848732899E-03  0.52023582212E-03  0.00000000000E+00 0. -1.
       22    1    1    2    0    0  0.47071631889E-02  0.16329569534E-01  0.30480067754E-01  0.34897661194E-01  0.00000000000E+00 0.  1.
</event>
<event>
 5   0  0.4146200E+04  0.9118800E+02  0.7546771E-02  0.1180000E+00
      -11   -1    0    0    0    0  0.00000000000E+00  0.00000000000E+00  0.34996269501E-01  0.35000000000E-01  0.51099999109E-03 0.  1.
       11   -1    0    0    0    0 -0.00000000000E+00 -0.00000000000E+00 -0.34996269501E-01  0.35000000000E-01  0.51099999109E-03 0.  1.
       22    1    1    2    0    0  0.86397708743E-03 -0.14429883560E-03  0.34946585123E-01  0.34957561275E-01  0.00000000000E+00 0.  1.
       22    1    1    2    0    0 -0.90422383221E-03  0.43930038171E-03 -0.34441230777E-01  0.34455899104E-01  0.00000000000E+00 0.  1.
       22    1    1    2    0    0  0.40246744781E-04 -0.29500154611E-03 -0.50535434548E-03  0.58653962114E-03  0.00000000000E+00 0. -1.
</event>
<event>
 5   0  0.4146200E+04  0.9118800E+02  0.7546771E-02  0.1180000E+00
      -11   -1    0    0    0    0  0.00000000000E+00  0.00000000000E+00  0.34996269501E-01  0.35000000000E-01  0.51099999109E-03 0. -1.
       11   -1    0    0    0    0 -0.00000000000E+00 -0.00000000000E+00 -0.34996269501E-01  0.35000000000E-01  0.51099999109E-03 0.  1.
       22    1    1    2    0    0 -0.22686846077E-03  0.16765755394E-03  0.10402840727E-02  0.10778540280E-02  0.00000000000E+00 0. -1.
       22    1    1    2    0    0  0.39002983809E-02  0.11661329379E-01  0.31654969094E-01  0.33959328596E-01  0.00000000000E+00 0. -1.
       22    1    1    2    0    0 -0.36734299202E-02 -0.11828986933E-01 -0.32695253167E-01  0.34962817376E-01  0.00000000000E+00 0.  1.
</event>
<event>
 5   0  0.4146200E+04  0.9118800E+02  0.7546771E-02  0.1180000E+00
      -11   -1    0    0    0    0  0.00000000000E+00  0.00000000000E+00  0.34996269501E-01  0.35000000000E-01  0.51099999109E-03 0.  1.
       11   -1    0    0    0    0 -0.00000000000E+00 -0.00000000000E+00 -0.34996269501E-01  0.35000000000E-01  0.51099999109E-03 0. -1.
       22    1    1    2    0    0  0.50916691875E-02  0.98189261737E-02 -0.31898928322E-01  0.33762079830E-01  0.00000000000E+00 0. -1.
       22    1    1    2    0    0  0.11011023927E-03 -0.24174538953E-04 -0.12643580536E-02  0.12693738460E-02  0.00000000000E+00 0. -1.
       22    1    1    2    0    0 -0.52017794267E-02 -0.97947516347E-02  0.33163286376E-01  0.34968546324E-01  0.00000000000E+00 0.  1.
</event>
<event>
 5   0  0.4146200E+04  0.9118800E+02  0.7546771E-02  0.1180000E+00
      -11   -1    0    0    0    0  0.00000000000E+00  0.00000000000E+00  0.34996269501E-01  0.35000000000E-01  0.51099999109E-03 0. -1.
       11   -1    0    0    0    0 -0.00000000000E+00 -0.00000000000E+00 -0.34996269501E-01  0.35000000000E-01  0.51099999109E-03 0. -1.
       22    1    1    2    0    0  0.27272434301E-03  0.55313235754E-03 -0.33815609176E-01  0.33821232353E-01  0.00000000000E+00 0. -1.
       22    1    1    2    0    0 -0.27272434301E-03 -0.55313235754E-03 -0.11023738161E-02  0.12631555734E-02  0.00000000000E+00 0.  1.
       22    1    1    2    0    0  0.00000000000E+00 -0.00000000000E+00  0.34917982992E-01  0.34915612073E-01  0.00000000000E+00 0. -1.
</event>
<event>
 5   0  0.4146200E+04  0.9118800E+02  0.7546771E-02  0.1180000E+00
      -11   -1    0    0    0    0  0.00000000000E+00  0.00000000000E+00  0.34996269501E-01  0.35000000000E-01  0.51099999109E-03 0.  1.
       11   -1    0    0    0    0 -0.00000000000E+00 -0.00000000000E+00 -0.34996269501E-01  0.35000000000E-01  0.51099999109E-03 0. -1.
       22    1    1    2    0    0  0.82341371501E-04  0.70506956766E-04 -0.13029251872E-02  0.13074270059E-02  0.00000000000E+00 0. -1.
       22    1    1    2    0    0 -0.12570388527E-02 -0.14310965418E-01 -0.30562275889E-01  0.33770350685E-01  0.00000000000E+00 0. -1.
       22    1    1    2    0    0  0.11746974812E-02  0.14240458461E-01  0.31865201077E-01  0.34922222309E-01  0.00000000000E+00 0.  1.
</event>
<event>
 5   0  0.4146200E+04  0.9118800E+02  0.7546771E-02  0.1180000E+00
      -11   -1    0    0    0    0  0.00000000000E+00  0.00000000000E+00  0.34996269501E-01  0.35000000000E-01  0.51099999109E-03 0.  1.
       11   -1    0    0    0    0 -0.00000000000E+00 -0.00000000000E+00 -0.34996269501E-01  0.35000000000E-01  0.51099999109E-03 0. -1.
       22    1    1    2    0    0 -0.27677604271E-03  0.87411333142E-04  0.29501535085E-02  0.29643973152E-02  0.00000000000E+00 0. -1.
       22    1    1    2    0    0  0.16679923385E-01  0.14407232122E-01 -0.26776193147E-01  0.34680725209E-01  0.00000000000E+00 0. -1.
       22    1    1    2    0    0 -0.16403147343E-01 -0.14494643455E-01  0.23826039639E-01  0.32354877476E-01  0.00000000000E+00 0.  1.
</event>
<event>
 5   0  0.4146200E+04  0.9118800E+02  0.7546771E-02  0.1180000E+00
      -11   -1    0    0    0    0  0.00000000000E+00  0.00000000000E+00  0.34996269501E-01  0.35000000000E-01  0.51099999109E-03 0.  1.
       11   -1    0    0    0    0 -0.00000000000E+00 -0.00000000000E+00 -0.34996269501E-01  0.35000000000E-01  0.51099999109E-03 0. -1.
       22    1    1    2    0    0  0.31645814680E-02  0.70912766879E-03 -0.10030994227E-01  0.10542214336E-01  0.00000000000E+00 0.  1.
       22    1    1    2    0    0 -0.11397459519E-01  0.79128088556E-02  0.31768282158E-01  0.34666098407E-01  0.00000000000E+00 0.  1.
       22    1    1    2    0    0  0.82328780512E-02 -0.86219365244E-02 -0.21737287931E-01  0.24791687257E-01  0.00000000000E+00 0. -1.
</event>
<event>
 5   0  0.4146200E+04  0.9118800E+02  0.7546771E-02  0.1180000E+00
      -11   -1    0    0    0    0  0.00000000000E+00  0.00000000000E+00  0.34996269501E-01  0.35000000000E-01  0.51099999109E-03 0. -1.
       11   -1    0    0    0    0 -0.00000000000E+00 -0.00000000000E+00 -0.34996269501E-01  0.35000000000E-01  0.51099999109E-03 0.  1.
       22    1    1    2    0    0 -0.11728481798E-01  0.79013885535E-02  0.28645765910E-01  0.31946347693E-01  0.00000000000E+00 0.  1.
       22    1    1    2    0    0  0.49793627938E-03 -0.90835558330E-03  0.33095959398E-02  0.34679209462E-02  0.00000000000E+00 0. -1.
       22    1    1    2    0    0  0.11230545518E-01 -0.69930329702E-02 -0.31955361850E-01  0.34585731360E-01  0.00000000000E+00 0. -1.
</event>
<event>
 5   0  0.4146200E+04  0.9118800E+02  0.7546771E-02  0.1180000E+00
      -11   -1    0    0    0    0  0.00000000000E+00  0.00000000000E+00  0.34996269501E-01  0.35000000000E-01  0.51099999109E-03 0. -1.
       11   -1    0    0    0    0 -0.00000000000E+00 -0.00000000000E+00 -0.34996269501E-01  0.35000000000E-01  0.51099999109E-03 0.  1.
       22    1    1    2    0    0  0.31102017681E-03  0.39602269650E-03 -0.23160750105E-03  0.55426488349E-03  0.00000000000E+00 0. -1.
       22    1    1    2    0    0  0.18712084420E-01  0.14825676499E-01 -0.24863540991E-01  0.34469384352E-01  0.00000000000E+00 0.  1.
       22    1    1    2    0    0 -0.19023104597E-01 -0.15221699196E-01  0.25095148492E-01  0.34976350764E-01  0.00000000000E+00 0. -1.
</event>
<event>
 5   0  0.4146200E+04  0.9118800E+02  0.7546771E-02  0.1180000E+00
      -11   -1    0    0    0    0  0.00000000000E+00  0.00000000000E+00  0.34996269501E-01  0.35000000000E-01  0.51099999109E-03 0.  1.
       11   -1    0    0    0    0 -0.00000000000E+00 -0.00000000000E+00 -0.34996269501E-01  0.35000000000E-01  0.51099999109E-03 0. -1.
       22    1    1    2    0    0 -0.15145103508E-02 -0.19742706221E-01 -0.25485188746E-01  0.32273255738E-01  0.00000000000E+00 0. -1.
       22    1    1    2    0    0  0.14493503749E-02  0.19835796722E-01  0.28475945538E-01  0.34733829653E-01  0.00000000000E+00 0.  1.
       22    1    1    2    0    0  0.65159975905E-04 -0.93090500487E-04 -0.29907567922E-02  0.29929146085E-02  0.00000000000E+00 0. -1.
</event>
<event>
 5   0  0.4146200E+04  0.9118800E+02  0.7546771E-02  0.1180000E+00
      -11   -1    0    0    0    0  0.00000000000E+00  0.00000000000E+00  0.34996269501E-01  0.35000000000E-01  0.51099999109E-03 0.  1.
       11   -1    0    0    0    0 -0.00000000000E+00 -0.00000000000E+00 -0.34996269501E-01  0.35000000000E-01  0.51099999109E-03 0. -1.
       22    1    1    2    0    0 -0.20244535040E-01  0.88753761734E-02  0.26749455476E-01  0.34700819435E-01  0.00000000000E+00 0.  1.
       22    1    1    2    0    0  0.20168523863E-01 -0.88165953977E-02 -0.27113082673E-01  0.34923072048E-01  0.00000000000E+00 0. -1.
       22    1    1    2    0    0  0.76011176163E-04 -0.58780775685E-04  0.36362719694E-03  0.37610851738E-03  0.00000000000E+00 0.  1.
</event>
<event>
 5   0  0.4146200E+04  0.9118800E+02  0.7546771E-02  0.1180000E+00
      -11   -1    0    0    0    0  0.00000000000E+00  0.00000000000E+00  0.34996269501E-01  0.35000000000E-01  0.51099999109E-03 0. -1.
       11   -1    0    0    0    0 -0.00000000000E+00 -0.00000000000E+00 -0.34996269501E-01  0.35000000000E-01  0.51099999109E-03 0.  1.
       22    1    1    2    0    0 -0.14277907211E-01 -0.20586090925E-02 -0.30900661549E-01  0.34102014455E-01  0.00000000000E+00 0.  1.
       22    1    1    2    0    0  0.13317064228E-01  0.21193770407E-02  0.31824614295E-01  0.34563594051E-01  0.00000000000E+00 0. -1.
       22    1    1    2    0    0  0.96084298318E-03 -0.60767948160E-04 -0.92395274639E-03  0.13343914941E-02  0.00000000000E+00 0.  1.
</event>
<event>
 5   0  0.4146200E+04  0.9118800E+02  0.7546771E-02  0.1180000E+00
      -11   -1    0    0    0    0  0.00000000000E+00  0.00000000000E+00  0.34996269501E-01  0.35000000000E-01  0.51099999109E-03 0. -1.
       11   -1    0    0    0    0 -0.00000000000E+00 -0.00000000000E+00 -0.34996269501E-01  0.35000000000E-01  0.51099999109E-03 0.  1.
       22    1    1    2    0    0  0.15906556759E-01  0.59939225558E-02  0.29454730013E-01  0.34007745818E-01  0.00000000000E+00 0. -1.
       22    1    1    2    0    0  0.17514709777E-02 -0.50562237358E-03 -0.50803226115E-02  0.53974977913E-02  0.00000000000E+00 0. -1.
       22    1    1    2    0    0 -0.17658027736E-01 -0.54883001822E-02 -0.24374407401E-01  0.30594756390E-01  0.00000000000E+00 0.  1.
</event>
<event>
 5   0  0.4146200E+04  0.9118800E+02  0.7546771E-02  0.1180000E+00
      -11   -1    0    0    0    0  0.00000000000E+00  0.00000000000E+00  0.34996269501E-01  0.35000000000E-01  0.51099999109E-03 0.  1.
       11   -1    0    0    0    0 -0.00000000000E+00 -0.00000000000E+00 -0.34996269501E-01  0.35000000000E-01  0.51099999109E-03 0. -1.
       22    1    1    2    0    0  0.49977021445E-02  0.40046349270E-02 -0.12196910706E-01  0.13776021138E-01  0.00000000000E+00 0.  1.
       22    1    1    2    0    0  0.27683985574E-02 -0.59137883423E-02 -0.21044419611E-01  0.22034167102E-01  0.00000000000E+00 0. -1.
       22    1    1    2    0    0 -0.77661007019E-02  0.19091534153E-02  0.33241330317E-01  0.34189811759E-01  0.00000000000E+00 0.  1.
</event>
<event>
 5   0  0.4146200E+04  0.9118800E+02  0.7546771E-02  0.1180000E+00
      -11   -1    0    0    0    0  0.00000000000E+00  0.00000000000E+00  0.34996269501E-01  0.35000000000E-01  0.51099999109E-03 0. -1.
       11   -1    0    0    0    0 -0.00000000000E+00 -0.00000000000E+00 -0.34996269501E-01  0.35000000000E-01  0.51099999109E-03 0.  1.
       22    1    1    2    0    0 -0.46662354453E-04  0.16246303270E-03 -0.35358750403E-03  0.39191291804E-03  0.00000000000E+00 0. -1.
       22    1    1    2    0    0  0.81746313216E-04  0.19863706025E-02 -0.34565651684E-01  0.34622776131E-01  0.00000000000E+00 0.  1.
       22    1    1    2    0    0 -0.35083958763E-04 -0.21488336352E-02  0.34919239188E-01  0.34985310951E-01  0.00000000000E+00 0. -1.
</event>
<event>
 5   0  0.4146200E+04  0.9118800E+02  0.7546771E-02  0.1180000E+00
      -11   -1    0    0    0    0  0.00000000000E+00  0.00000000000E+00  0.34996269501E-01  0.35000000000E-01  0.51099999109E-03 0. -1.
       11   -1    0    0    0    0 -0.00000000000E+00 -0.00000000000E+00 -0.34996269501E-01  0.35000000000E-01  0.51099999109E-03 0.  1.
       22    1    1    2    0    0 -0.11166825678E-01  0.31711289324E-01  0.79672031448E-02  0.34551124327E-01  0.00000000000E+00 0.  1.
       22    1    1    2    0    0  0.56360613603E-03  0.83689743737E-04 -0.10961911627E-02  0.12354314692E-02  0.00000000000E+00 0. -1.
       22    1    1    2    0    0  0.10603219542E-01 -0.31794979068E-01 -0.68710119821E-02  0.34213444203E-01  0.00000000000E+00 0. -1.
</event>
<event>
 5   0  0.4146200E+04  0.9118800E+02  0.7546771E-02  0.1180000E+00
      -11   -1    0    0    0    0  0.00000000000E+00  0.00000000000E+00  0.34996269501E-01  0.35000000000E-01  0.51099999109E-03 0.  1.
       11   -1    0    0    0    0 -0.00000000000E+00 -0.00000000000E+00 -0.34996269501E-01  0.35000000000E-01  0.51099999109E-03 0. -1.
       22    1    1    2    0    0 -0.75343803557E-02 -0.11190607228E-01  0.30824514824E-01  0.33647396505E-01  0.00000000000E+00 0.  1.
       22    1    1    2    0    0  0.75203814243E-02  0.12236205543E-01 -0.16037411398E-01  0.21528572345E-01  0.00000000000E+00 0. -1.
       22    1    1    2    0    0  0.13998931323E-04 -0.10455983148E-02 -0.14787103426E-01  0.14824031150E-01  0.00000000000E+00 0. -1.
</event>
<event>
 5   0  0.4146200E+04  0.9118800E+02  0.7546771E-02  0.1180000E+00
      -11   -1    0    0    0    0  0.00000000000E+00  0.00000000000E+00  0.34996269501E-01  0.35000000000E-01  0.51099999109E-03 0.  1.
       11   -1    0    0    0    0 -0.00000000000E+00 -0.00000000000E+00 -0.34996269501E-01  0.35000000000E-01  0.51099999109E-03 0. -1.
       22    1    1    2    0    0 -0.11633409449E-01  0.11422303176E-01  0.18541446277E-01  0.24689885688E-01  0.00000000000E+00 0.  1.
       22    1    1    2    0    0  0.13228939905E-03 -0.12208787200E-03  0.11347832453E-01  0.11349260210E-01  0.00000000000E+00 0.  1.
       22    1    1    2    0    0  0.11501120049E-01 -0.11300215304E-01 -0.29889278730E-01  0.33960854102E-01  0.00000000000E+00 0. -1.
</event>
<event>
 5   0  0.4146200E+04  0.9118800E+02  0.7546771E-02  0.1180000E+00
      -11   -1    0    0    0    0  0.00000000000E+00  0.00000000000E+00  0.34996269501E-01  0.35000000000E-01  0.51099999109E-03 0.  1.
       11   -1    0    0    0    0 -0.00000000000E+00 -0.00000000000E+00 -0.34996269501E-01  0.35000000000E-01  0.51099999109E-03 0. -1.
       22    1    1    2    0    0 -0.68282433073E-02  0.16174417876E-01  0.25946549805E-01  0.31328264349E-01  0.00000000000E+00 0.  1.
       22    1    1    2    0    0  0.70590114451E-02 -0.15920022078E-01 -0.29954585184E-01  0.34649010362E-01  0.00000000000E+00 0. -1.
       22    1    1    2    0    0 -0.23076813780E-03 -0.25439579855E-03  0.40080353786E-02  0.40227252892E-02  0.00000000000E+00 0. -1.
</event>
<event>
 5   0  0.4146200E+04  0.9118800E+02  0.7546771E-02  0.1180000E+00
      -11   -1    0    0    0    0  0.00000000000E+00  0.00000000000E+00  0.34996269501E-01  0.35000000000E-01  0.51099999109E-03 0. -1.
       11   -1    0    0    0    0 -0.00000000000E+00 -0.00000000000E+00 -0.34996269501E-01  0.35000000000E-01  0.51099999109E-03 0.  1.
       22    1    1    2    0    0  0.17564496708E-02  0.52564663550E-03 -0.76655474244E-02  0.78817534310E-02  0.00000000000E+00 0.  1.
       22    1    1    2    0    0  0.86599423610E-02  0.38378180290E-02 -0.25436391850E-01  0.27142834769E-01  0.00000000000E+00 0.  1.
       22    1    1    2    0    0 -0.10416392032E-01 -0.43634646645E-02  0.33101939275E-01  0.34975411800E-01  0.00000000000E+00 0. -1.
</event>
<event>
 5   0  0.4146200E+04  0.9118800E+02  0.7546771E-02  0.1180000E+00
      -11   -1    0    0    0    0  0.00000000000E+00  0.00000000000E+00  0.34996269501E-01  0.35000000000E-01  0.51099999109E-03 0.  1.
       11   -1    0    0    0    0 -0.00000000000E+00 -0.00000000000E+00 -0.34996269501E-01  0.35000000000E-01  0.51099999109E-03 0. -1.
       22    1    1    2    0    0  0.24272136874E-01 -0.89541163779E-03 -0.24764699603E-01  0.34687587648E-01  0.00000000000E+00 0. -1.
       22    1    1    2    0    0 -0.23879026428E-01  0.54088020174E-03  0.21920162735E-01  0.32419037445E-01  0.00000000000E+00 0.  1.
       22    1    1    2    0    0 -0.39311044609E-03  0.35453143605E-03  0.28445368674E-02  0.28933749069E-02  0.00000000000E+00 0. -1.
</event>
<event>
 5   0  0.4146200E+04  0.9118800E+02  0.7546771E-02  0.1180000E+00
      -11   -1    0    0    0    0  0.00000000000E+00  0.00000000000E+00  0.34996269501E-01  0.35000000000E-01  0.51099999109E-03 0.  1.
       11   -1    0    0    0    0 -0.00000000000E+00 -0.00000000000E+00 -0.34996269501E-01  0.35000000000E-01  0.51099999109E-03 0. -1.
       22    1    1    2    0    0  0.15504670760E-01 -0.62915204649E-02  0.30523403233E-01  0.34808852179E-01  0.00000000000E+00 0.  1.
       22    1    1    2    0    0 -0.14906823131E-02  0.73022516850E-03 -0.74195356869E-02  0.76029515562E-02  0.00000000000E+00 0.  1.
       22    1    1    2    0    0 -0.14013988447E-01  0.55612952963E-02 -0.23103867546E-01  0.27588196265E-01  0.00000000000E+00 0. -1.
</event>
<event>
 5   0  0.4146200E+04  0.9118800E+02  0.7546771E-02  0.1180000E+00
      -11   -1    0    0    0    0  0.00000000000E+00  0.00000000000E+00  0.34996269501E-01  0.35000000000E-01  0.51099999109E-03 0. -1.
       11   -1    0    0    0    0 -0.00000000000E+00 -0.00000000000E+00 -0.34996269501E-01  0.35000000000E-01  0.51099999109E-03 0.  1.
       22    1    1    2    0    0  0.20357637122E-01  0.52703561223E-02  0.25135570026E-01  0.32772044846E-01  0.00000000000E+00 0. -1.
       22    1    1    2    0    0 -0.44059617229E-04 -0.28673989126E-03  0.25294870839E-02  0.25460687192E-02  0.00000000000E+00 0. -1.
       22    1    1    2    0    0 -0.20313577504E-01 -0.49836162310E-02 -0.27665057110E-01  0.34681886435E-01  0.00000000000E+00 0.  1.
</event>
<event>
 5   0  0.4146200E+04  0.9118800E+02  0.7546771E-02  0.1180000E+00
      -11   -1    0    0    0    0  0.00000000000E+00  0.00000000000E+00  0.34996269501E-01  0.35000000000E-01  0.51099999109E-03 0. -1.
       11   -1    0    0    0    0 -0.00000000000E+00 -0.00000000000E+00 -0.34996269501E-01  0.35000000000E-01  0.51099999109E-03 0.  1.
       22    1    1    2    0    0 -0.21188131846E-03  0.13235654667E-03 -0.24847659030E-03  0.35235289765E-03  0.00000000000E+00 0.  1.
       22    1    1    2    0    0 -0.24187084206E-01  0.78001517062E-02  0.23802022467E-01  0.34819444030E-01  0.00000000000E+00 0. -1.
       22    1    1    2    0    0  0.24398965525E-01 -0.79325082529E-02 -0.23553545877E-01  0.34828203072E-01  0.00000000000E+00 0.  1.
</event>
<event>
 5   0  0.4146200E+04  0.9118800E+02  0.7546771E-02  0.1180000E+00
      -11   -1    0    0    0    0  0.00000000000E+00  0.00000000000E+00  0.34996269501E-01  0.35000000000E-01  0.51099999109E-03 0.  1.
       11   -1    0    0    0    0 -0.00000000000E+00 -0.00000000000E+00 -0.34996269501E-01  0.35000000000E-01  0.51099999109E-03 0. -1.
       22    1    1    2    0    0  0.15816017867E-01 -0.13267509268E-01 -0.21946946744E-01  0.30130411459E-01  0.00000000000E+00 0. -1.
       22    1    1    2    0    0  0.51546167799E-03 -0.69883707214E-04 -0.53510893986E-02  0.53763130699E-02  0.00000000000E+00 0. -1.
       22    1    1    2    0    0 -0.16331479545E-01  0.13337392975E-01  0.27298036142E-01  0.34493275471E-01  0.00000000000E+00 0.  1.
</event>
<event>
 5   0  0.4146200E+04  0.9118800E+02  0.7546771E-02  0.1180000E+00
      -11   -1    0    0    0    0  0.00000000000E+00  0.00000000000E+00  0.34996269501E-01  0.35000000000E-01  0.51099999109E-03 0.  1.
       11   -1    0    0    0    0 -0.00000000000E+00 -0.00000000000E+00 -0.34996269501E-01  0.35000000000E-01  0.51099999109E-03 0.  1.
       22    1    1    2    0    0 -0.26786723322E-02 -0.43072768510E-03 -0.31065938478E-01  0.31184184218E-01  0.00000000000E+00 0.  1.
       22    1    1    2    0    0  0.26786723322E-02  0.43072768510E-03 -0.34001969744E-02  0.43499599156E-02  0.00000000000E+00 0. -1.
       22    1    1    2    0    0 -0.00000000000E+00 -0.00000000000E+00  0.34466135453E-01  0.34465855867E-01  0.00000000000E+00 0.  1.
</event>
<event>
 5   0  0.4146200E+04  0.9118800E+02  0.7546771E-02  0.1180000E+00
      -11   -1    0    0    0    0  0.00000000000E+00  0.00000000000E+00  0.34996269501E-01  0.35000000000E-01  0.51099999109E-03 0. -1.
       11   -1    0    0    0    0 -0.00000000000E+00 -0.00000000000E+00 -0.34996269501E-01  0.35000000000E-01  0.51099999109E-03 0. -1.
       22    1    1    2    0    0 -0.21041998809E-03  0.12808376084E-03 -0.34372550636E-01  0.34373433335E-01  0.00000000000E+00 0. -1.
       22    1    1    2    0    0  0.00000000000E+00  0.00000000000E+00  0.34976839217E-01  0.34973997351E-01  0.00000000000E+00 0. -1.
       22    1    1    2    0    0  0.21041998809E-03 -0.12808376084E-03 -0.60428858088E-03  0.65256931444E-03  0.00000000000E+00 0. -1.
</event>
<event>
 5   0  0.4146200E+04  0.9118800E+02  0.7546771E-02  0.1180000E+00
      -11   -1    0    0    0    0  0.00000000000E+00  0.00000000000E+00  0.34996269501E-01  0.35000000000E-01  0.51099999109E-03 0. -1.
       11   -1    0    0    0    0 -0.00000000000E+00 -0.00000000000E+00 -0.34996269501E-01  0.35000000000E-01  0.51099999109E-03 0.  1.
       22    1    1    2    0    0  0.33086593664E-03  0.37393741532E-03 -0.47014293756E-02  0.47278684026E-02  0.00000000000E+00 0.  1.
       22    1    1    2    0    0  0.92746247269E-02  0.71348633684E-02  0.32701914701E-01  0.34732407982E-01  0.00000000000E+00 0. -1.
       22    1    1    2    0    0 -0.96054906635E-02 -0.75088007837E-02 -0.28000485325E-01  0.30539723616E-01  0.00000000000E+00 0.  1.
</event>
<event>
 5   0  0.4146200E+04  0.9118800E+02  0.7546771E-02  0.1180000E+00
      -11   -1    0    0    0    0  0.00000000000E+00  0.00000000000E+00  0.34996269501E-01  0.35000000000E-01  0.51099999109E-03 0. -1.
       11   -1    0    0    0    0 -0.00000000000E+00 -0.00000000000E+00 -0.34996269501E-01  0.35000000000E-01  0.51099999109E-03 0.  1.
       22    1    1    2    0    0  0.12518877295E-02 -0.21703280658E-02  0.34786125123E-01  0.34876239016E-01  0.00000000000E+00 0. -1.
       22    1    1    2    0    0  0.30250536516E-03  0.12890763676E-02 -0.29760474890E-01  0.29789915963E-01  0.00000000000E+00 0.  1.
       22    1    1    2    0    0 -0.15543930946E-02  0.88125169821E-03 -0.50256502332E-02  0.53338450216E-02  0.00000000000E+00 0. -1.
</event>
<event>
 5   0  0.4146200E+04  0.9118800E+02  0.7546771E-02  0.1180000E+00
      -11   -1    0    0    0    0  0.00000000000E+00  0.00000000000E+00  0.34996269501E-01  0.35000000000E-01  0.51099999109E-03 0.  1.
       11   -1    0    0    0    0 -0.00000000000E+00 -0.00000000000E+00 -0.34996269501E-01  0.35000000000E-01  0.51099999109E-03 0. -1.
       22    1    1    2    0    0 -0.57529527810E-02 -0.84837758984E-02 -0.19207852478E-01  0.21771828495E-01  0.00000000000E+00 0. -1.
       22    1    1    2    0    0  0.70541005882E-02  0.75085143610E-02  0.32881759137E-01  0.34457919365E-01  0.00000000000E+00 0.  1.
       22    1    1    2    0    0 -0.13011478072E-02  0.97526153742E-03 -0.13673906659E-01  0.13770252140E-01  0.00000000000E+00 0. -1.
</event>
<event>
 5   0  0.4146200E+04  0.9118800E+02  0.7546771E-02  0.1180000E+00
      -11   -1    0    0    0    0  0.00000000000E+00  0.00000000000E+00  0.34996269501E-01  0.35000000000E-01  0.51099999109E-03 0.  1.
       11   -1    0    0    0    0 -0.00000000000E+00 -0.00000000000E+00 -0.34996269501E-01  0.35000000000E-01  0.51099999109E-03 0. -1.
       22    1    1    2    0    0 -0.20460427867E-01 -0.13308992052E-01 -0.24638035912E-01  0.34681280131E-01  0.00000000000E+00 0. -1.
       22    1    1    2    0    0  0.20479892582E-01  0.13797803882E-01  0.24551093223E-01  0.34821854784E-01  0.00000000000E+00 0.  1.
       22    1    1    2    0    0 -0.19464715462E-04 -0.48881183075E-03  0.86942688918E-04  0.49686508449E-03  0.00000000000E+00 0.  1.
</event>
<event>
 5   0  0.4146200E+04  0.9118800E+02  0.7546771E-02  0.1180000E+00
      -11   -1    0    0    0    0  0.00000000000E+00  0.00000000000E+00  0.34996269501E-01  0.35000000000E-01  0.51099999109E-03 0. -1.
       11   -1    0    0    0    0 -0.00000000000E+00 -0.00000000000E+00 -0.34996269501E-01  0.35000000000E-01  0.51099999109E-03 0.  1.
       22    1    1    2    0    0 -0.12986616793E-02 -0.15494926709E-03 -0.32587942889E-01  0.32614177180E-01  0.00000000000E+00 0.  1.
       22    1    1    2    0    0  0.21893868397E-03 -0.59420905076E-05  0.34862332060E-01  0.34863020037E-01  0.00000000000E+00 0. -1.
       22    1    1    2    0    0  0.10797229953E-02  0.16089135760E-03 -0.22743891713E-02  0.25228027822E-02  0.00000000000E+00 0. -1.
</event>
<event>
 5   0  0.4146200E+04  0.9118800E+02  0.7546771E-02  0.1180000E+00
      -11   -1    0    0    0    0  0.00000000000E+00  0.00000000000E+00  0.34996269501E-01  0.35000000000E-01  0.51099999109E-03 0.  1.
       11   -1    0    0    0    0 -0.00000000000E+00 -0.00000000000E+00 -0.34996269501E-01  0.35000000000E-01  0.51099999109E-03 0. -1.
       22    1    1    2    0    0 -0.18908685017E-02  0.42133223094E-02  0.16293824983E-01  0.16935648826E-01  0.00000000000E+00 0.  1.
       22    1    1    2    0    0 -0.20332634834E-02  0.10691844123E-01  0.14793625761E-01  0.18365757657E-01  0.00000000000E+00 0.  1.
       22    1    1    2    0    0  0.39241319851E-02 -0.14905166433E-01 -0.31087450745E-01  0.34698593517E-01  0.00000000000E+00 0. -1.
</event>
<event>
 5   0  0.4146200E+04  0.9118800E+02  0.7546771E-02  0.1180000E+00
      -11   -1    0    0    0    0  0.00000000000E+00  0.00000000000E+00  0.34996269501E-01  0.35000000000E-01  0.51099999109E-03 0. -1.
       11   -1    0    0    0    0 -0.00000000000E+00 -0.00000000000E+00 -0.34996269501E-01  0.35000000000E-01  0.51099999109E-03 0.  1.
       22    1    1    2    0    0  0.11346803293E-01 -0.92845044314E-02  0.29469187718E-01  0.32914814177E-01  0.00000000000E+00 0. -1.
       22    1    1    2    0    0 -0.12178276193E-01  0.95716178580E-02 -0.31372739960E-01  0.34988213616E-01  0.00000000000E+00 0.  1.
       22    1    1    2    0    0  0.83147290025E-03 -0.28711342663E-03  0.19035522412E-02  0.20969722074E-02  0.00000000000E+00 0. -1.
</event>
<event>
 5   0  0.4146200E+04  0.9118800E+02  0.7546771E-02  0.1180000E+00
      -11   -1    0    0    0    0  0.00000000000E+00  0.00000000000E+00  0.34996269501E-01  0.35000000000E-01  0.51099999109E-03 0.  1.
       11   -1    0    0    0    0 -0.00000000000E+00 -0.00000000000E+00 -0.34996269501E-01  0.35000000000E-01  0.51099999109E-03 0. -1.
       22    1    1    2    0    0  0.37452757681E-03  0.48486073235E-04  0.26501428617E-02  0.26769159480E-02  0.00000000000E+00 0.  1.
       22    1    1    2    0    0 -0.13292216576E-01  0.43874910399E-02 -0.32012811115E-01  0.34939278393E-01  0.00000000000E+00 0. -1.
       22    1    1    2    0    0  0.12917688999E-01 -0.44359771131E-02  0.29362668253E-01  0.32383805659E-01  0.00000000000E+00 0.  1.
</event>
<event>
 5   0  0.4146200E+04  0.9118800E+02  0.7546771E-02  0.1180000E+00
      -11   -1    0    0    0    0  0.00000000000E+00  0.00000000000E+00  0.34996269501E-01  0.35000000000E-01  0.51099999109E-03 0.  1.
       11   -1    0    0    0    0 -0.00000000000E+00 -0.00000000000E+00 -0.34996269501E-01  0.35000000000E-01  0.51099999109E-03 0. -1.
       22    1    1    2    0    0  0.16414225682E-01 -0.48395253834E-04 -0.30659043131E-01  0.34776516107E-01  0.00000000000E+00 0. -1.
       22    1    1    2    0    0 -0.74330560646E-03  0.12946337552E-02  0.16243328265E-02  0.22061361962E-02  0.00000000000E+00 0. -1.
       22    1    1    2    0    0 -0.15670920076E-01 -0.12462385013E-02  0.29034710305E-01  0.33017347696E-01  0.00000000000E+00 0.  1.
</event>
<event>
 5   0  0.4146200E+04  0.9118800E+02  0.7546771E-02  0.1180000E+00
      -11   -1    0    0    0    0  0.00000000000E+00  0.00000000000E+00  0.34996269501E-01  0.35000000000E-01  0.51099999109E-03 0. -1.
       11   -1    0    0    0    0 -0.00000000000E+00 -0.00000000000E+00 -0.34996269501E-01  0.35000000000E-01  0.51099999109E-03 0.  1.
       22    1    1    2    0    0  0.11183824207E-01  0.10380497495E-02 -0.31343272761E-01  0.33294987889E-01  0.00000000000E+00 0.  1.
       22    1    1    2    0    0 -0.91338432417E-02 -0.10245816768E-02  0.53576865203E-02  0.10638687176E-01  0.00000000000E+00 0. -1.
       22    1    1    2    0    0 -0.20499809657E-02 -0.13468072739E-04  0.25985586241E-01  0.26066324935E-01  0.00000000000E+00 0. -1.
</event>
<event>
 5   0  0.4146200E+04  0.9118800E+02  0.7546771E-02  0.1180000E+00
      -11   -1    0    0    0    0  0.00000000000E+00  0.00000000000E+00  0.34996269501E-01  0.35000000000E-01  0.51099999109E-03 0. -1.
       11   -1    0    0    0    0 -0.00000000000E+00 -0.00000000000E+00 -0.34996269501E-01  0.35000000000E-01  0.51099999109E-03 0.  1.
       22    1    1    2    0    0  0.71612696880E-02  0.11859643516E-01 -0.25616712363E-01  0.29123030065E-01  0.00000000000E+00 0.  1.
       22    1    1    2    0    0 -0.53742560674E-02 -0.75692295158E-02  0.31808212982E-01  0.33135151680E-01  0.00000000000E+00 0. -1.
       22    1    1    2    0    0 -0.17870136206E-02 -0.42904140001E-02 -0.61915006189E-02  0.77418182546E-02  0.00000000000E+00 0. -1.
</event>
<event>
 5   0  0.4146200E+04  0.9118800E+02  0.7546771E-02  0.1180000E+00
      -11   -1    0    0    0    0  0.00000000000E+00  0.00000000000E+00  0.34996269501E-01  0.35000000000E-01  0.51099999109E-03 0.  1.
       11   -1    0    0    0    0 -0.00000000000E+00 -0.00000000000E+00 -0.34996269501E-01  0.35000000000E-01  0.51099999109E-03 0. -1.
       22    1    1    2    0    0  0.11364718489E-01 -0.34153223008E-02 -0.30678485419E-01  0.32893627352E-01  0.00000000000E+00 0. -1.
       22    1    1    2    0    0 -0.13994351381E-01  0.15244536592E-02  0.13091944657E-01  0.19224069404E-01  0.00000000000E+00 0.  1.
       22    1    1    2    0    0  0.26296328917E-02  0.18908686416E-02  0.17586540762E-01  0.17882303245E-01  0.00000000000E+00 0.  1.
</event>
<event>
 5   0  0.4146200E+04  0.9118800E+02  0.7546771E-02  0.1180000E+00
      -11   -1    0    0    0    0  0.00000000000E+00  0.00000000000E+00  0.34996269501E-01  0.35000000000E-01  0.51099999109E-03 0.  1.
       11   -1    0    0    0    0 -0.00000000000E+00 -0.00000000000E+00 -0.34996269501E-01  0.35000000000E-01  0.51099999109E-03 0. -1.
       22    1    1    2    0    0  0.14556694450E-02 -0.17720052458E-01 -0.29843285790E-01  0.34738176973E-01  0.00000000000E+00 0. -1.
       22    1    1    2    0    0 -0.96447625315E-03  0.30811353064E-03  0.47967304044E-03  0.11203725346E-02  0.00000000000E+00 0.  1.
       22    1    1    2    0    0 -0.49119319183E-03  0.17411938928E-01  0.29363612750E-01  0.34141450492E-01  0.00000000000E+00 0.  1.
</event>
<event>
 5   0  0.4146200E+04  0.9118800E+02  0.7546771E-02  0.1180000E+00
      -11   -1    0    0    0    0  0.00000000000E+00  0.00000000000E+00  0.34996269501E-01  0.35000000000E-01  0.51099999109E-03 0. -1.
       11   -1    0    0    0    0 -0.00000000000E+00 -0.00000000000E+00 -0.34996269501E-01  0.35000000000E-01  0.51099999109E-03 0.  1.
       22    1    1    2    0    0  0.19115322508E-02 -0.12502594268E-01 -0.32601370340E-01  0.34968817066E-01  0.00000000000E+00 0.  1.
       22    1    1    2    0    0 -0.23760108974E-03  0.37211310083E-03  0.24253426396E-02  0.24651996587E-02  0.00000000000E+00 0. -1.
       22    1    1    2    0    0 -0.16739311610E-02  0.12130481167E-01  0.30176027701E-01  0.32565983275E-01  0.00000000000E+00 0. -1.
</event>
<event>
 5   0  0.4146200E+04  0.9118800E+02  0.7546771E-02  0.1180000E+00
      -11   -1    0    0    0    0  0.00000000000E+00  0.00000000000E+00  0.34996269501E-01  0.35000000000E-01  0.51099999109E-03 0.  1.
       11   -1    0    0    0    0 -0.00000000000E+00 -0.00000000000E+00 -0.34996269501E-01  0.35000000000E-01  0.51099999109E-03 0. -1.
       22    1    1    2    0    0  0.27424949464E-02  0.18133503574E-01 -0.29098441529E-01  0.34395705107E-01  0.00000000000E+00 0. -1.
       22    1    1    2    0    0 -0.84389913993E-04 -0.81588312586E-04 -0.67463443905E-03  0.68476998816E-03  0.00000000000E+00 0.  1.
       22    1    1    2    0    0 -0.26581050324E-02 -0.18051915262E-01  0.29773075968E-01  0.34919524905E-01  0.00000000000E+00 0.  1.
</event>
<event>
 5   0  0.4146200E+04  0.9118800E+02  0.7546771E-02  0.1180000E+00
      -11   -1    0    0    0    0  0.00000000000E+00  0.00000000000E+00  0.34996269501E-01  0.35000000000E-01  0.51099999109E-03 0. -1.
       11   -1    0    0    0    0 -0.00000000000E+00 -0.00000000000E+00 -0.34996269501E-01  0.35000000000E-01  0.51099999109E-03 0.  1.
       22    1    1    2    0    0  0.21552007675E-02 -0.22505069520E-01  0.25066332139E-01  0.33755652140E-01  0.00000000000E+00 0. -1.
       22    1    1    2    0    0  0.11964587919E-02  0.69391714735E-03  0.12750483390E-02  0.18811653077E-02  0.00000000000E+00 0.  1.
       22    1    1    2    0    0 -0.33516595593E-02  0.21811152373E-01 -0.26341380478E-01  0.34363182553E-01  0.00000000000E+00 0.  1.
</event>
<event>
 5   0  0.4146200E+04  0.9118800E+02  0.7546771E-02  0.1180000E+00
      -11   -1    0    0    0    0  0.00000000000E+00  0.00000000000E+00  0.34996269501E-01  0.35000000000E-01  0.51099999109E-03 0.  1.
       11   -1    0    0    0    0 -0.00000000000E+00 -0.00000000000E+00 -0.34996269501E-01  0.35000000000E-01  0.51099999109E-03 0. -1.
       22    1    1    2    0    0  0.16960053311E-03  0.92857019394E-03 -0.26115162794E-01  0.26132216413E-01  0.00000000000E+00 0. -1.
       22    1    1    2    0    0  0.71764192509E-03 -0.44559772130E-02  0.34465443245E-01  0.34759711174E-01  0.00000000000E+00 0.  1.
       22    1    1    2    0    0 -0.88724245820E-03  0.35274070191E-02 -0.83502804512E-02  0.91080724125E-02  0.00000000000E+00 0. -1.
</event>
<event>
 5   0  0.4146200E+04  0.9118800E+02  0.7546771E-02  0.1180000E+00
      -11   -1    0    0    0    0  0.00000000000E+00  0.00000000000E+00  0.34996269501E-01  0.35000000000E-01  0.51099999109E-03 0. -1.
       11   -1    0    0    0    0 -0.00000000000E+00 -0.00000000000E+00 -0.34996269501E-01  0.35000000000E-01  0.51099999109E-03 0. -1.
       22    1    1    2    0    0 -0.22584157493E-03 -0.15073039875E-02 -0.34027511590E-01  0.34061628186E-01  0.00000000000E+00 0. -1.
       22    1    1    2    0    0 -0.22567524686E-03  0.49172900223E-03 -0.86927154313E-03  0.10238944010E-02  0.00000000000E+00 0.  1.
       22    1    1    2    0    0  0.45151682179E-03  0.10155749853E-02  0.34896783133E-01  0.34914477413E-01  0.00000000000E+00 0. -1.
</event>
<event>
 5   0  0.4146200E+04  0.9118800E+02  0.7546771E-02  0.1180000E+00
      -11   -1    0    0    0    0  0.00000000000E+00  0.00000000000E+00  0.34996269501E-01  0.35000000000E-01  0.51099999109E-03 0. -1.
       11   -1    0    0    0    0 -0.00000000000E+00 -0.00000000000E+00 -0.34996269501E-01  0.35000000000E-01  0.51099999109E-03 0.  1.
       22    1    1    2    0    0 -0.26520886703E-02  0.16952455822E-02 -0.33485586886E-01  0.33633197306E-01  0.00000000000E+00 0.  1.
       22    1    1    2    0    0 -0.49676827099E-04  0.59642471064E-03 -0.12842932342E-02  0.14168977853E-02  0.00000000000E+00 0. -1.
       22    1    1    2    0    0  0.27017654974E-02 -0.22916702928E-02  0.34769880121E-01  0.34949904909E-01  0.00000000000E+00 0. -1.
</event>
<event>
 5   0  0.4146200E+04  0.9118800E+02  0.7546771E-02  0.1180000E+00
      -11   -1    0    0    0    0  0.00000000000E+00  0.00000000000E+00  0.34996269501E-01  0.35000000000E-01  0.51099999109E-03 0. -1.
       11   -1    0    0    0    0 -0.00000000000E+00 -0.00000000000E+00 -0.34996269501E-01  0.35000000000E-01  0.51099999109E-03 0.  1.
       22    1    1    2    0    0 -0.10081924307E-01 -0.26153858045E-02 -0.27630212865E-01  0.29528191675E-01  0.00000000000E+00 0.  1.
       22    1    1    2    0    0  0.12306604405E-01 -0.65189298182E-02  0.31920709048E-02  0.14287696617E-01  0.00000000000E+00 0. -1.
       22    1    1    2    0    0 -0.22246800982E-02  0.91343156227E-02  0.24438141960E-01  0.26184111708E-01  0.00000000000E+00 0.  1.
</event>
<event>
 5   0  0.4146200E+04  0.9118800E+02  0.7546771E-02  0.1180000E+00
      -11   -1    0    0    0    0  0.00000000000E+00  0.00000000000E+00  0.34996269501E-01  0.35000000000E-01  0.51099999109E-03 0. -1.
       11   -1    0    0    0    0 -0.00000000000E+00 -0.00000000000E+00 -0.34996269501E-01  0.35000000000E-01  0.51099999109E-03 0.  1.
       22    1    1    2    0    0 -0.70173935820E-02 -0.24261201689E-02 -0.29953207787E-01  0.30859755807E-01  0.00000000000E+00 0.  1.
       22    1    1    2    0    0  0.16453583719E-02 -0.16532992284E-02 -0.39419845340E-02  0.45803760301E-02  0.00000000000E+00 0. -1.
       22    1    1    2    0    0  0.53720352101E-02  0.40794193974E-02  0.33895192321E-01  0.34559868162E-01  0.00000000000E+00 0. -1.
</event>
<event>
 5   0  0.4146200E+04  0.9118800E+02  0.7546771E-02  0.1180000E+00
      -11   -1    0    0    0    0  0.00000000000E+00  0.00000000000E+00  0.34996269501E-01  0.35000000000E-01  0.51099999109E-03 0.  1.
       11   -1    0    0    0    0 -0.00000000000E+00 -0.00000000000E+00 -0.34996269501E-01  0.35000000000E-01  0.51099999109E-03 0. -1.
       22    1    1    2    0    0 -0.57995030774E-02  0.78849254638E-03 -0.33682697245E-01  0.34187425322E-01  0.00000000000E+00 0. -1.
       22    1    1    2    0    0 -0.13905308324E-03  0.28063835170E-03 -0.77220242026E-03  0.83330079939E-03  0.00000000000E+00 0. -1.
       22    1    1    2    0    0  0.59385561607E-02 -0.10691308981E-02  0.34454899665E-01  0.34979273879E-01  0.00000000000E+00 0.  1.
</event>
<event>
 5   0  0.4146200E+04  0.9118800E+02  0.7546771E-02  0.1180000E+00
      -11   -1    0    0    0    0  0.00000000000E+00  0.00000000000E+00  0.34996269501E-01  0.35000000000E-01  0.51099999109E-03 0. -1.
       11   -1    0    0    0    0 -0.00000000000E+00 -0.00000000000E+00 -0.34996269501E-01  0.35000000000E-01  0.51099999109E-03 0.  1.
       22    1    1    2    0    0 -0.62153244163E-02  0.55629261499E-03  0.21369369728E-01  0.22261843627E-01  0.00000000000E+00 0. -1.
       22    1    1    2    0    0  0.16169872980E-01  0.14825336298E-02 -0.30191845356E-01  0.34281339299E-01  0.00000000000E+00 0.  1.
       22    1    1    2    0    0 -0.99545485639E-02 -0.20388262448E-02  0.88224756273E-02  0.13456817074E-01  0.00000000000E+00 0. -1.
</event>
<event>
 5   0  0.4146200E+04  0.9118800E+02  0.7546771E-02  0.1180000E+00
      -11   -1    0    0    0    0  0.00000000000E+00  0.00000000000E+00  0.34996269501E-01  0.35000000000E-01  0.51099999109E-03 0. -1.
       11   -1    0    0    0    0 -0.00000000000E+00 -0.00000000000E+00 -0.34996269501E-01  0.35000000000E-01  0.51099999109E-03 0.  1.
       22    1    1    2    0    0 -0.12691634240E-02 -0.13818466808E-02 -0.33553788533E-01  0.33606204798E-01  0.00000000000E+00 0.  1.
       22    1    1    2    0    0  0.22302136480E-02  0.11557815038E-02  0.34751194328E-01  0.34841859753E-01  0.00000000000E+00 0. -1.
       22    1    1    2    0    0 -0.96105022396E-03  0.22606517705E-03 -0.11974057955E-02  0.15519354485E-02  0.00000000000E+00 0.  1.
</event>
<event>
 5   0  0.4146200E+04  0.9118800E+02  0.7546771E-02  0.1180000E+00
      -11   -1    0    0    0    0  0.00000000000E+00  0.00000000000E+00  0.34996269501E-01  0.35000000000E-01  0.51099999109E-03 0.  1.
       11   -1    0    0    0    0 -0.00000000000E+00 -0.00000000000E+00 -0.34996269501E-01  0.35000000000E-01  0.51099999109E-03 0. -1.
       22    1    1    2    0    0  0.10512205019E-03 -0.35789868642E-03  0.18142120520E-02  0.18521629207E-02  0.00000000000E+00 0. -1.
       22    1    1    2    0    0  0.35712373088E-02 -0.13135139204E-01 -0.32057476630E-01  0.34827681888E-01  0.00000000000E+00 0. -1.
       22    1    1    2    0    0 -0.36763593590E-02  0.13493037891E-01  0.30243264578E-01  0.33320155191E-01  0.00000000000E+00 0.  1.
</event>
<event>
 5   0  0.4146200E+04  0.9118800E+02  0.7546771E-02  0.1180000E+00
      -11   -1    0    0    0    0  0.00000000000E+00  0.00000000000E+00  0.34996269501E-01  0.35000000000E-01  0.51099999109E-03 0.  1.
       11   -1    0    0    0    0 -0.00000000000E+00 -0.00000000000E+00 -0.34996269501E-01  0.35000000000E-01  0.51099999109E-03 0. -1.
       22    1    1    2    0    0  0.12688473063E-02 -0.14933570525E-01  0.31510630751E-01  0.34893285206E-01  0.00000000000E+00 0.  1.
       22    1    1    2    0    0 -0.22089509125E-03 -0.19638829655E-03 -0.85494561343E-03  0.90459659864E-03  0.00000000000E+00 0.  1.
       22    1    1    2    0    0 -0.10479522151E-02  0.15129958822E-01 -0.30655685138E-01  0.34202118196E-01  0.00000000000E+00 0. -1.
</event>
<event>
 5   0  0.4146200E+04  0.9118800E+02  0.7546771E-02  0.1180000E+00
      -11   -1    0    0    0    0  0.00000000000E+00  0.00000000000E+00  0.34996269501E-01  0.35000000000E-01  0.51099999109E-03 0.  1.
       11   -1    0    0    0    0 -0.00000000000E+00 -0.00000000000E+00 -0.34996269501E-01  0.35000000000E-01  0.51099999109E-03 0. -1.
       22    1    1    2    0    0  0.73845545850E-02 -0.17870732535E-01  0.27425744391E-01  0.33556909619E-01  0.00000000000E+00 0.  1.
       22    1    1    2    0    0  0.15723071482E-04  0.29954907385E-03  0.16481705708E-02  0.16752441891E-02  0.00000000000E+00 0.  1.
       22    1    1    2    0    0 -0.74002776565E-02  0.17571183461E-01 -0.29073914962E-01  0.34767846192E-01  0.00000000000E+00 0. -1.
</event>
<event>
 5   0  0.4146200E+04  0.9118800E+02  0.7546771E-02  0.1180000E+00
      -11   -1    0    0    0    0  0.00000000000E+00  0.00000000000E+00  0.34996269501E-01  0.35000000000E-01  0.51099999109E-03 0. -1.
       11   -1    0    0    0    0 -0.00000000000E+00 -0.00000000000E+00 -0.34996269501E-01  0.35000000000E-01  0.51099999109E-03 0.  1.
       22    1    1    2    0    0 -0.26178367262E-02  0.30686339894E-02 -0.86294943385E-02  0.95256367884E-02  0.00000000000E+00 0.  1.
       22    1    1    2    0    0 -0.10970713900E-01  0.49124822194E-02 -0.22541490846E-01  0.25546190608E-01  0.00000000000E+00 0.  1.
       22    1    1    2    0    0  0.13588550627E-01 -0.79811162089E-02  0.31170985184E-01  0.34928172604E-01  0.00000000000E+00 0. -1.
</event>
<event>
 5   0  0.4146200E+04  0.9118800E+02  0.7546771E-02  0.1180000E+00
      -11   -1    0    0    0    0  0.00000000000E+00  0.00000000000E+00  0.34996269501E-01  0.35000000000E-01  0.51099999109E-03 0. -1.
       11   -1    0    0    0    0 -0.00000000000E+00 -0.00000000000E+00 -0.34996269501E-01  0.35000000000E-01  0.51099999109E-03 0.  1.
       22    1    1    2    0    0  0.46818003065E-02 -0.20802695104E-02  0.34427123637E-01  0.34806229576E-01  0.00000000000E+00 0. -1.
       22    1    1    2    0    0 -0.13961964052E-02  0.80534989431E-03 -0.19676876194E-02  0.25435698185E-02  0.00000000000E+00 0. -1.
       22    1    1    2    0    0 -0.32856039013E-02  0.12749196161E-02 -0.32459436018E-01  0.32650200606E-01  0.00000000000E+00 0.  1.
</event>
<event>
 5   0  0.4146200E+04  0.9118800E+02  0.7546771E-02  0.1180000E+00
      -11   -1    0    0    0    0  0.00000000000E+00  0.00000000000E+00  0.34996269501E-01  0.35000000000E-01  0.51099999109E-03 0. -1.
       11   -1    0    0    0    0 -0.00000000000E+00 -0.00000000000E+00 -0.34996269501E-01  0.35000000000E-01  0.51099999109E-03 0.  1.
       22    1    1    2    0    0 -0.15375539444E-01 -0.63748026700E-03 -0.31247279257E-01  0.34831107580E-01  0.00000000000E+00 0.  1.
       22    1    1    2    0    0  0.15731243548E-01  0.62210783296E-03  0.30853018413E-01  0.34637664282E-01  0.00000000000E+00 0. -1.
       22    1    1    2    0    0 -0.35570410399E-03  0.15372434044E-04  0.39426084371E-03  0.53122813763E-03  0.00000000000E+00 0. -1.
</event>
<event>
 5   0  0.4146200E+04  0.9118800E+02  0.7546771E-02  0.1180000E+00
      -11   -1    0    0    0    0  0.00000000000E+00  0.00000000000E+00  0.34996269501E-01  0.35000000000E-01  0.51099999109E-03 0. -1.
       11   -1    0    0    0    0 -0.00000000000E+00 -0.00000000000E+00 -0.34996269501E-01  0.35000000000E-01  0.51099999109E-03 0. -1.
       22    1    1    2    0    0  0.36427923697E-02 -0.17885464277E-02 -0.26224831267E-01  0.26536966849E-01  0.00000000000E+00 0. -1.
       22    1    1    2    0    0 -0.00000000000E+00  0.00000000000E+00  0.34366543039E-01  0.34365983896E-01  0.00000000000E+00 0. -1.
       22    1    1    2    0    0 -0.36427923697E-02  0.17885464277E-02 -0.81417117725E-02  0.90970492556E-02  0.00000000000E+00 0.  1.
</event>
<event>
 5   0  0.4146200E+04  0.9118800E+02  0.7546771E-02  0.1180000E+00
      -11   -1    0    0    0    0  0.00000000000E+00  0.00000000000E+00  0.34996269501E-01  0.35000000000E-01  0.51099999109E-03 0. -1.
       11   -1    0    0    0    0 -0.00000000000E+00 -0.00000000000E+00 -0.34996269501E-01  0.35000000000E-01  0.51099999109E-03 0.  1.
       22    1    1    2    0    0 -0.24135167585E-02  0.14344167667E-02 -0.28528618778E-01  0.28666438634E-01  0.00000000000E+00 0.  1.
       22    1    1    2    0    0 -0.21418959615E-02 -0.11940648456E-03  0.34014816362E-01  0.34082395872E-01  0.00000000000E+00 0. -1.
       22    1    1    2    0    0  0.45554127199E-02 -0.13150102821E-02 -0.54861975839E-02  0.72511654940E-02  0.00000000000E+00 0. -1.
</event>
<event>
 5   0  0.4146200E+04  0.9118800E+02  0.7546771E-02  0.1180000E+00
      -11   -1    0    0    0    0  0.00000000000E+00  0.00000000000E+00  0.34996269501E-01  0.35000000000E-01  0.51099999109E-03 0. -1.
       11   -1    0    0    0    0 -0.00000000000E+00 -0.00000000000E+00 -0.34996269501E-01  0.35000000000E-01  0.51099999109E-03 0.  1.
       22    1    1    2    0    0 -0.13578369397E-03 -0.34475031633E-03 -0.34295654163E-01  0.34297655670E-01  0.00000000000E+00 0.  1.
       22    1    1    2    0    0  0.29576777076E-03  0.61306937037E-03  0.34960834357E-01  0.34967460182E-01  0.00000000000E+00 0. -1.
       22    1    1    2    0    0 -0.15998407679E-03 -0.26831905404E-03 -0.66518019429E-03  0.73488414765E-03  0.00000000000E+00 0. -1.
</event>
<event>
 5   0  0.4146200E+04  0.9118800E+02  0.7546771E-02  0.1180000E+00
      -11   -1    0    0    0    0  0.00000000000E+00  0.00000000000E+00  0.34996269501E-01  0.35000000000E-01  0.51099999109E-03 0. -1.
       11   -1    0    0    0    0 -0.00000000000E+00 -0.00000000000E+00 -0.34996269501E-01  0.35000000000E-01  0.51099999109E-03 0. -1.
       22    1    1    2    0    0  0.28310490159E-03  0.20383643281E-03  0.34340712580E-01  0.34342484450E-01  0.00000000000E+00 0. -1.
       22    1    1    2    0    0 -0.11317292252E-02  0.33283968512E-02 -0.51134340934E-02  0.62053400282E-02  0.00000000000E+00 0.  1.
       22    1    1    2    0    0  0.84862432362E-03 -0.35322332840E-02 -0.29227278487E-01  0.29452175522E-01  0.00000000000E+00 0. -1.
</event>
<event>
 5   0  0.4146200E+04  0.9118800E+02  0.7546771E-02  0.1180000E+00
      -11   -1    0    0    0    0  0.00000000000E+00  0.00000000000E+00  0.34996269501E-01  0.35000000000E-01  0.51099999109E-03 0.  1.
       11   -1    0    0    0    0 -0.00000000000E+00 -0.00000000000E+00 -0.34996269501E-01  0.35000000000E-01  0.51099999109E-03 0. -1.
       22    1    1    2    0    0  0.10107685960E-01 -0.16244991729E-01 -0.20934701128E-01  0.28360655547E-01  0.00000000000E+00 0. -1.
       22    1    1    2    0    0 -0.23565234273E-03 -0.10182554903E-03 -0.74359487935E-02  0.74403786818E-02  0.00000000000E+00 0. -1.
       22    1    1    2    0    0 -0.98720336171E-02  0.16346817278E-01  0.28370649922E-01  0.34198965771E-01  0.00000000000E+00 0.  1.
</event>
<event>
 5   0  0.4146200E+04  0.9118800E+02  0.7546771E-02  0.1180000E+00
      -11   -1    0    0    0    0  0.00000000000E+00  0.00000000000E+00  0.34996269501E-01  0.35000000000E-01  0.51099999109E-03 0. -1.
       11   -1    0    0    0    0 -0.00000000000E+00 -0.00000000000E+00 -0.34996269501E-01  0.35000000000E-01  0.51099999109E-03 0.  1.
       22    1    1    2    0    0 -0.21415991002E-02 -0.46901472089E-02 -0.18753432036E-01  0.19449296663E-01  0.00000000000E+00 0.  1.
       22    1    1    2    0    0 -0.66909605329E-02  0.83735065208E-02  0.32261980556E-01  0.33995881423E-01  0.00000000000E+00 0. -1.
       22    1    1    2    0    0  0.88325596332E-02 -0.36833593119E-02 -0.13508548520E-01  0.16554821915E-01  0.00000000000E+00 0.  1.
</event>
<event>
 5   0  0.4146200E+04  0.9118800E+02  0.7546771E-02  0.1180000E+00
      -11   -1    0    0    0    0  0.00000000000E+00  0.00000000000E+00  0.34996269501E-01  0.35000000000E-01  0.51099999109E-03 0. -1.
       11   -1    0    0    0    0 -0.00000000000E+00 -0.00000000000E+00 -0.34996269501E-01  0.35000000000E-01  0.51099999109E-03 0.  1.
       22    1    1    2    0    0 -0.86331458253E-02  0.27881822011E-02 -0.21534191886E-01  0.23367211793E-01  0.00000000000E+00 0.  1.
       22    1    1    2    0    0  0.64406302439E-02 -0.27101623411E-02  0.33625598062E-01  0.34343959336E-01  0.00000000000E+00 0. -1.
       22    1    1    2    0    0  0.21925155814E-02 -0.78019859988E-04 -0.12091406177E-01  0.12288828870E-01  0.00000000000E+00 0. -1.
</event>
<event>
 5   0  0.4146200E+04  0.9118800E+02  0.7546771E-02  0.1180000E+00
      -11   -1    0    0    0    0  0.00000000000E+00  0.00000000000E+00  0.34996269501E-01  0.35000000000E-01  0.51099999109E-03 0. -1.
       11   -1    0    0    0    0 -0.00000000000E+00 -0.00000000000E+00 -0.34996269501E-01  0.35000000000E-01  0.51099999109E-03 0.  1.
       22    1    1    2    0    0 -0.25612881901E-02  0.52998907523E-03  0.11935053421E-01  0.12218288988E-01  0.00000000000E+00 0. -1.
       22    1    1    2    0    0  0.40248401583E-02  0.16331895142E-01  0.17218742784E-01  0.24071045684E-01  0.00000000000E+00 0. -1.
       22    1    1    2    0    0 -0.14635519682E-02 -0.16861884218E-01 -0.29153796205E-01  0.33710665329E-01  0.00000000000E+00 0.  1.
</event>
<event>
 5   0  0.4146200E+04  0.9118800E+02  0.7546771E-02  0.1180000E+00
      -11   -1    0    0    0    0  0.00000000000E+00  0.00000000000E+00  0.34996269501E-01  0.35000000000E-01  0.51099999109E-03 0.  1.
       11   -1    0    0    0    0 -0.00000000000E+00 -0.00000000000E+00 -0.34996269501E-01  0.35000000000E-01  0.51099999109E-03 0. -1.
       22    1    1    2    0    0  0.42358445406E-04 -0.15359396197E-04 -0.39985903815E-03  0.40238961137E-03  0.00000000000E+00 0.  1.
       22    1    1    2    0    0  0.14590771398E-01 -0.60332811151E-02 -0.30799256305E-01  0.34610479337E-01  0.00000000000E+00 0. -1.
       22    1    1    2    0    0 -0.14633129844E-01  0.60486405113E-02  0.31199115343E-01  0.34987131052E-01  0.00000000000E+00 0.  1.
</event>
<event>
 5   0  0.4146200E+04  0.9118800E+02  0.7546771E-02  0.1180000E+00
      -11   -1    0    0    0    0  0.00000000000E+00  0.00000000000E+00  0.34996269501E-01  0.35000000000E-01  0.51099999109E-03 0. -1.
       11   -1    0    0    0    0 -0.00000000000E+00 -0.00000000000E+00 -0.34996269501E-01  0.35000000000E-01  0.51099999109E-03 0.  1.
       22    1    1    2    0    0 -0.15817172838E-01  0.15406716576E-01  0.26474801840E-01  0.34474120797E-01  0.00000000000E+00 0. -1.
       22    1    1    2    0    0  0.22858973924E-03  0.27821910795E-03  0.51826910272E-03  0.63108002959E-03  0.00000000000E+00 0.  1.
       22    1    1    2    0    0  0.15588583099E-01 -0.15684935683E-01 -0.26993070943E-01  0.34894799174E-01  0.00000000000E+00 0.  1.
</event>
<event>
 5   0  0.4146200E+04  0.9118800E+02  0.7546771E-02  0.1180000E+00
      -11   -1    0    0    0    0  0.00000000000E+00  0.00000000000E+00  0.34996269501E-01  0.35000000000E-01  0.51099999109E-03 0. -1.
       11   -1    0    0    0    0 -0.00000000000E+00 -0.00000000000E+00 -0.34996269501E-01  0.35000000000E-01  0.51099999109E-03 0.  1.
       22    1    1    2    0    0 -0.13629741574E-02  0.12805559746E-02 -0.33528994294E-01  0.33581110471E-01  0.00000000000E+00 0.  1.
       22    1    1    2    0    0  0.18225632719E-02 -0.17689945626E-02  0.34847328723E-01  0.34939768142E-01  0.00000000000E+00 0. -1.
       22    1    1    2    0    0 -0.45958911453E-03  0.48843858799E-03 -0.13183344298E-02  0.14791213869E-02  0.00000000000E+00 0.  1.
</event>
<event>
 5   0  0.4146200E+04  0.9118800E+02  0.7546771E-02  0.1180000E+00
      -11   -1    0    0    0    0  0.00000000000E+00  0.00000000000E+00  0.34996269501E-01  0.35000000000E-01  0.51099999109E-03 0.  1.
       11   -1    0    0    0    0 -0.00000000000E+00 -0.00000000000E+00 -0.34996269501E-01  0.35000000000E-01  0.51099999109E-03 0. -1.
       22    1    1    2    0    0  0.12526302104E-01 -0.19806969866E-01  0.25497105502E-01  0.34631296376E-01  0.00000000000E+00 0.  1.
       22    1    1    2    0    0  0.24527596241E-03 -0.11527147636E-03 -0.20066992705E-02  0.20249172263E-02  0.00000000000E+00 0.  1.
       22    1    1    2    0    0 -0.12771578066E-01  0.19922241343E-01 -0.23490406232E-01  0.33343786398E-01  0.00000000000E+00 0. -1.
</event>
<event>
 5   0  0.4146200E+04  0.9118800E+02  0.7546771E-02  0.1180000E+00
      -11   -1    0    0    0    0  0.00000000000E+00  0.00000000000E+00  0.34996269501E-01  0.35000000000E-01  0.51099999109E-03 0.  1.
       11   -1    0    0    0    0 -0.00000000000E+00 -0.00000000000E+00 -0.34996269501E-01  0.35000000000E-01  0.51099999109E-03 0.  1.
       22    1    1    2    0    0  0.17037634207E-02 -0.11440122783E-04  0.34846401161E-01  0.34888029674E-01  0.00000000000E+00 0.  1.
       22    1    1    2    0    0 -0.11449143973E-02 -0.26202909964E-03 -0.25273532738E-02  0.27869343008E-02  0.00000000000E+00 0.  1.
       22    1    1    2    0    0 -0.55884902343E-03  0.27346922242E-03 -0.32319047888E-01  0.32325036025E-01  0.00000000000E+00 0.  1.
</event>
<event>
 5   0  0.4146200E+04  0.9118800E+02  0.7546771E-02  0.1180000E+00
      -11   -1    0    0    0    0  0.00000000000E+00  0.00000000000E+00  0.34996269501E-01  0.35000000000E-01  0.51099999109E-03 0. -1.
       11   -1    0    0    0    0 -0.00000000000E+00 -0.00000000000E+00 -0.34996269501E-01  0.35000000000E-01  0.51099999109E-03 0.  1.
       22    1    1    2    0    0 -0.41613635336E-03  0.24262993121E-03 -0.10876948530E-02  0.11895876771E-02  0.00000000000E+00 0. -1.
       22    1    1    2    0    0 -0.22799128709E-02  0.41413434471E-02  0.34591788837E-01  0.34913329592E-01  0.00000000000E+00 0. -1.
       22    1    1    2    0    0  0.26960492243E-02 -0.43839733783E-02 -0.33504093984E-01  0.33897082731E-01  0.00000000000E+00 0.  1.
</event>
<event>
 5   0  0.4146200E+04  0.9118800E+02  0.7546771E-02  0.1180000E+00
      -11   -1    0    0    0    0  0.00000000000E+00  0.00000000000E+00  0.34996269501E-01  0.35000000000E-01  0.51099999109E-03 0. -1.
       11   -1    0    0    0    0 -0.00000000000E+00 -0.00000000000E+00 -0.34996269501E-01  0.35000000000E-01  0.51099999109E-03 0.  1.
       22    1    1    2    0    0  0.16830225864E-02 -0.25738297585E-02 -0.29542592079E-01  0.29702220647E-01  0.00000000000E+00 0.  1.
       22    1    1    2    0    0 -0.13631219886E-03 -0.12925199834E-02  0.34099778004E-01  0.34124537343E-01  0.00000000000E+00 0. -1.
       22    1    1    2    0    0 -0.15467103875E-02  0.38663497419E-02 -0.45571859257E-02  0.61732420098E-02  0.00000000000E+00 0. -1.
</event>
<event>
 5   0  0.4146200E+04  0.9118800E+02  0.7546771E-02  0.1180000E+00
      -11   -1    0    0    0    0  0.00000000000E+00  0.00000000000E+00  0.34996269501E-01  0.35000000000E-01  0.51099999109E-03 0.  1.
       11   -1    0    0    0    0 -0.00000000000E+00 -0.00000000000E+00 -0.34996269501E-01  0.35000000000E-01  0.51099999109E-03 0. -1.
       22    1    1    2    0    0  0.11709207140E-01  0.97153533015E-02 -0.29669554950E-01  0.33343306863E-01  0.00000000000E+00 0. -1.
       22    1    1    2    0    0 -0.18259258963E-02 -0.10756264677E-04 -0.16183181568E-02  0.24398923609E-02  0.00000000000E+00 0.  1.
       22    1    1    2    0    0 -0.98832812435E-02 -0.97045970368E-02  0.31287873107E-01  0.34216800776E-01  0.00000000000E+00 0.  1.
</event>
<event>
 5   0  0.4146200E+04  0.9118800E+02  0.7546771E-02  0.1180000E+00
      -11   -1    0    0    0    0  0.00000000000E+00  0.00000000000E+00  0.34996269501E-01  0.35000000000E-01  0.51099999109E-03 0. -1.
       11   -1    0    0    0    0 -0.00000000000E+00 -0.00000000000E+00 -0.34996269501E-01  0.35000000000E-01  0.51099999109E-03 0.  1.
       22    1    1    2    0    0 -0.12426444374E-01 -0.10832530373E-01  0.20760898120E-01  0.26509906163E-01  0.00000000000E+00 0. -1.
       22    1    1    2    0    0 -0.18406774272E-02 -0.19809002829E-03  0.87289487628E-02  0.89231092986E-02  0.00000000000E+00 0.  1.
       22    1    1    2    0    0  0.14267121801E-01  0.11030620401E-01 -0.29489846883E-01  0.34566984538E-01  0.00000000000E+00 0.  1.
</event>
<event>
 5   0  0.4146200E+04  0.9118800E+02  0.7546771E-02  0.1180000E+00
      -11   -1    0    0    0    0  0.00000000000E+00  0.00000000000E+00  0.34996269501E-01  0.35000000000E-01  0.51099999109E-03 0.  1.
       11   -1    0    0    0    0 -0.00000000000E+00 -0.00000000000E+00 -0.34996269501E-01  0.35000000000E-01  0.51099999109E-03 0.  1.
       22    1    1    2    0    0  0.86887667726E-03  0.41559705150E-03 -0.12673345598E-02  0.15917928495E-02  0.00000000000E+00 0. -1.
       22    1    1    2    0    0 -0.17833043635E-02  0.22275824861E-02  0.34720886022E-01  0.34837942309E-01  0.00000000000E+00 0.  1.
       22    1    1    2    0    0  0.91442768624E-03 -0.26431795376E-02 -0.33453551462E-01  0.33570264841E-01  0.00000000000E+00 0.  1.
</event>
<event>
 5   0  0.4146200E+04  0.9118800E+02  0.7546771E-02  0.1180000E+00
      -11   -1    0    0    0    0  0.00000000000E+00  0.00000000000E+00  0.34996269501E-01  0.35000000000E-01  0.51099999109E-03 0. -1.
       11   -1    0    0    0    0 -0.00000000000E+00 -0.00000000000E+00 -0.34996269501E-01  0.35000000000E-01  0.51099999109E-03 0.  1.
       22    1    1    2    0    0 -0.34840941237E-02  0.46454180356E-02 -0.29907069896E-01  0.30465581405E-01  0.00000000000E+00 0.  1.
       22    1    1    2    0    0  0.20504244672E-02 -0.54346431515E-02  0.34330255522E-01  0.34818185347E-01  0.00000000000E+00 0. -1.
       22    1    1    2    0    0  0.14336696565E-02  0.78922511586E-03 -0.44231856257E-02  0.47162332477E-02  0.00000000000E+00 0. -1.
</event>
<event>
 5   0  0.4146200E+04  0.9118800E+02  0.7546771E-02  0.1180000E+00
      -11   -1    0    0    0    0  0.00000000000E+00  0.00000000000E+00  0.34996269501E-01  0.35000000000E-01  0.51099999109E-03 0.  1.
       11   -1    0    0    0    0 -0.00000000000E+00 -0.00000000000E+00 -0.34996269501E-01  0.35000000000E-01  0.51099999109E-03 0. -1.
       22    1    1    2    0    0 -0.65325921538E-02 -0.70435848285E-02 -0.10752462300E-01  0.14418817323E-01  0.00000000000E+00 0.  1.
       22    1    1    2    0    0 -0.51371646887E-03  0.16538765862E-05 -0.21663215277E-01  0.21669305561E-01  0.00000000000E+00 0. -1.
       22    1    1    2    0    0  0.70463086227E-02  0.70419309520E-02  0.32415677577E-01  0.33911877116E-01  0.00000000000E+00 0. -1.
</event>
<event>
 5   0  0.4146200E+04  0.9118800E+02  0.7546771E-02  0.1180000E+00
      -11   -1    0    0    0    0  0.00000000000E+00  0.00000000000E+00  0.34996269501E-01  0.35000000000E-01  0.51099999109E-03 0. -1.
       11   -1    0    0    0    0 -0.00000000000E+00 -0.00000000000E+00 -0.34996269501E-01  0.35000000000E-01  0.51099999109E-03 0.  1.
       22    1    1    2    0    0 -0.32386576163E-01  0.11276648182E-02  0.47371314192E-03  0.32409664418E-01  0.00000000000E+00 0. -1.
       22    1    1    2    0    0  0.42786194139E-03 -0.18157362804E-02 -0.49709108527E-02  0.53094179329E-02  0.00000000000E+00 0.  1.
       22    1    1    2    0    0  0.31958714222E-01  0.68807146213E-03  0.44971977108E-02  0.32280917650E-01  0.00000000000E+00 0.  1.
</event>
<event>
 5   0  0.4146200E+04  0.9118800E+02  0.7546771E-02  0.1180000E+00
      -11   -1    0    0    0    0  0.00000000000E+00  0.00000000000E+00  0.34996269501E-01  0.35000000000E-01  0.51099999109E-03 0. -1.
       11   -1    0    0    0    0 -0.00000000000E+00 -0.00000000000E+00 -0.34996269501E-01  0.35000000000E-01  0.51099999109E-03 0.  1.
       22    1    1    2    0    0  0.18562750896E-03 -0.60247596878E-03 -0.15682273512E-02  0.16901987724E-02  0.00000000000E+00 0. -1.
       22    1    1    2    0    0 -0.12610806437E-02  0.11002006126E-02 -0.33339743975E-01  0.33381720957E-01  0.00000000000E+00 0.  1.
       22    1    1    2    0    0  0.10754531347E-02 -0.49772464385E-03  0.34907971326E-01  0.34928080270E-01  0.00000000000E+00 0. -1.
</event>
<event>
 5   0  0.4146200E+04  0.9118800E+02  0.7546771E-02  0.1180000E+00
      -11   -1    0    0    0    0  0.00000000000E+00  0.00000000000E+00  0.34996269501E-01  0.35000000000E-01  0.51099999109E-03 0.  1.
       11   -1    0    0    0    0 -0.00000000000E+00 -0.00000000000E+00 -0.34996269501E-01  0.35000000000E-01  0.51099999109E-03 0. -1.
       22    1    1    2    0    0  0.12819011662E-01  0.11977660964E-01 -0.30058695197E-01  0.34803973611E-01  0.00000000000E+00 0. -1.
       22    1    1    2    0    0 -0.13155583379E-01 -0.10939607783E-01  0.27174243998E-01  0.32112052711E-01  0.00000000000E+00 0.  1.
       22    1    1    2    0    0  0.33657171711E-03 -0.10380531807E-02  0.28844511993E-02  0.30839736782E-02  0.00000000000E+00 0.  1.
</event>
<event>
 5   0  0.4146200E+04  0.9118800E+02  0.7546771E-02  0.1180000E+00
      -11   -1    0    0    0    0  0.00000000000E+00  0.00000000000E+00  0.34996269501E-01  0.35000000000E-01  0.51099999109E-03 0. -1.
       11   -1    0    0    0    0 -0.00000000000E+00 -0.00000000000E+00 -0.34996269501E-01  0.35000000000E-01  0.51099999109E-03 0.  1.
       22    1    1    2    0    0 -0.12491999044E-01 -0.32928746913E-02 -0.32412615332E-01  0.34892272734E-01  0.00000000000E+00 0.  1.
       22    1    1    2    0    0 -0.77511875154E-04 -0.25059126875E-04  0.23900263720E-02  0.23914142489E-02  0.00000000000E+00 0. -1.
       22    1    1    2    0    0  0.12569510919E-01  0.33179338181E-02  0.30022588960E-01  0.32716313017E-01  0.00000000000E+00 0. -1.
</event>
<event>
 5   0  0.4146200E+04  0.9118800E+02  0.7546771E-02  0.1180000E+00
      -11   -1    0    0    0    0  0.00000000000E+00  0.00000000000E+00  0.34996269501E-01  0.35000000000E-01  0.51099999109E-03 0. -1.
       11   -1    0    0    0    0 -0.00000000000E+00 -0.00000000000E+00 -0.34996269501E-01  0.35000000000E-01  0.51099999109E-03 0.  1.
       22    1    1    2    0    0 -0.17258172895E-01  0.18532189700E-02 -0.25806109024E-01  0.31100389309E-01  0.00000000000E+00 0.  1.
       22    1    1    2    0    0 -0.17632984214E-03  0.33082223468E-05 -0.41693138835E-02  0.41730422256E-02  0.00000000000E+00 0. -1.
       22    1    1    2    0    0  0.17434502737E-01 -0.18565271924E-02  0.29975422907E-01  0.34726568465E-01  0.00000000000E+00 0. -1.
</event>
<event>
 5   0  0.4146200E+04  0.9118800E+02  0.7546771E-02  0.1180000E+00
      -11   -1    0    0    0    0  0.00000000000E+00  0.00000000000E+00  0.34996269501E-01  0.35000000000E-01  0.51099999109E-03 0. -1.
       11   -1    0    0    0    0 -0.00000000000E+00 -0.00000000000E+00 -0.34996269501E-01  0.35000000000E-01  0.51099999109E-03 0.  1.
       22    1    1    2    0    0 -0.41217287478E-03  0.41183794095E-03 -0.38789548944E-03  0.69997134158E-03  0.00000000000E+00 0. -1.
       22    1    1    2    0    0 -0.46817195121E-02 -0.12110619975E-01  0.32364394136E-01  0.34871759657E-01  0.00000000000E+00 0. -1.
       22    1    1    2    0    0  0.50938923869E-02  0.11698782034E-01 -0.31976498647E-01  0.34428269001E-01  0.00000000000E+00 0.  1.
</event>
<event>
 5   0  0.4146200E+04  0.9118800E+02  0.7546771E-02  0.1180000E+00
      -11   -1    0    0    0    0  0.00000000000E+00  0.00000000000E+00  0.34996269501E-01  0.35000000000E-01  0.51099999109E-03 0. -1.
       11   -1    0    0    0    0 -0.00000000000E+00 -0.00000000000E+00 -0.34996269501E-01  0.35000000000E-01  0.51099999109E-03 0.  1.
       22    1    1    2    0    0 -0.39461517974E-03 -0.78833491067E-03 -0.89998186088E-03  0.12598255520E-02  0.00000000000E+00 0. -1.
       22    1    1    2    0    0  0.32001951986E-02  0.21368875033E-02  0.34641902400E-01  0.34854970081E-01  0.00000000000E+00 0. -1.
       22    1    1    2    0    0 -0.28055800189E-02 -0.13485525926E-02 -0.33741920539E-01  0.33885204367E-01  0.00000000000E+00 0.  1.
</event>
<event>
 5   0  0.4146200E+04  0.9118800E+02  0.7546771E-02  0.1180000E+00
      -11   -1    0    0    0    0  0.00000000000E+00  0.00000000000E+00  0.34996269501E-01  0.35000000000E-01  0.51099999109E-03 0.  1.
       11   -1    0    0    0    0 -0.00000000000E+00 -0.00000000000E+00 -0.34996269501E-01  0.35000000000E-01  0.51099999109E-03 0.  1.
       22    1    1    2    0    0 -0.34785633814E-02  0.25649629870E-02 -0.24456154797E-01  0.24835115176E-01  0.00000000000E+00 0.  1.
       22    1    1    2    0    0 -0.42209944526E-04 -0.80316766662E-04  0.34362112310E-01  0.34362232099E-01  0.00000000000E+00 0.  1.
       22    1    1    2    0    0  0.35207733259E-02 -0.24846462203E-02 -0.99059575125E-02  0.10802652725E-01  0.00000000000E+00 0. -1.
</event>
<event>
 5   0  0.4146200E+04  0.9118800E+02  0.7546771E-02  0.1180000E+00
      -11   -1    0    0    0    0  0.00000000000E+00  0.00000000000E+00  0.34996269501E-01  0.35000000000E-01  0.51099999109E-03 0. -1.
       11   -1    0    0    0    0 -0.00000000000E+00 -0.00000000000E+00 -0.34996269501E-01  0.35000000000E-01  0.51099999109E-03 0.  1.
       22    1    1    2    0    0  0.44093035200E-03 -0.84788298487E-03 -0.36434945835E-02  0.37667463296E-02  0.00000000000E+00 0. -1.
       22    1    1    2    0    0 -0.14698815228E-01  0.17794241894E-01  0.25998849028E-01  0.34765361561E-01  0.00000000000E+00 0. -1.
       22    1    1    2    0    0  0.14257884876E-01 -0.16946358909E-01 -0.22355354445E-01  0.31467892109E-01  0.00000000000E+00 0.  1.
</event>
<event>
 5   0  0.4146200E+04  0.9118800E+02  0.7546771E-02  0.1180000E+00
      -11   -1    0    0    0    0  0.00000000000E+00  0.00000000000E+00  0.34996269501E-01  0.35000000000E-01  0.51099999109E-03 0. -1.
       11   -1    0    0    0    0 -0.00000000000E+00 -0.00000000000E+00 -0.34996269501E-01  0.35000000000E-01  0.51099999109E-03 0.  1.
       22    1    1    2    0    0  0.50388212706E-03 -0.29951229569E-04  0.12346394895E-01  0.12356709156E-01  0.00000000000E+00 0. -1.
       22    1    1    2    0    0  0.42484238649E-02 -0.11850050693E-01  0.19563423500E-01  0.23263713070E-01  0.00000000000E+00 0. -1.
       22    1    1    2    0    0 -0.47523059920E-02  0.11880001923E-01 -0.31909818395E-01  0.34379577774E-01  0.00000000000E+00 0.  1.
</event>
<event>
 5   0  0.4146200E+04  0.9118800E+02  0.7546771E-02  0.1180000E+00
      -11   -1    0    0    0    0  0.00000000000E+00  0.00000000000E+00  0.34996269501E-01  0.35000000000E-01  0.51099999109E-03 0.  1.
       11   -1    0    0    0    0 -0.00000000000E+00 -0.00000000000E+00 -0.34996269501E-01  0.35000000000E-01  0.51099999109E-03 0. -1.
       22    1    1    2    0    0 -0.66121956125E-04 -0.16486467679E-04  0.25366537737E-02  0.25375689713E-02  0.00000000000E+00 0.  1.
       22    1    1    2    0    0 -0.12981877550E-01 -0.11226265952E-01 -0.30281061359E-01  0.34806621051E-01  0.00000000000E+00 0. -1.
       22    1    1    2    0    0  0.13047999506E-01  0.11242752420E-01  0.27744407585E-01  0.32655809978E-01  0.00000000000E+00 0.  1.
</event>
<event>
 5   0  0.4146200E+04  0.9118800E+02  0.7546771E-02  0.1180000E+00
      -11   -1    0    0    0    0  0.00000000000E+00  0.00000000000E+00  0.34996269501E-01  0.35000000000E-01  0.51099999109E-03 0.  1.
       11   -1    0    0    0    0 -0.00000000000E+00 -0.00000000000E+00 -0.34996269501E-01  0.35000000000E-01  0.51099999109E-03 0. -1.
       22    1    1    2    0    0 -0.20056938747E-02 -0.16849889215E-02 -0.61794143109E-02  0.67117178733E-02  0.00000000000E+00 0.  1.
       22    1    1    2    0    0 -0.45107938346E-02  0.29487811397E-01 -0.87193914004E-02  0.31079029399E-01  0.00000000000E+00 0. -1.
       22    1    1    2    0    0  0.65164877094E-02 -0.27802822475E-01  0.14898805711E-01  0.32209252728E-01  0.00000000000E+00 0.  1.
</event>
<event>
 5   0  0.4146200E+04  0.9118800E+02  0.7546771E-02  0.1180000E+00
      -11   -1    0    0    0    0  0.00000000000E+00  0.00000000000E+00  0.34996269501E-01  0.35000000000E-01  0.51099999109E-03 0. -1.
       11   -1    0    0    0    0 -0.00000000000E+00 -0.00000000000E+00 -0.34996269501E-01  0.35000000000E-01  0.51099999109E-03 0.  1.
       22    1    1    2    0    0  0.56658855279E-02 -0.25366114055E-02 -0.18105778780E-02  0.64664401714E-02  0.00000000000E+00 0. -1.
       22    1    1    2    0    0 -0.20041032739E-01  0.17038681757E-01  0.22389245979E-01  0.34543277273E-01  0.00000000000E+00 0.  1.
       22    1    1    2    0    0  0.14375147211E-01 -0.14502070351E-01 -0.20578668101E-01  0.28990282555E-01  0.00000000000E+00 0. -1.
</event>
<event>
 5   0  0.4146200E+04  0.9118800E+02  0.7546771E-02  0.1180000E+00
      -11   -1    0    0    0    0  0.00000000000E+00  0.00000000000E+00  0.34996269501E-01  0.35000000000E-01  0.51099999109E-03 0.  1.
       11   -1    0    0    0    0 -0.00000000000E+00 -0.00000000000E+00 -0.34996269501E-01  0.35000000000E-01  0.51099999109E-03 0. -1.
       22    1    1    2    0    0  0.47774554830E-02  0.13578137317E-01 -0.26987012558E-01  0.30585760424E-01  0.00000000000E+00 0. -1.
       22    1    1    2    0    0  0.36350926285E-02 -0.16302871915E-01  0.25445644244E-01  0.30438106743E-01  0.00000000000E+00 0.  1.
       22    1    1    2    0    0 -0.84125481115E-02  0.27247345975E-02  0.15413683139E-02  0.89761328329E-02  0.00000000000E+00 0.  1.
</event>
<event>
 5   0  0.4146200E+04  0.9118800E+02  0.7546771E-02  0.1180000E+00
      -11   -1    0    0    0    0  0.00000000000E+00  0.00000000000E+00  0.34996269501E-01  0.35000000000E-01  0.51099999109E-03 0.  1.
       11   -1    0    0    0    0 -0.00000000000E+00 -0.00000000000E+00 -0.34996269501E-01  0.35000000000E-01  0.51099999109E-03 0. -1.
       22    1    1    2    0    0 -0.36803633949E-03 -0.52887025240E-03 -0.42621534599E-02  0.43105807738E-02  0.00000000000E+00 0.  1.
       22    1    1    2    0    0  0.16707323566E-01 -0.86099138551E-02  0.29065895398E-01  0.34613459126E-01  0.00000000000E+00 0.  1.
       22    1    1    2    0    0 -0.16339287227E-01  0.91387841074E-02 -0.24803741938E-01  0.31075960101E-01  0.00000000000E+00 0. -1.
</event>
<event>
 5   0  0.4146200E+04  0.9118800E+02  0.7546771E-02  0.1180000E+00
      -11   -1    0    0    0    0  0.00000000000E+00  0.00000000000E+00  0.34996269501E-01  0.35000000000E-01  0.51099999109E-03 0.  1.
       11   -1    0    0    0    0 -0.00000000000E+00 -0.00000000000E+00 -0.34996269501E-01  0.35000000000E-01  0.51099999109E-03 0. -1.
       22    1    1    2    0    0 -0.17145448157E-01 -0.47999531919E-02  0.29235741665E-01  0.34230608143E-01  0.00000000000E+00 0.  1.
       22    1    1    2    0    0  0.17734243447E-01  0.61923850092E-02 -0.24990424780E-01  0.31262922983E-01  0.00000000000E+00 0. -1.
       22    1    1    2    0    0 -0.58879528959E-03 -0.13924318173E-02 -0.42453168851E-02  0.45064688741E-02  0.00000000000E+00 0.  1.
</event>
<event>
 5   0  0.4146200E+04  0.9118800E+02  0.7546771E-02  0.1180000E+00
      -11   -1    0    0    0    0  0.00000000000E+00  0.00000000000E+00  0.34996269501E-01  0.35000000000E-01  0.51099999109E-03 0.  1.
       11   -1    0    0    0    0 -0.00000000000E+00 -0.00000000000E+00 -0.34996269501E-01  0.35000000000E-01  0.51099999109E-03 0. -1.
       22    1    1    2    0    0 -0.86018129807E-02 -0.24458467996E-01  0.21058396080E-01  0.33401555184E-01  0.00000000000E+00 0.  1.
       22    1    1    2    0    0 -0.34176569505E-02  0.81123340429E-02 -0.10579017367E-01  0.13762483464E-01  0.00000000000E+00 0. -1.
       22    1    1    2    0    0  0.12019469931E-01  0.16346133953E-01 -0.10479378714E-01  0.22835961352E-01  0.00000000000E+00 0. -1.
</event>
<event>
 5   0  0.4146200E+04  0.9118800E+02  0.7546771E-02  0.1180000E+00
      -11   -1    0    0    0    0  0.00000000000E+00  0.00000000000E+00  0.34996269501E-01  0.35000000000E-01  0.51099999109E-03 0. -1.
       11   -1    0    0    0    0 -0.00000000000E+00 -0.00000000000E+00 -0.34996269501E-01  0.35000000000E-01  0.51099999109E-03 0.  1.
       22    1    1    2    0    0 -0.76816974244E-03 -0.25551864688E-03 -0.17021547549E-01  0.17040787995E-01  0.00000000000E+00 0.  1.
       22    1    1    2    0    0  0.38428374702E-02 -0.11550496760E-01 -0.14633442026E-01  0.19034678898E-01  0.00000000000E+00 0.  1.
       22    1    1    2    0    0 -0.30746677278E-02  0.11806015407E-01  0.31654989576E-01  0.33924533106E-01  0.00000000000E+00 0. -1.
</event>
<event>
 5   0  0.4146200E+04  0.9118800E+02  0.7546771E-02  0.1180000E+00
      -11   -1    0    0    0    0  0.00000000000E+00  0.00000000000E+00  0.34996269501E-01  0.35000000000E-01  0.51099999109E-03 0.  1.
       11   -1    0    0    0    0 -0.00000000000E+00 -0.00000000000E+00 -0.34996269501E-01  0.35000000000E-01  0.51099999109E-03 0. -1.
       22    1    1    2    0    0  0.88504022408E-02  0.23340210731E-02 -0.66618775410E-02  0.11320684015E-01  0.00000000000E+00 0.  1.
       22    1    1    2    0    0  0.24526242607E-02 -0.46603997445E-02  0.31158611521E-01  0.31600534227E-01  0.00000000000E+00 0.  1.
       22    1    1    2    0    0 -0.11303026501E-01  0.23263786714E-02 -0.24496733980E-01  0.27078781758E-01  0.00000000000E+00 0. -1.
</event>
<event>
 5   0  0.4146200E+04  0.9118800E+02  0.7546771E-02  0.1180000E+00
      -11   -1    0    0    0    0  0.00000000000E+00  0.00000000000E+00  0.34996269501E-01  0.35000000000E-01  0.51099999109E-03 0. -1.
       11   -1    0    0    0    0 -0.00000000000E+00 -0.00000000000E+00 -0.34996269501E-01  0.35000000000E-01  0.51099999109E-03 0.  1.
       22    1    1    2    0    0 -0.12201485805E-02  0.11216722962E-02  0.15842783964E-01  0.15929240880E-01  0.00000000000E+00 0. -1.
       22    1    1    2    0    0 -0.19474290577E-01  0.51900290733E-02  0.81715530745E-02  0.21747613085E-01  0.00000000000E+00 0. -1.
       22    1    1    2    0    0  0.20694439157E-01 -0.63117013696E-02 -0.24014337038E-01  0.32323146035E-01  0.00000000000E+00 0.  1.
</event>
<event>
 5   0  0.4146200E+04  0.9118800E+02  0.7546771E-02  0.1180000E+00
      -11   -1    0    0    0    0  0.00000000000E+00  0.00000000000E+00  0.34996269501E-01  0.35000000000E-01  0.51099999109E-03 0. -1.
       11   -1    0    0    0    0 -0.00000000000E+00 -0.00000000000E+00 -0.34996269501E-01  0.35000000000E-01  0.51099999109E-03 0.  1.
       22    1    1    2    0    0 -0.10272542229E-01  0.51280516804E-02 -0.33062819107E-01  0.34999600643E-01  0.00000000000E+00 0.  1.
       22    1    1    2    0    0  0.10110377578E-01 -0.50491750183E-02  0.32626475340E-01  0.34528260834E-01  0.00000000000E+00 0. -1.
       22    1    1    2    0    0  0.16216465169E-03 -0.78876662077E-04  0.43634376684E-03  0.47213852304E-03  0.00000000000E+00 0.  1.
</event>
<event>
 5   0  0.4146200E+04  0.9118800E+02  0.7546771E-02  0.1180000E+00
      -11   -1    0    0    0    0  0.00000000000E+00  0.00000000000E+00  0.34996269501E-01  0.35000000000E-01  0.51099999109E-03 0. -1.
       11   -1    0    0    0    0 -0.00000000000E+00 -0.00000000000E+00 -0.34996269501E-01  0.35000000000E-01  0.51099999109E-03 0.  1.
       22    1    1    2    0    0  0.96302409412E-02  0.14552085986E-01  0.28901177661E-01  0.33760669681E-01  0.00000000000E+00 0. -1.
       22    1    1    2    0    0 -0.97132694921E-02 -0.14644698911E-01 -0.30196683954E-01  0.34937866739E-01  0.00000000000E+00 0.  1.
       22    1    1    2    0    0  0.83028550958E-04  0.92612924445E-04  0.12955062935E-02  0.13014635802E-02  0.00000000000E+00 0. -1.
</event>
<event>
 5   0  0.4146200E+04  0.9118800E+02  0.7546771E-02  0.1180000E+00
      -11   -1    0    0    0    0  0.00000000000E+00  0.00000000000E+00  0.34996269501E-01  0.35000000000E-01  0.51099999109E-03 0. -1.
       11   -1    0    0    0    0 -0.00000000000E+00 -0.00000000000E+00 -0.34996269501E-01  0.35000000000E-01  0.51099999109E-03 0.  1.
       22    1    1    2    0    0  0.11039833042E-01 -0.13394469295E-01 -0.29499755041E-01  0.34227551311E-01  0.00000000000E+00 0.  1.
       22    1    1    2    0    0 -0.13650259977E-02 -0.80906487809E-04 -0.52907452277E-03  0.14662065628E-02  0.00000000000E+00 0.  1.
       22    1    1    2    0    0 -0.96748070442E-02  0.13475375782E-01  0.30028829564E-01  0.34306242126E-01  0.00000000000E+00 0. -1.
</event>
<event>
 5   0  0.4146200E+04  0.9118800E+02  0.7546771E-02  0.1180000E+00
      -11   -1    0    0    0    0  0.00000000000E+00  0.00000000000E+00  0.34996269501E-01  0.35000000000E-01  0.51099999109E-03 0. -1.
       11   -1    0    0    0    0 -0.00000000000E+00 -0.00000000000E+00 -0.34996269501E-01  0.35000000000E-01  0.51099999109E-03 0.  1.
       22    1    1    2    0    0 -0.74725813790E-04 -0.38806508478E-03 -0.84623285693E-03  0.93396386730E-03  0.00000000000E+00 0. -1.
       22    1    1    2    0    0 -0.10487962569E-01  0.12060979327E-01 -0.30249462525E-01  0.34212491348E-01  0.00000000000E+00 0.  1.
       22    1    1    2    0    0  0.10562688382E-01 -0.11672914242E-01  0.31095695382E-01  0.34853544785E-01  0.00000000000E+00 0. -1.
</event>
<event>
 5   0  0.4146200E+04  0.9118800E+02  0.7546771E-02  0.1180000E+00
      -11   -1    0    0    0    0  0.00000000000E+00  0.00000000000E+00  0.34996269501E-01  0.35000000000E-01  0.51099999109E-03 0.  1.
       11   -1    0    0    0    0 -0.00000000000E+00 -0.00000000000E+00 -0.34996269501E-01  0.35000000000E-01  0.51099999109E-03 0. -1.
       22    1    1    2    0    0  0.24086908114E-02 -0.47359333962E-02 -0.31103075484E-01  0.31553639428E-01  0.00000000000E+00 0. -1.
       22    1    1    2    0    0  0.49333591524E-03  0.12749577949E-02 -0.33918545782E-02  0.36569899075E-02  0.00000000000E+00 0. -1.
       22    1    1    2    0    0 -0.29020267267E-02  0.34609756013E-02  0.34494930062E-01  0.34789370665E-01  0.00000000000E+00 0.  1.
</event>
<event>
 5   0  0.4146200E+04  0.9118800E+02  0.7546771E-02  0.1180000E+00
      -11   -1    0    0    0    0  0.00000000000E+00  0.00000000000E+00  0.34996269501E-01  0.35000000000E-01  0.51099999109E-03 0. -1.
       11   -1    0    0    0    0 -0.00000000000E+00 -0.00000000000E+00 -0.34996269501E-01  0.35000000000E-01  0.51099999109E-03 0.  1.
       22    1    1    2    0    0 -0.41732108232E-03 -0.23858564752E-02  0.34893374250E-01  0.34977336013E-01  0.00000000000E+00 0. -1.
       22    1    1    2    0    0  0.12581917755E-03  0.13322043113E-03 -0.27869958376E-03  0.33354401014E-03  0.00000000000E+00 0. -1.
       22    1    1    2    0    0  0.29150190477E-03  0.22526360441E-02 -0.34614674666E-01  0.34689119977E-01  0.00000000000E+00 0.  1.
</event>
<event>
 5   0  0.4146200E+04  0.9118800E+02  0.7546771E-02  0.1180000E+00
      -11   -1    0    0    0    0  0.00000000000E+00  0.00000000000E+00  0.34996269501E-01  0.35000000000E-01  0.51099999109E-03 0. -1.
       11   -1    0    0    0    0 -0.00000000000E+00 -0.00000000000E+00 -0.34996269501E-01  0.35000000000E-01  0.51099999109E-03 0.  1.
       22    1    1    2    0    0  0.11114220495E-04  0.11090682176E-04  0.63443159787E-03  0.63462585946E-03  0.00000000000E+00 0. -1.
       22    1    1    2    0    0  0.22727820709E-01 -0.15581710179E-02  0.25829099511E-01  0.34440152623E-01  0.00000000000E+00 0. -1.
       22    1    1    2    0    0 -0.22738934930E-01  0.15470803358E-02 -0.26463531109E-01  0.34925221518E-01  0.00000000000E+00 0.  1.
</event>
<event>
 5   0  0.4146200E+04  0.9118800E+02  0.7546771E-02  0.1180000E+00
      -11   -1    0    0    0    0  0.00000000000E+00  0.00000000000E+00  0.34996269501E-01  0.35000000000E-01  0.51099999109E-03 0. -1.
       11   -1    0    0    0    0 -0.00000000000E+00 -0.00000000000E+00 -0.34996269501E-01  0.35000000000E-01  0.51099999109E-03 0.  1.
       22    1    1    2    0    0 -0.46291573290E-02 -0.15156333980E-01 -0.29664223817E-01  0.33631974845E-01  0.00000000000E+00 0.  1.
       22    1    1    2    0    0  0.36556976719E-02  0.15211075439E-01  0.15006817688E-01  0.21678226832E-01  0.00000000000E+00 0. -1.
       22    1    1    2    0    0  0.97345965702E-03 -0.54741459297E-04  0.14657406130E-01  0.14689798323E-01  0.00000000000E+00 0. -1.
</event>
<event>
 5   0  0.4146200E+04  0.9118800E+02  0.7546771E-02  0.1180000E+00
      -11   -1    0    0    0    0  0.00000000000E+00  0.00000000000E+00  0.34996269501E-01  0.35000000000E-01  0.51099999109E-03 0. -1.
       11   -1    0    0    0    0 -0.00000000000E+00 -0.00000000000E+00 -0.34996269501E-01  0.35000000000E-01  0.51099999109E-03 0.  1.
       22    1    1    2    0    0  0.10883635568E-02 -0.82969841611E-03  0.34081415169E-01  0.34108881463E-01  0.00000000000E+00 0. -1.
       22    1    1    2    0    0 -0.48878704035E-02  0.30293409060E-02 -0.11174973364E-01  0.12567744948E-01  0.00000000000E+00 0. -1.
       22    1    1    2    0    0  0.37995068467E-02 -0.21996424899E-02 -0.22906441806E-01  0.23323373589E-01  0.00000000000E+00 0.  1.
</event>
<event>
 5   0  0.4146200E+04  0.9118800E+02  0.7546771E-02  0.1180000E+00
      -11   -1    0    0    0    0  0.00000000000E+00  0.00000000000E+00  0.34996269501E-01  0.35000000000E-01  0.51099999109E-03 0.  1.
       11   -1    0    0    0    0 -0.00000000000E+00 -0.00000000000E+00 -0.34996269501E-01  0.35000000000E-01  0.51099999109E-03 0. -1.
       22    1    1    2    0    0  0.35257863605E-02  0.21313381140E-01  0.20649305623E-01  0.29884531246E-01  0.00000000000E+00 0.  1.
       22    1    1    2    0    0 -0.31730994678E-02 -0.22589103533E-01 -0.26008945179E-01  0.34594817358E-01  0.00000000000E+00 0. -1.
       22    1    1    2    0    0 -0.35268689263E-03  0.12757223937E-02  0.53596395560E-02  0.55206513964E-02  0.00000000000E+00 0.  1.
</event>
<event>
 5   0  0.4146200E+04  0.9118800E+02  0.7546771E-02  0.1180000E+00
      -11   -1    0    0    0    0  0.00000000000E+00  0.00000000000E+00  0.34996269501E-01  0.35000000000E-01  0.51099999109E-03 0.  1.
       11   -1    0    0    0    0 -0.00000000000E+00 -0.00000000000E+00 -0.34996269501E-01  0.35000000000E-01  0.51099999109E-03 0.  1.
       22    1    1    2    0    0  0.66566803822E-03  0.39228916110E-03 -0.33957506882E-01  0.33966296212E-01  0.00000000000E+00 0.  1.
       22    1    1    2    0    0  0.00000000000E+00 -0.00000000000E+00  0.34852599718E-01  0.34851250445E-01  0.00000000000E+00 0.  1.
       22    1    1    2    0    0 -0.66566803822E-03 -0.39228916110E-03 -0.89509283594E-03  0.11824533428E-02  0.00000000000E+00 0. -1.
</event>
<event>
 5   0  0.4146200E+04  0.9118800E+02  0.7546771E-02  0.1180000E+00
      -11   -1    0    0    0    0  0.00000000000E+00  0.00000000000E+00  0.34996269501E-01  0.35000000000E-01  0.51099999109E-03 0. -1.
       11   -1    0    0    0    0 -0.00000000000E+00 -0.00000000000E+00 -0.34996269501E-01  0.35000000000E-01  0.51099999109E-03 0.  1.
       22    1    1    2    0    0 -0.67484999942E-02 -0.13897874502E-01  0.22503198253E-01  0.27296283620E-01  0.00000000000E+00 0. -1.
       22    1    1    2    0    0  0.19443521473E-01  0.87077121043E-02 -0.80380120391E-02  0.22770252851E-01  0.00000000000E+00 0.  1.
       22    1    1    2    0    0 -0.12695021479E-01  0.51901623980E-02 -0.14465186213E-01  0.19933463529E-01  0.00000000000E+00 0. -1.
</event>
<event>
 5   0  0.4146200E+04  0.9118800E+02  0.7546771E-02  0.1180000E+00
      -11   -1    0    0    0    0  0.00000000000E+00  0.00000000000E+00  0.34996269501E-01  0.35000000000E-01  0.51099999109E-03 0. -1.
       11   -1    0    0    0    0 -0.00000000000E+00 -0.00000000000E+00 -0.34996269501E-01  0.35000000000E-01  0.51099999109E-03 0.  1.
       22    1    1    2    0    0  0.25789441170E-02 -0.16898547641E-02  0.33636942642E-01  0.33777958377E-01  0.00000000000E+00 0. -1.
       22    1    1    2    0    0  0.39072663535E-02  0.46986559737E-02 -0.18459404040E-01  0.19444631543E-01  0.00000000000E+00 0.  1.
       22    1    1    2    0    0 -0.64862104705E-02 -0.30088012096E-02 -0.15177538602E-01  0.16777410080E-01  0.00000000000E+00 0.  1.
</event>
<event>
 5   0  0.4146200E+04  0.9118800E+02  0.7546771E-02  0.1180000E+00
      -11   -1    0    0    0    0  0.00000000000E+00  0.00000000000E+00  0.34996269501E-01  0.35000000000E-01  0.51099999109E-03 0. -1.
       11   -1    0    0    0    0 -0.00000000000E+00 -0.00000000000E+00 -0.34996269501E-01  0.35000000000E-01  0.51099999109E-03 0.  1.
       22    1    1    2    0    0  0.17181149162E-01  0.81132365731E-02  0.28628177729E-01  0.34359701022E-01  0.00000000000E+00 0. -1.
       22    1    1    2    0    0 -0.17800335110E-01 -0.91551391368E-02 -0.27000073137E-01  0.33610600293E-01  0.00000000000E+00 0.  1.
       22    1    1    2    0    0  0.61918594813E-03  0.10419025637E-02 -0.16281045922E-02  0.20296986855E-02  0.00000000000E+00 0. -1.
</event>
<event>
 5   0  0.4146200E+04  0.9118800E+02  0.7546771E-02  0.1180000E+00
      -11   -1    0    0    0    0  0.00000000000E+00  0.00000000000E+00  0.34996269501E-01  0.35000000000E-01  0.51099999109E-03 0.  1.
       11   -1    0    0    0    0 -0.00000000000E+00 -0.00000000000E+00 -0.34996269501E-01  0.35000000000E-01  0.51099999109E-03 0. -1.
       22    1    1    2    0    0 -0.82041585698E-02 -0.30653955007E-02  0.89618214930E-02  0.12530726710E-01  0.00000000000E+00 0.  1.
       22    1    1    2    0    0  0.66057870786E-02  0.12055415408E-01 -0.30838423358E-01  0.33763557555E-01  0.00000000000E+00 0. -1.
       22    1    1    2    0    0  0.15983714912E-02 -0.89900199073E-02  0.21876601865E-01  0.23705715735E-01  0.00000000000E+00 0.  1.
</event>
<event>
 5   0  0.4146200E+04  0.9118800E+02  0.7546771E-02  0.1180000E+00
      -11   -1    0    0    0    0  0.00000000000E+00  0.00000000000E+00  0.34996269501E-01  0.35000000000E-01  0.51099999109E-03 0. -1.
       11   -1    0    0    0    0 -0.00000000000E+00 -0.00000000000E+00 -0.34996269501E-01  0.35000000000E-01  0.51099999109E-03 0.  1.
       22    1    1    2    0    0  0.42785551490E-03  0.35609945908E-03 -0.15690115157E-02  0.16648316140E-02  0.00000000000E+00 0.  1.
       22    1    1    2    0    0 -0.65443824917E-02  0.10507605982E-01 -0.31043638497E-01  0.33420745306E-01  0.00000000000E+00 0.  1.
       22    1    1    2    0    0  0.61165269768E-02 -0.10863705441E-01  0.32612650013E-01  0.34914423080E-01  0.00000000000E+00 0. -1.
</event>
<event>
 5   0  0.4146200E+04  0.9118800E+02  0.7546771E-02  0.1180000E+00
      -11   -1    0    0    0    0  0.00000000000E+00  0.00000000000E+00  0.34996269501E-01  0.35000000000E-01  0.51099999109E-03 0. -1.
       11   -1    0    0    0    0 -0.00000000000E+00 -0.00000000000E+00 -0.34996269501E-01  0.35000000000E-01  0.51099999109E-03 0.  1.
       22    1    1    2    0    0 -0.97715921438E-02  0.10976844443E-02  0.33507508425E-01  0.34920510377E-01  0.00000000000E+00 0. -1.
       22    1    1    2    0    0 -0.26760922067E-03  0.25847863497E-04 -0.62816624038E-03  0.68328298133E-03  0.00000000000E+00 0.  1.
       22    1    1    2    0    0  0.10039201364E-01 -0.11235323078E-02 -0.32879342184E-01  0.34396206642E-01  0.00000000000E+00 0.  1.
</event>
<event>
 5   0  0.4146200E+04  0.9118800E+02  0.7546771E-02  0.1180000E+00
      -11   -1    0    0    0    0  0.00000000000E+00  0.00000000000E+00  0.34996269501E-01  0.35000000000E-01  0.51099999109E-03 0.  1.
       11   -1    0    0    0    0 -0.00000000000E+00 -0.00000000000E+00 -0.34996269501E-01  0.35000000000E-01  0.51099999109E-03 0. -1.
       22    1    1    2    0    0  0.12512604531E-03 -0.45880717540E-04  0.10363986721E-02  0.10449324260E-02  0.00000000000E+00 0. -1.
       22    1    1    2    0    0  0.29237789006E-02 -0.14440789695E-01 -0.31671289409E-01  0.34930723767E-01  0.00000000000E+00 0. -1.
       22    1    1    2    0    0 -0.30489049459E-02  0.14486670413E-01  0.30634890737E-01  0.34024343807E-01  0.00000000000E+00 0.  1.
</event>
<event>
 5   0  0.4146200E+04  0.9118800E+02  0.7546771E-02  0.1180000E+00
      -11   -1    0    0    0    0  0.00000000000E+00  0.00000000000E+00  0.34996269501E-01  0.35000000000E-01  0.51099999109E-03 0.  1.
       11   -1    0    0    0    0 -0.00000000000E+00 -0.00000000000E+00 -0.34996269501E-01  0.35000000000E-01  0.51099999109E-03 0. -1.
       22    1    1    2    0    0  0.18820594778E-02  0.42802000337E-03  0.34736135587E-01  0.34789717799E-01  0.00000000000E+00 0.  1.
       22    1    1    2    0    0 -0.21865578662E-02  0.13855220771E-02 -0.30268499610E-01  0.30378985752E-01  0.00000000000E+00 0. -1.
       22    1    1    2    0    0  0.30449838836E-03 -0.18135420805E-02 -0.44676359775E-02  0.48312964486E-02  0.00000000000E+00 0.  1.
</event>
<event>
 5   0  0.4146200E+04  0.9118800E+02  0.7546771E-02  0.1180000E+00
      -11   -1    0    0    0    0  0.00000000000E+00  0.00000000000E+00  0.34996269501E-01  0.35000000000E-01  0.51099999109E-03 0. -1.
       11   -1    0    0    0    0 -0.00000000000E+00 -0.00000000000E+00 -0.34996269501E-01  0.35000000000E-01  0.51099999109E-03 0. -1.
       22    1    1    2    0    0  0.52508429082E-02  0.14410759453E-01  0.77148396445E-03  0.15356969974E-01  0.00000000000E+00 0.  1.
       22    1    1    2    0    0 -0.52508429082E-02 -0.14410759453E-01 -0.25585850693E-01  0.29830807816E-01  0.00000000000E+00 0. -1.
       22    1    1    2    0    0  0.00000000000E+00  0.00000000000E+00  0.24814366728E-01  0.24812222211E-01  0.00000000000E+00 0. -1.
</event>
<event>
 5   0  0.4146200E+04  0.9118800E+02  0.7546771E-02  0.1180000E+00
      -11   -1    0    0    0    0  0.00000000000E+00  0.00000000000E+00  0.34996269501E-01  0.35000000000E-01  0.51099999109E-03 0.  1.
       11   -1    0    0    0    0 -0.00000000000E+00 -0.00000000000E+00 -0.34996269501E-01  0.35000000000E-01  0.51099999109E-03 0. -1.
       22    1    1    2    0    0  0.76507314648E-02  0.86098395732E-02  0.31544438009E-01  0.33581462129E-01  0.00000000000E+00 0.  1.
       22    1    1    2    0    0  0.11764689794E-03 -0.21525180801E-04  0.14478957860E-02  0.14528270142E-02  0.00000000000E+00 0. -1.
       22    1    1    2    0    0 -0.77683783628E-02 -0.85883143924E-02 -0.32992333795E-01  0.34965710857E-01  0.00000000000E+00 0. -1.
</event>
<event>
 5   0  0.4146200E+04  0.9118800E+02  0.7546771E-02  0.1180000E+00
      -11   -1    0    0    0    0  0.00000000000E+00  0.00000000000E+00  0.34996269501E-01  0.35000000000E-01  0.51099999109E-03 0.  1.
       11   -1    0    0    0    0 -0.00000000000E+00 -0.00000000000E+00 -0.34996269501E-01  0.35000000000E-01  0.51099999109E-03 0. -1.
       22    1    1    2    0    0  0.18772940703E-03  0.57705234476E-03  0.53272242717E-02  0.53616741956E-02  0.00000000000E+00 0.  1.
       22    1    1    2    0    0 -0.16275662004E-02  0.20472282083E-01  0.22011926343E-01  0.30104621020E-01  0.00000000000E+00 0.  1.
       22    1    1    2    0    0  0.14398367934E-02 -0.21049334428E-01 -0.27339150614E-01  0.34533704785E-01  0.00000000000E+00 0. -1.
</event>
<event>
 5   0  0.4146200E+04  0.9118800E+02  0.7546771E-02  0.1180000E+00
      -11   -1    0    0    0    0  0.00000000000E+00  0.00000000000E+00  0.34996269501E-01  0.35000000000E-01  0.51099999109E-03 0. -1.
       11   -1    0    0    0    0 -0.00000000000E+00 -0.00000000000E+00 -0.34996269501E-01  0.35000000000E-01  0.51099999109E-03 0.  1.
       22    1    1    2    0    0 -0.75797430908E-04  0.31276890253E-03 -0.32808330500E-03  0.45957403315E-03  0.00000000000E+00 0.  1.
       22    1    1    2    0    0  0.42864209417E-02 -0.27886120391E-02 -0.34244643627E-01  0.34624346618E-01  0.00000000000E+00 0.  1.
       22    1    1    2    0    0 -0.42106235108E-02  0.24758431366E-02  0.34572726932E-01  0.34916079349E-01  0.00000000000E+00 0. -1.
</event>
<event>
 5   0  0.4146200E+04  0.9118800E+02  0.7546771E-02  0.1180000E+00
      -11   -1    0    0    0    0  0.00000000000E+00  0.00000000000E+00  0.34996269501E-01  0.35000000000E-01  0.51099999109E-03 0.  1.
       11   -1    0    0    0    0 -0.00000000000E+00 -0.00000000000E+00 -0.34996269501E-01  0.35000000000E-01  0.51099999109E-03 0. -1.
       22    1    1    2    0    0  0.13167625698E-01  0.17218931781E-02 -0.32312152988E-01  0.34934603381E-01  0.00000000000E+00 0. -1.
       22    1    1    2    0    0 -0.13201514673E-01 -0.15893359818E-02  0.30807723002E-01  0.33554757861E-01  0.00000000000E+00 0.  1.
       22    1    1    2    0    0  0.33888974781E-04 -0.13255719629E-03  0.15044299860E-02  0.15106387575E-02  0.00000000000E+00 0. -1.
</event>
<event>
 5   0  0.4146200E+04  0.9118800E+02  0.7546771E-02  0.1180000E+00
      -11   -1    0    0    0    0  0.00000000000E+00  0.00000000000E+00  0.34996269501E-01  0.35000000000E-01  0.51099999109E-03 0. -1.
       11   -1    0    0    0    0 -0.00000000000E+00 -0.00000000000E+00 -0.34996269501E-01  0.35000000000E-01  0.51099999109E-03 0.  1.
       22    1    1    2    0    0  0.10104054816E-02 -0.98320103531E-03 -0.30415910607E-01  0.30448566823E-01  0.00000000000E+00 0.  1.
       22    1    1    2    0    0  0.23485922151E-02  0.85404275959E-03 -0.41381742979E-02  0.48342280612E-02  0.00000000000E+00 0.  1.
       22    1    1    2    0    0 -0.33589976966E-02  0.12915827572E-03  0.34554084905E-01  0.34717205116E-01  0.00000000000E+00 0. -1.
</event>
<event>
 5   0  0.4146200E+04  0.9118800E+02  0.7546771E-02  0.1180000E+00
      -11   -1    0    0    0    0  0.00000000000E+00  0.00000000000E+00  0.34996269501E-01  0.35000000000E-01  0.51099999109E-03 0. -1.
       11   -1    0    0    0    0 -0.00000000000E+00 -0.00000000000E+00 -0.34996269501E-01  0.35000000000E-01  0.51099999109E-03 0.  1.
       22    1    1    2    0    0 -0.35399678608E-02  0.95636023296E-02  0.31416128825E-01  0.33029789771E-01  0.00000000000E+00 0. -1.
       22    1    1    2    0    0  0.87202738033E-02 -0.53426180121E-02 -0.27224896248E-01  0.29082326560E-01  0.00000000000E+00 0.  1.
       22    1    1    2    0    0 -0.51803059425E-02 -0.42209843175E-02 -0.41912325766E-02  0.78878836691E-02  0.00000000000E+00 0. -1.
</event>
<event>
 5   0  0.4146200E+04  0.9118800E+02  0.7546771E-02  0.1180000E+00
      -11   -1    0    0    0    0  0.00000000000E+00  0.00000000000E+00  0.34996269501E-01  0.35000000000E-01  0.51099999109E-03 0.  1.
       11   -1    0    0    0    0 -0.00000000000E+00 -0.00000000000E+00 -0.34996269501E-01  0.35000000000E-01  0.51099999109E-03 0. -1.
       22    1    1    2    0    0 -0.66701396747E-03  0.52132088284E-04 -0.88266477880E-02  0.88519679485E-02  0.00000000000E+00 0. -1.
       22    1    1    2    0    0 -0.13001244974E-01 -0.26925353897E-02 -0.22917428672E-01  0.26485668854E-01  0.00000000000E+00 0. -1.
       22    1    1    2    0    0  0.13668258942E-01  0.26404033015E-02  0.31744076460E-01  0.34662363197E-01  0.00000000000E+00 0.  1.
</event>
<event>
 5   0  0.4146200E+04  0.9118800E+02  0.7546771E-02  0.1180000E+00
      -11   -1    0    0    0    0  0.00000000000E+00  0.00000000000E+00  0.34996269501E-01  0.35000000000E-01  0.51099999109E-03 0.  1.
       11   -1    0    0    0    0 -0.00000000000E+00 -0.00000000000E+00 -0.34996269501E-01  0.35000000000E-01  0.51099999109E-03 0. -1.
       22    1    1    2    0    0  0.87028659172E-02  0.45300031165E-02 -0.25492676430E-01  0.27315514913E-01  0.00000000000E+00 0. -1.
       22    1    1    2    0    0 -0.14532729305E-01 -0.39113173828E-02  0.31113774936E-01  0.34562488560E-01  0.00000000000E+00 0.  1.
       22    1    1    2    0    0  0.58298633882E-02 -0.61868573372E-03 -0.56210985059E-02  0.81219965265E-02  0.00000000000E+00 0. -1.
</event>
<event>
 5   0  0.4146200E+04  0.9118800E+02  0.7546771E-02  0.1180000E+00
      -11   -1    0    0    0    0  0.00000000000E+00  0.00000000000E+00  0.34996269501E-01  0.35000000000E-01  0.51099999109E-03 0. -1.
       11   -1    0    0    0    0 -0.00000000000E+00 -0.00000000000E+00 -0.34996269501E-01  0.35000000000E-01  0.51099999109E-03 0.  1.
       22    1    1    2    0    0 -0.79503009020E-02 -0.17252715368E-01  0.27322487161E-01  0.33277346299E-01  0.00000000000E+00 0. -1.
       22    1    1    2    0    0  0.81163629554E-02  0.17997029549E-01 -0.28883063668E-01  0.34985708326E-01  0.00000000000E+00 0.  1.
       22    1    1    2    0    0 -0.16606205341E-03 -0.74431418137E-03  0.15605765062E-02  0.17369453757E-02  0.00000000000E+00 0.  1.
</event>
<event>
 5   0  0.4146200E+04  0.9118800E+02  0.7546771E-02  0.1180000E+00
      -11   -1    0    0    0    0  0.00000000000E+00  0.00000000000E+00  0.34996269501E-01  0.35000000000E-01  0.51099999109E-03 0.  1.
       11   -1    0    0    0    0 -0.00000000000E+00 -0.00000000000E+00 -0.34996269501E-01  0.35000000000E-01  0.51099999109E-03 0. -1.
       22    1    1    2    0    0  0.54913110311E-05  0.91219261781E-05  0.45064441571E-03  0.45077017807E-03  0.00000000000E+00 0.  1.
       22    1    1    2    0    0  0.45002841852E-02  0.11898904406E-01 -0.32587282094E-01  0.34982387542E-01  0.00000000000E+00 0. -1.
       22    1    1    2    0    0 -0.45057754963E-02 -0.11908026332E-01  0.32136637679E-01  0.34566842280E-01  0.00000000000E+00 0.  1.
</event>
<event>
 5   0  0.4146200E+04  0.9118800E+02  0.7546771E-02  0.1180000E+00
      -11   -1    0    0    0    0  0.00000000000E+00  0.00000000000E+00  0.34996269501E-01  0.35000000000E-01  0.51099999109E-03 0.  1.
       11   -1    0    0    0    0 -0.00000000000E+00 -0.00000000000E+00 -0.34996269501E-01  0.35000000000E-01  0.51099999109E-03 0. -1.
       22    1    1    2    0    0  0.12983601768E-03  0.67803662360E-03 -0.14122441473E-02  0.15719492950E-02  0.00000000000E+00 0.  1.
       22    1    1    2    0    0 -0.31591947931E-01 -0.13384769738E-01 -0.17137724995E-02  0.34353169449E-01  0.00000000000E+00 0.  1.
       22    1    1    2    0    0  0.31462111914E-01  0.12706733115E-01  0.31260166468E-02  0.34074881256E-01  0.00000000000E+00 0. -1.
</event>
<event>
 5   0  0.4146200E+04  0.9118800E+02  0.7546771E-02  0.1180000E+00
      -11   -1    0    0    0    0  0.00000000000E+00  0.00000000000E+00  0.34996269501E-01  0.35000000000E-01  0.51099999109E-03 0. -1.
       11   -1    0    0    0    0 -0.00000000000E+00 -0.00000000000E+00 -0.34996269501E-01  0.35000000000E-01  0.51099999109E-03 0.  1.
       22    1    1    2    0    0 -0.14468487816E-02  0.18001559715E-01  0.29177287542E-01  0.34314189950E-01  0.00000000000E+00 0. -1.
       22    1    1    2    0    0 -0.17659479754E-03 -0.52426871413E-04  0.73828135641E-03  0.76091632955E-03  0.00000000000E+00 0.  1.
       22    1    1    2    0    0  0.16234435791E-02 -0.17949132843E-01 -0.29915568899E-01  0.34924893721E-01  0.00000000000E+00 0.  1.
</event>
<event>
 5   0  0.4146200E+04  0.9118800E+02  0.7546771E-02  0.1180000E+00
      -11   -1    0    0    0    0  0.00000000000E+00  0.00000000000E+00  0.34996269501E-01  0.35000000000E-01  0.51099999109E-03 0. -1.
       11   -1    0    0    0    0 -0.00000000000E+00 -0.00000000000E+00 -0.34996269501E-01  0.35000000000E-01  0.51099999109E-03 0. -1.
       22    1    1    2    0    0 -0.25335872146E-03 -0.19133476226E-03  0.34793370976E-01  0.34794819492E-01  0.00000000000E+00 0. -1.
       22    1    1    2    0    0 -0.37237523226E-03  0.11562786788E-02 -0.33290975030E-01  0.33313130476E-01  0.00000000000E+00 0. -1.
       22    1    1    2    0    0  0.62573395372E-03 -0.96494391653E-03 -0.15023959460E-02  0.18920500315E-02  0.00000000000E+00 0.  1.
</event>
<event>
 5   0  0.4146200E+04  0.9118800E+02  0.7546771E-02  0.1180000E+00
      -11   -1    0    0    0    0  0.00000000000E+00  0.00000000000E+00  0.34996269501E-01  0.35000000000E-01  0.51099999109E-03 0.  1.
       11   -1    0    0    0    0 -0.00000000000E+00 -0.00000000000E+00 -0.34996269501E-01  0.35000000000E-01  0.51099999109E-03 0. -1.
       22    1    1    2    0    0 -0.94926985710E-02 -0.15074683190E-01 -0.23581357320E-01  0.29553981331E-01  0.00000000000E+00 0. -1.
       22    1    1    2    0    0  0.84006345648E-04  0.10237549992E-03 -0.59896695770E-02  0.59911334029E-02  0.00000000000E+00 0.  1.
       22    1    1    2    0    0  0.94086922254E-02  0.14972307690E-01  0.29571026897E-01  0.34454885266E-01  0.00000000000E+00 0.  1.
</event>
<event>
 5   0  0.4146200E+04  0.9118800E+02  0.7546771E-02  0.1180000E+00
      -11   -1    0    0    0    0  0.00000000000E+00  0.00000000000E+00  0.34996269501E-01  0.35000000000E-01  0.51099999109E-03 0. -1.
       11   -1    0    0    0    0 -0.00000000000E+00 -0.00000000000E+00 -0.34996269501E-01  0.35000000000E-01  0.51099999109E-03 0.  1.
       22    1    1    2    0    0 -0.26452594529E-01  0.97279522323E-02  0.16557625796E-01  0.32688343243E-01  0.00000000000E+00 0. -1.
       22    1    1    2    0    0  0.13847776753E-01 -0.10571587268E-01 -0.17435928479E-01  0.24648143547E-01  0.00000000000E+00 0.  1.
       22    1    1    2    0    0  0.12604817776E-01  0.84363503555E-03  0.87830268282E-03  0.12663513211E-01  0.00000000000E+00 0.  1.
</event>
<event>
 5   0  0.4146200E+04  0.9118800E+02  0.7546771E-02  0.1180000E+00
      -11   -1    0    0    0    0  0.00000000000E+00  0.00000000000E+00  0.34996269501E-01  0.35000000000E-01  0.51099999109E-03 0.  1.
       11   -1    0    0    0    0 -0.00000000000E+00 -0.00000000000E+00 -0.34996269501E-01  0.35000000000E-01  0.51099999109E-03 0. -1.
       22    1    1    2    0    0 -0.12419665118E-01  0.90731576721E-03 -0.32684756514E-01  0.34976629511E-01  0.00000000000E+00 0. -1.
       22    1    1    2    0    0 -0.37905698838E-04  0.61251390559E-05  0.47252391696E-03  0.47408143966E-03  0.00000000000E+00 0. -1.
       22    1    1    2    0    0  0.12457570817E-01 -0.91344090627E-03  0.32212232597E-01  0.34549289050E-01  0.00000000000E+00 0.  1.
</event>
<event>
 5   0  0.4146200E+04  0.9118800E+02  0.7546771E-02  0.1180000E+00
      -11   -1    0    0    0    0  0.00000000000E+00  0.00000000000E+00  0.34996269501E-01  0.35000000000E-01  0.51099999109E-03 0.  1.
       11   -1    0    0    0    0 -0.00000000000E+00 -0.00000000000E+00 -0.34996269501E-01  0.35000000000E-01  0.51099999109E-03 0. -1.
       22    1    1    2    0    0 -0.80617771386E-02  0.21862192354E-01 -0.25932198736E-01  0.34862969416E-01  0.00000000000E+00 0. -1.
       22    1    1    2    0    0  0.79499898158E-02 -0.22067523431E-01  0.25510929354E-01  0.34655236905E-01  0.00000000000E+00 0.  1.
       22    1    1    2    0    0  0.11178732276E-03  0.20533107684E-03  0.42126938296E-03  0.48179367956E-03  0.00000000000E+00 0. -1.
</event>
<event>
 5   0  0.4146200E+04  0.9118800E+02  0.7546771E-02  0.1180000E+00
      -11   -1    0    0    0    0  0.00000000000E+00  0.00000000000E+00  0.34996269501E-01  0.35000000000E-01  0.51099999109E-03 0. -1.
       11   -1    0    0    0    0 -0.00000000000E+00 -0.00000000000E+00 -0.34996269501E-01  0.35000000000E-01  0.51099999109E-03 0.  1.
       22    1    1    2    0    0 -0.10211470638E-03 -0.62611853312E-04  0.43295060120E-03  0.44921473764E-03  0.00000000000E+00 0. -1.
       22    1    1    2    0    0 -0.15779151573E-01  0.52596357152E-02 -0.30734927573E-01  0.34946833406E-01  0.00000000000E+00 0.  1.
       22    1    1    2    0    0  0.15881266279E-01 -0.51970238619E-02  0.30301976972E-01  0.34603951856E-01  0.00000000000E+00 0. -1.
</event>
<event>
 5   0  0.4146200E+04  0.9118800E+02  0.7546771E-02  0.1180000E+00
      -11   -1    0    0    0    0  0.00000000000E+00  0.00000000000E+00  0.34996269501E-01  0.35000000000E-01  0.51099999109E-03 0. -1.
       11   -1    0    0    0    0 -0.00000000000E+00 -0.00000000000E+00 -0.34996269501E-01  0.35000000000E-01  0.51099999109E-03 0.  1.
       22    1    1    2    0    0 -0.16743557297E-01 -0.47829418816E-02  0.30324088105E-01  0.34968179297E-01  0.00000000000E+00 0. -1.
       22    1    1    2    0    0  0.16683685675E-01  0.47687954802E-02 -0.29644301612E-01  0.34349256121E-01  0.00000000000E+00 0.  1.
       22    1    1    2    0    0  0.59871621578E-04  0.14146401328E-04 -0.67978649293E-03  0.68256458135E-03  0.00000000000E+00 0.  1.
</event>
<event>
 5   0  0.4146200E+04  0.9118800E+02  0.7546771E-02  0.1180000E+00
      -11   -1    0    0    0    0  0.00000000000E+00  0.00000000000E+00  0.34996269501E-01  0.35000000000E-01  0.51099999109E-03 0.  1.
       11   -1    0    0    0    0 -0.00000000000E+00 -0.00000000000E+00 -0.34996269501E-01  0.35000000000E-01  0.51099999109E-03 0. -1.
       22    1    1    2    0    0  0.42058881425E-02  0.49023034648E-02 -0.33391750514E-01  0.34010749429E-01  0.00000000000E+00 0. -1.
       22    1    1    2    0    0  0.47153207086E-03  0.60284742604E-03 -0.76193010700E-03  0.10799560180E-02  0.00000000000E+00 0. -1.
       22    1    1    2    0    0 -0.46774202133E-02 -0.55051508908E-02  0.34153680621E-01  0.34909294553E-01  0.00000000000E+00 0.  1.
</event>
<event>
 5   0  0.4146200E+04  0.9118800E+02  0.7546771E-02  0.1180000E+00
      -11   -1    0    0    0    0  0.00000000000E+00  0.00000000000E+00  0.34996269501E-01  0.35000000000E-01  0.51099999109E-03 0. -1.
       11   -1    0    0    0    0 -0.00000000000E+00 -0.00000000000E+00 -0.34996269501E-01  0.35000000000E-01  0.51099999109E-03 0.  1.
       22    1    1    2    0    0  0.36355390684E-03  0.19478177626E-02 -0.13111148563E-04  0.19814987716E-02  0.00000000000E+00 0.  1.
       22    1    1    2    0    0 -0.15586480525E-01 -0.58391016940E-04 -0.30283822536E-01  0.34059531589E-01  0.00000000000E+00 0.  1.
       22    1    1    2    0    0  0.15222926618E-01 -0.18894267457E-02  0.30296933685E-01  0.33958969639E-01  0.00000000000E+00 0. -1.
</event>
<event>
 5   0  0.4146200E+04  0.9118800E+02  0.7546771E-02  0.1180000E+00
      -11   -1    0    0    0    0  0.00000000000E+00  0.00000000000E+00  0.34996269501E-01  0.35000000000E-01  0.51099999109E-03 0. -1.
       11   -1    0    0    0    0 -0.00000000000E+00 -0.00000000000E+00 -0.34996269501E-01  0.35000000000E-01  0.51099999109E-03 0.  1.
       22    1    1    2    0    0  0.12934057916E-02 -0.22955890410E-02 -0.27927436979E-02  0.38395370748E-02  0.00000000000E+00 0. -1.
       22    1    1    2    0    0  0.32755590402E-02  0.89626387098E-02 -0.30470292778E-01  0.31929561877E-01  0.00000000000E+00 0.  1.
       22    1    1    2    0    0 -0.45689648318E-02 -0.66670496688E-02  0.33263036476E-01  0.34230901048E-01  0.00000000000E+00 0. -1.
</event>
<event>
 5   0  0.4146200E+04  0.9118800E+02  0.7546771E-02  0.1180000E+00
      -11   -1    0    0    0    0  0.00000000000E+00  0.00000000000E+00  0.34996269501E-01  0.35000000000E-01  0.51099999109E-03 0.  1.
       11   -1    0    0    0    0 -0.00000000000E+00 -0.00000000000E+00 -0.34996269501E-01  0.35000000000E-01  0.51099999109E-03 0. -1.
       22    1    1    2    0    0 -0.10822876413E-01  0.92188120336E-02 -0.31958666740E-01  0.34978243652E-01  0.00000000000E+00 0. -1.
       22    1    1    2    0    0  0.10854267827E-01 -0.92044896583E-02  0.31545738949E-01  0.34607389468E-01  0.00000000000E+00 0.  1.
       22    1    1    2    0    0 -0.31391413404E-04 -0.14322375288E-04  0.41292779076E-03  0.41436688050E-03  0.00000000000E+00 0. -1.
</event>
<event>
 5   0  0.4146200E+04  0.9118800E+02  0.7546771E-02  0.1180000E+00
      -11   -1    0    0    0    0  0.00000000000E+00  0.00000000000E+00  0.34996269501E-01  0.35000000000E-01  0.51099999109E-03 0. -1.
       11   -1    0    0    0    0 -0.00000000000E+00 -0.00000000000E+00 -0.34996269501E-01  0.35000000000E-01  0.51099999109E-03 0.  1.
       22    1    1    2    0    0  0.70785944346E-02  0.21004695349E-01  0.13011667210E-01  0.25702280239E-01  0.00000000000E+00 0. -1.
       22    1    1    2    0    0  0.60226276681E-02 -0.81819804469E-02  0.10415911281E-01  0.14550190923E-01  0.00000000000E+00 0.  1.
       22    1    1    2    0    0 -0.13101222103E-01 -0.12822714902E-01 -0.23427578492E-01  0.29747528839E-01  0.00000000000E+00 0.  1.
</event>
<event>
 5   0  0.4146200E+04  0.9118800E+02  0.7546771E-02  0.1180000E+00
      -11   -1    0    0    0    0  0.00000000000E+00  0.00000000000E+00  0.34996269501E-01  0.35000000000E-01  0.51099999109E-03 0.  1.
       11   -1    0    0    0    0 -0.00000000000E+00 -0.00000000000E+00 -0.34996269501E-01  0.35000000000E-01  0.51099999109E-03 0. -1.
       22    1    1    2    0    0  0.76000946414E-02  0.86733595814E-02  0.31241031360E-01  0.33301511158E-01  0.00000000000E+00 0.  1.
       22    1    1    2    0    0 -0.70953208423E-03  0.10401199425E-02  0.14413700450E-02  0.19138528887E-02  0.00000000000E+00 0. -1.
       22    1    1    2    0    0 -0.68905625572E-02 -0.97134795239E-02 -0.32682401405E-01  0.34784635953E-01  0.00000000000E+00 0. -1.
</event>
<event>
 5   0  0.4146200E+04  0.9118800E+02  0.7546771E-02  0.1180000E+00
      -11   -1    0    0    0    0  0.00000000000E+00  0.00000000000E+00  0.34996269501E-01  0.35000000000E-01  0.51099999109E-03 0. -1.
       11   -1    0    0    0    0 -0.00000000000E+00 -0.00000000000E+00 -0.34996269501E-01  0.35000000000E-01  0.51099999109E-03 0.  1.
       22    1    1    2    0    0 -0.11099616068E-01 -0.83513613572E-02  0.32057497509E-01  0.34937513648E-01  0.00000000000E+00 0. -1.
       22    1    1    2    0    0 -0.64528821766E-04 -0.15076412339E-03 -0.48103899681E-03  0.50822466114E-03  0.00000000000E+00 0. -1.
       22    1    1    2    0    0  0.11164144890E-01  0.85021254806E-02 -0.31576458512E-01  0.34554261691E-01  0.00000000000E+00 0.  1.
</event>
<event>
 5   0  0.4146200E+04  0.9118800E+02  0.7546771E-02  0.1180000E+00
      -11   -1    0    0    0    0  0.00000000000E+00  0.00000000000E+00  0.34996269501E-01  0.35000000000E-01  0.51099999109E-03 0. -1.
       11   -1    0    0    0    0 -0.00000000000E+00 -0.00000000000E+00 -0.34996269501E-01  0.35000000000E-01  0.51099999109E-03 0.  1.
       22    1    1    2    0    0 -0.16876984311E-01 -0.81952998506E-02  0.29352576783E-01  0.34836321604E-01  0.00000000000E+00 0. -1.
       22    1    1    2    0    0  0.16914394623E-01  0.85866674592E-02 -0.28785145148E-01  0.34473354706E-01  0.00000000000E+00 0.  1.
       22    1    1    2    0    0 -0.37410312584E-04 -0.39136760853E-03 -0.56743163504E-03  0.69032368998E-03  0.00000000000E+00 0.  1.
</event>
<event>
 5   0  0.4146200E+04  0.9118800E+02  0.7546771E-02  0.1180000E+00
      -11   -1    0    0    0    0  0.00000000000E+00  0.00000000000E+00  0.34996269501E-01  0.35000000000E-01  0.51099999109E-03 0.  1.
       11   -1    0    0    0    0 -0.00000000000E+00 -0.00000000000E+00 -0.34996269501E-01  0.35000000000E-01  0.51099999109E-03 0. -1.
       22    1    1    2    0    0 -0.15412131478E-01 -0.76505414002E-02 -0.23089162691E-01  0.28795381820E-01  0.00000000000E+00 0. -1.
       22    1    1    2    0    0 -0.50077199662E-02  0.13949685179E-03  0.18237189167E-01  0.18912741402E-01  0.00000000000E+00 0. -1.
       22    1    1    2    0    0  0.20419851444E-01  0.75110445484E-02  0.48519735241E-02  0.22291876778E-01  0.00000000000E+00 0.  1.
</event>
<event>
 5   0  0.4146200E+04  0.9118800E+02  0.7546771E-02  0.1180000E+00
      -11   -1    0    0    0    0  0.00000000000E+00  0.00000000000E+00  0.34996269501E-01  0.35000000000E-01  0.51099999109E-03 0.  1.
       11   -1    0    0    0    0 -0.00000000000E+00 -0.00000000000E+00 -0.34996269501E-01  0.35000000000E-01  0.51099999109E-03 0. -1.
       22    1    1    2    0    0 -0.87388790497E-02  0.41036530502E-02  0.33330002158E-01  0.34700101142E-01  0.00000000000E+00 0.  1.
       22    1    1    2    0    0  0.21959636650E-02 -0.21038938139E-02 -0.32472776571E-02  0.44489816565E-02  0.00000000000E+00 0. -1.
       22    1    1    2    0    0  0.65429153847E-02 -0.19997592363E-02 -0.30082724501E-01  0.30850917201E-01  0.00000000000E+00 0. -1.
</event>
<event>
 5   0  0.4146200E+04  0.9118800E+02  0.7546771E-02  0.1180000E+00
      -11   -1    0    0    0    0  0.00000000000E+00  0.00000000000E+00  0.34996269501E-01  0.35000000000E-01  0.51099999109E-03 0.  1.
       11   -1    0    0    0    0 -0.00000000000E+00 -0.00000000000E+00 -0.34996269501E-01  0.35000000000E-01  0.51099999109E-03 0.  1.
       22    1    1    2    0    0 -0.31917109697E-03  0.21153505242E-03 -0.28275429890E-01  0.28278022433E-01  0.00000000000E+00 0.  1.
       22    1    1    2    0    0  0.25487764139E-02 -0.74281137747E-04 -0.64443190439E-02  0.69304420375E-02  0.00000000000E+00 0.  1.
       22    1    1    2    0    0 -0.22296053169E-02 -0.13725391468E-03  0.34719748934E-01  0.34791535530E-01  0.00000000000E+00 0.  1.
</event>
<event>
 5   0  0.4146200E+04  0.9118800E+02  0.7546771E-02  0.1180000E+00
      -11   -1    0    0    0    0  0.00000000000E+00  0.00000000000E+00  0.34996269501E-01  0.35000000000E-01  0.51099999109E-03 0.  1.
       11   -1    0    0    0    0 -0.00000000000E+00 -0.00000000000E+00 -0.34996269501E-01  0.35000000000E-01  0.51099999109E-03 0. -1.
       22    1    1    2    0    0 -0.29789190554E-01 -0.97774466206E-02  0.90406869040E-02  0.32630175543E-01  0.00000000000E+00 0.  1.
       22    1    1    2    0    0  0.30242563528E-01  0.12250187575E-01 -0.55967495251E-02  0.33105941303E-01  0.00000000000E+00 0. -1.
       22    1    1    2    0    0 -0.45337297384E-03 -0.24727409542E-02 -0.34439373788E-02  0.42638831538E-02  0.00000000000E+00 0. -1.
</event>
<event>
 5   0  0.4146200E+04  0.9118800E+02  0.7546771E-02  0.1180000E+00
      -11   -1    0    0    0    0  0.00000000000E+00  0.00000000000E+00  0.34996269501E-01  0.35000000000E-01  0.51099999109E-03 0.  1.
       11   -1    0    0    0    0 -0.00000000000E+00 -0.00000000000E+00 -0.34996269501E-01  0.35000000000E-01  0.51099999109E-03 0. -1.
       22    1    1    2    0    0 -0.14716900422E-01  0.34670055621E-02  0.29565534098E-01  0.33207349971E-01  0.00000000000E+00 0.  1.
       22    1    1    2    0    0 -0.60738354462E-04  0.24141563728E-03  0.18557325374E-02  0.18723551768E-02  0.00000000000E+00 0.  1.
       22    1    1    2    0    0  0.14777638777E-01 -0.37084211994E-02 -0.31421266635E-01  0.34920294852E-01  0.00000000000E+00 0. -1.
</event>
<event>
 5   0  0.4146200E+04  0.9118800E+02  0.7546771E-02  0.1180000E+00
      -11   -1    0    0    0    0  0.00000000000E+00  0.00000000000E+00  0.34996269501E-01  0.35000000000E-01  0.51099999109E-03 0. -1.
       11   -1    0    0    0    0 -0.00000000000E+00 -0.00000000000E+00 -0.34996269501E-01  0.35000000000E-01  0.51099999109E-03 0.  1.
       22    1    1    2    0    0  0.87413512315E-02 -0.18245958074E-01 -0.27056114825E-01  0.33784013332E-01  0.00000000000E+00 0.  1.
       22    1    1    2    0    0  0.12198016324E-02 -0.14706382802E-02  0.14524226840E-02  0.24000467967E-02  0.00000000000E+00 0.  1.
       22    1    1    2    0    0 -0.99611528638E-02  0.19716596354E-01  0.25603692141E-01  0.33815939872E-01  0.00000000000E+00 0. -1.
</event>
<event>
 5   0  0.4146200E+04  0.9118800E+02  0.7546771E-02  0.1180000E+00
      -11   -1    0    0    0    0  0.00000000000E+00  0.00000000000E+00  0.34996269501E-01  0.35000000000E-01  0.51099999109E-03 0. -1.
       11   -1    0    0    0    0 -0.00000000000E+00 -0.00000000000E+00 -0.34996269501E-01  0.35000000000E-01  0.51099999109E-03 0.  1.
       22    1    1    2    0    0  0.11770501462E-01  0.20912125893E-01  0.25465958910E-01  0.34991095685E-01  0.00000000000E+00 0. -1.
       22    1    1    2    0    0 -0.10883400894E-01 -0.19544660338E-01 -0.24098104666E-01  0.32881009888E-01  0.00000000000E+00 0.  1.
       22    1    1    2    0    0 -0.88710056765E-03 -0.13674655545E-02 -0.13678542437E-02  0.21278944269E-02  0.00000000000E+00 0.  1.
</event>
<event>
 5   0  0.4146200E+04  0.9118800E+02  0.7546771E-02  0.1180000E+00
      -11   -1    0    0    0    0  0.00000000000E+00  0.00000000000E+00  0.34996269501E-01  0.35000000000E-01  0.51099999109E-03 0. -1.
       11   -1    0    0    0    0 -0.00000000000E+00 -0.00000000000E+00 -0.34996269501E-01  0.35000000000E-01  0.51099999109E-03 0.  1.
       22    1    1    2    0    0  0.76491142292E-02  0.61445185569E-02 -0.31097428415E-01  0.32608497524E-01  0.00000000000E+00 0.  1.
       22    1    1    2    0    0 -0.85606024502E-02 -0.43538355725E-02  0.33153540173E-01  0.34516619541E-01  0.00000000000E+00 0. -1.
       22    1    1    2    0    0  0.91148822104E-03 -0.17906829845E-02 -0.20561117583E-02  0.28748829351E-02  0.00000000000E+00 0.  1.
</event>
<event>
 5   0  0.4146200E+04  0.9118800E+02  0.7546771E-02  0.1180000E+00
      -11   -1    0    0    0    0  0.00000000000E+00  0.00000000000E+00  0.34996269501E-01  0.35000000000E-01  0.51099999109E-03 0.  1.
       11   -1    0    0    0    0 -0.00000000000E+00 -0.00000000000E+00 -0.34996269501E-01  0.35000000000E-01  0.51099999109E-03 0. -1.
       22    1    1    2    0    0  0.18130939926E-03  0.46606853032E-04 -0.10555836062E-01  0.10557495927E-01  0.00000000000E+00 0. -1.
       22    1    1    2    0    0  0.89360124898E-02  0.12617206863E-01 -0.19912793966E-01  0.25210426251E-01  0.00000000000E+00 0. -1.
       22    1    1    2    0    0 -0.91173218891E-02 -0.12663813716E-01  0.30468630027E-01  0.34232077822E-01  0.00000000000E+00 0.  1.
</event>
<event>
 5   0  0.4146200E+04  0.9118800E+02  0.7546771E-02  0.1180000E+00
      -11   -1    0    0    0    0  0.00000000000E+00  0.00000000000E+00  0.34996269501E-01  0.35000000000E-01  0.51099999109E-03 0.  1.
       11   -1    0    0    0    0 -0.00000000000E+00 -0.00000000000E+00 -0.34996269501E-01  0.35000000000E-01  0.51099999109E-03 0. -1.
       22    1    1    2    0    0  0.29518047372E-02  0.16108524239E-01 -0.24202262184E-01  0.29222374975E-01  0.00000000000E+00 0. -1.
       22    1    1    2    0    0 -0.34800608922E-02 -0.16247573667E-01  0.30352585577E-01  0.34603091265E-01  0.00000000000E+00 0.  1.
       22    1    1    2    0    0  0.52825615497E-03  0.13904942804E-03 -0.61503233929E-02  0.61745337594E-02  0.00000000000E+00 0. -1.
</event>
<event>
 5   0  0.4146200E+04  0.9118800E+02  0.7546771E-02  0.1180000E+00
      -11   -1    0    0    0    0  0.00000000000E+00  0.00000000000E+00  0.34996269501E-01  0.35000000000E-01  0.51099999109E-03 0. -1.
       11   -1    0    0    0    0 -0.00000000000E+00 -0.00000000000E+00 -0.34996269501E-01  0.35000000000E-01  0.51099999109E-03 0.  1.
       22    1    1    2    0    0  0.32575848115E-02  0.12170930718E-01 -0.32579479294E-01  0.34930872941E-01  0.00000000000E+00 0.  1.
       22    1    1    2    0    0 -0.32400689348E-02 -0.12226586338E-01  0.30899299729E-01  0.33387934706E-01  0.00000000000E+00 0. -1.
       22    1    1    2    0    0 -0.17515876682E-04  0.55655620110E-04  0.16801795651E-02  0.16811923522E-02  0.00000000000E+00 0. -1.
</event>
<event>
 5   0  0.4146200E+04  0.9118800E+02  0.7546771E-02  0.1180000E+00
      -11   -1    0    0    0    0  0.00000000000E+00  0.00000000000E+00  0.34996269501E-01  0.35000000000E-01  0.51099999109E-03 0. -1.
       11   -1    0    0    0    0 -0.00000000000E+00 -0.00000000000E+00 -0.34996269501E-01  0.35000000000E-01  0.51099999109E-03 0.  1.
       22    1    1    2    0    0 -0.24474620322E-02 -0.10928247658E-02  0.20578879124E-02  0.33792364563E-02  0.00000000000E+00 0.  1.
       22    1    1    2    0    0 -0.10380983402E-01  0.10638939890E-01  0.28493478967E-01  0.32137675741E-01  0.00000000000E+00 0. -1.
       22    1    1    2    0    0  0.12828445434E-01 -0.95461151246E-02 -0.30551366879E-01  0.34483087803E-01  0.00000000000E+00 0.  1.
</event>
<event>
 5   0  0.4146200E+04  0.9118800E+02  0.7546771E-02  0.1180000E+00
      -11   -1    0    0    0    0  0.00000000000E+00  0.00000000000E+00  0.34996269501E-01  0.35000000000E-01  0.51099999109E-03 0. -1.
       11   -1    0    0    0    0 -0.00000000000E+00 -0.00000000000E+00 -0.34996269501E-01  0.35000000000E-01  0.51099999109E-03 0.  1.
       22    1    1    2    0    0  0.51810134996E-04 -0.32602065874E-04 -0.67870999351E-03  0.68146492212E-03  0.00000000000E+00 0. -1.
       22    1    1    2    0    0  0.14687065320E-01  0.37007779236E-02  0.31503266781E-01  0.34955134999E-01  0.00000000000E+00 0. -1.
       22    1    1    2    0    0 -0.14738875455E-01 -0.36681758577E-02 -0.30824556787E-01  0.34363400078E-01  0.00000000000E+00 0.  1.
</event>
<event>
 5   0  0.4146200E+04  0.9118800E+02  0.7546771E-02  0.1180000E+00
      -11   -1    0    0    0    0  0.00000000000E+00  0.00000000000E+00  0.34996269501E-01  0.35000000000E-01  0.51099999109E-03 0.  1.
       11   -1    0    0    0    0 -0.00000000000E+00 -0.00000000000E+00 -0.34996269501E-01  0.35000000000E-01  0.51099999109E-03 0. -1.
       22    1    1    2    0    0  0.18806284778E-01 -0.13556197309E-02  0.29106106941E-01  0.34679670029E-01  0.00000000000E+00 0.  1.
       22    1    1    2    0    0  0.48509406654E-04 -0.31425771375E-03  0.24056004767E-03  0.39872322445E-03  0.00000000000E+00 0.  1.
       22    1    1    2    0    0 -0.18854794185E-01  0.16698774447E-02 -0.29346666989E-01  0.34921606747E-01  0.00000000000E+00 0. -1.
</event>
<event>
 5   0  0.4146200E+04  0.9118800E+02  0.7546771E-02  0.1180000E+00
      -11   -1    0    0    0    0  0.00000000000E+00  0.00000000000E+00  0.34996269501E-01  0.35000000000E-01  0.51099999109E-03 0. -1.
       11   -1    0    0    0    0 -0.00000000000E+00 -0.00000000000E+00 -0.34996269501E-01  0.35000000000E-01  0.51099999109E-03 0.  1.
       22    1    1    2    0    0 -0.26596086122E-01 -0.35904750437E-02  0.22160491393E-01  0.34804176284E-01  0.00000000000E+00 0. -1.
       22    1    1    2    0    0  0.26813663975E-01  0.34202146968E-02 -0.21720883834E-01  0.34676609391E-01  0.00000000000E+00 0.  1.
       22    1    1    2    0    0 -0.21757785350E-03  0.17026034690E-03 -0.43960755984E-03  0.51921432446E-03  0.00000000000E+00 0.  1.
</event>
<event>
 5   0  0.4146200E+04  0.9118800E+02  0.7546771E-02  0.1180000E+00
      -11   -1    0    0    0    0  0.00000000000E+00  0.00000000000E+00  0.34996269501E-01  0.35000000000E-01  0.51099999109E-03 0.  1.
       11   -1    0    0    0    0 -0.00000000000E+00 -0.00000000000E+00 -0.34996269501E-01  0.35000000000E-01  0.51099999109E-03 0. -1.
       22    1    1    2    0    0  0.10365859449E-01 -0.26302001358E-02 -0.22201399913E-01  0.24642872255E-01  0.00000000000E+00 0.  1.
       22    1    1    2    0    0 -0.99993203667E-02  0.63681586423E-03 -0.93715128305E-02  0.13719227200E-01  0.00000000000E+00 0. -1.
       22    1    1    2    0    0 -0.36653908181E-03  0.19933842716E-02  0.31572912744E-01  0.31637900545E-01  0.00000000000E+00 0. -1.
</event>
<event>
 5   0  0.4146200E+04  0.9118800E+02  0.7546771E-02  0.1180000E+00
      -11   -1    0    0    0    0  0.00000000000E+00  0.00000000000E+00  0.34996269501E-01  0.35000000000E-01  0.51099999109E-03 0. -1.
       11   -1    0    0    0    0 -0.00000000000E+00 -0.00000000000E+00 -0.34996269501E-01  0.35000000000E-01  0.51099999109E-03 0.  1.
       22    1    1    2    0    0 -0.75534114259E-02  0.21374896816E-01 -0.25816776717E-01  0.34357622126E-01  0.00000000000E+00 0.  1.
       22    1    1    2    0    0  0.14193366529E-02  0.60942198653E-03  0.29731508526E-02  0.33504533550E-02  0.00000000000E+00 0. -1.
       22    1    1    2    0    0  0.61340747730E-02 -0.21984318802E-01  0.22843625865E-01  0.32291924519E-01  0.00000000000E+00 0. -1.
</event>
<event>
 5   0  0.4146200E+04  0.9118800E+02  0.7546771E-02  0.1180000E+00
      -11   -1    0    0    0    0  0.00000000000E+00  0.00000000000E+00  0.34996269501E-01  0.35000000000E-01  0.51099999109E-03 0. -1.
       11   -1    0    0    0    0 -0.00000000000E+00 -0.00000000000E+00 -0.34996269501E-01  0.35000000000E-01  0.51099999109E-03 0.  1.
       22    1    1    2    0    0  0.18890982068E-03  0.48202850267E-03  0.26639010136E-01  0.26644040599E-01  0.00000000000E+00 0. -1.
       22    1    1    2    0    0  0.74667417489E-02  0.11454691538E-01 -0.57682442280E-03  0.13685573316E-01  0.00000000000E+00 0. -1.
       22    1    1    2    0    0 -0.76556515696E-02 -0.11936720040E-01 -0.26062185713E-01  0.29670386085E-01  0.00000000000E+00 0.  1.
</event>
<event>
 5   0  0.4146200E+04  0.9118800E+02  0.7546771E-02  0.1180000E+00
      -11   -1    0    0    0    0  0.00000000000E+00  0.00000000000E+00  0.34996269501E-01  0.35000000000E-01  0.51099999109E-03 0. -1.
       11   -1    0    0    0    0 -0.00000000000E+00 -0.00000000000E+00 -0.34996269501E-01  0.35000000000E-01  0.51099999109E-03 0.  1.
       22    1    1    2    0    0  0.13124615717E-01  0.20381434761E-01  0.24363984959E-01  0.34369494959E-01  0.00000000000E+00 0. -1.
       22    1    1    2    0    0  0.63145929045E-03  0.55554311964E-03 -0.14694340667E-02  0.16931052742E-02  0.00000000000E+00 0.  1.
       22    1    1    2    0    0 -0.13756075007E-01 -0.20936977881E-01 -0.22894550892E-01  0.33937399767E-01  0.00000000000E+00 0.  1.
</event>
<event>
 5   0  0.4146200E+04  0.9118800E+02  0.7546771E-02  0.1180000E+00
      -11   -1    0    0    0    0  0.00000000000E+00  0.00000000000E+00  0.34996269501E-01  0.35000000000E-01  0.51099999109E-03 0. -1.
       11   -1    0    0    0    0 -0.00000000000E+00 -0.00000000000E+00 -0.34996269501E-01  0.35000000000E-01  0.51099999109E-03 0.  1.
       22    1    1    2    0    0 -0.12826373784E-01 -0.12227762194E-02 -0.20721890111E-01  0.24400978995E-01  0.00000000000E+00 0.  1.
       22    1    1    2    0    0  0.91128375058E-02  0.14033920695E-02  0.32220756761E-01  0.33514034120E-01  0.00000000000E+00 0. -1.
       22    1    1    2    0    0  0.37135362783E-02 -0.18061585006E-03 -0.11498866650E-01  0.12084986885E-01  0.00000000000E+00 0. -1.
</event>
<event>
 5   0  0.4146200E+04  0.9118800E+02  0.7546771E-02  0.1180000E+00
      -11   -1    0    0    0    0  0.00000000000E+00  0.00000000000E+00  0.34996269501E-01  0.35000000000E-01  0.51099999109E-03 0.  1.
       11   -1    0    0    0    0 -0.00000000000E+00 -0.00000000000E+00 -0.34996269501E-01  0.35000000000E-01  0.51099999109E-03 0. -1.
       22    1    1    2    0    0 -0.37034877308E-02  0.27433149871E-02 -0.33606712702E-01  0.33921272635E-01  0.00000000000E+00 0. -1.
       22    1    1    2    0    0  0.40317307815E-02 -0.25755029478E-02  0.34646641327E-01  0.34975388829E-01  0.00000000000E+00 0.  1.
       22    1    1    2    0    0 -0.32824305068E-03 -0.16781203935E-03 -0.10399286245E-02  0.11033385360E-02  0.00000000000E+00 0.  1.
</event>
<event>
 5   0  0.4146200E+04  0.9118800E+02  0.7546771E-02  0.1180000E+00
      -11   -1    0    0    0    0  0.00000000000E+00  0.00000000000E+00  0.34996269501E-01  0.35000000000E-01  0.51099999109E-03 0. -1.
       11   -1    0    0    0    0 -0.00000000000E+00 -0.00000000000E+00 -0.34996269501E-01  0.35000000000E-01  0.51099999109E-03 0.  1.
       22    1    1    2    0    0  0.11423786947E-01 -0.15836247336E-01 -0.28104675061E-01  0.34222250046E-01  0.00000000000E+00 0.  1.
       22    1    1    2    0    0  0.97783105312E-04 -0.13924172549E-02  0.14426555922E-02  0.20073969476E-02  0.00000000000E+00 0.  1.
       22    1    1    2    0    0 -0.11521570052E-01  0.17228664591E-01  0.26662019469E-01  0.33770353007E-01  0.00000000000E+00 0. -1.
</event>
<event>
 5   0  0.4146200E+04  0.9118800E+02  0.7546771E-02  0.1180000E+00
      -11   -1    0    0    0    0  0.00000000000E+00  0.00000000000E+00  0.34996269501E-01  0.35000000000E-01  0.51099999109E-03 0. -1.
       11   -1    0    0    0    0 -0.00000000000E+00 -0.00000000000E+00 -0.34996269501E-01  0.35000000000E-01  0.51099999109E-03 0.  1.
       22    1    1    2    0    0 -0.13794817454E-01 -0.38109386390E-03  0.32121021095E-01  0.34960008829E-01  0.00000000000E+00 0. -1.
       22    1    1    2    0    0  0.13861690326E-01  0.26135667824E-03 -0.31822720688E-01  0.34711674088E-01  0.00000000000E+00 0.  1.
       22    1    1    2    0    0 -0.66872872024E-04  0.11973718567E-03 -0.29830040724E-03  0.32831708393E-03  0.00000000000E+00 0.  1.
</event>
<event>
 5   0  0.4146200E+04  0.9118800E+02  0.7546771E-02  0.1180000E+00
      -11   -1    0    0    0    0  0.00000000000E+00  0.00000000000E+00  0.34996269501E-01  0.35000000000E-01  0.51099999109E-03 0. -1.
       11   -1    0    0    0    0 -0.00000000000E+00 -0.00000000000E+00 -0.34996269501E-01  0.35000000000E-01  0.51099999109E-03 0.  1.
       22    1    1    2    0    0 -0.93698043828E-03  0.18574740108E-01  0.40262353554E-02  0.19029174274E-01  0.00000000000E+00 0. -1.
       22    1    1    2    0    0  0.12505970299E-02 -0.18526905881E-01 -0.24362346319E-01  0.30632240412E-01  0.00000000000E+00 0.  1.
       22    1    1    2    0    0 -0.31361659158E-03 -0.47834226148E-04  0.20336110964E-01  0.20338585315E-01  0.00000000000E+00 0. -1.
</event>
<event>
 5   0  0.4146200E+04  0.9118800E+02  0.7546771E-02  0.1180000E+00
      -11   -1    0    0    0    0  0.00000000000E+00  0.00000000000E+00  0.34996269501E-01  0.35000000000E-01  0.51099999109E-03 0. -1.
       11   -1    0    0    0    0 -0.00000000000E+00 -0.00000000000E+00 -0.34996269501E-01  0.35000000000E-01  0.51099999109E-03 0.  1.
       22    1    1    2    0    0  0.79830461469E-02 -0.87300305791E-02 -0.28128569329E-01  0.30514895907E-01  0.00000000000E+00 0.  1.
       22    1    1    2    0    0  0.17612322902E-03 -0.10233461563E-02  0.26664771665E-01  0.26684982756E-01  0.00000000000E+00 0. -1.
       22    1    1    2    0    0 -0.81591693759E-02  0.97533767354E-02  0.14637976648E-02  0.12800121337E-01  0.00000000000E+00 0. -1.
</event>
<event>
 5   0  0.4146200E+04  0.9118800E+02  0.7546771E-02  0.1180000E+00
      -11   -1    0    0    0    0  0.00000000000E+00  0.00000000000E+00  0.34996269501E-01  0.35000000000E-01  0.51099999109E-03 0. -1.
       11   -1    0    0    0    0 -0.00000000000E+00 -0.00000000000E+00 -0.34996269501E-01  0.35000000000E-01  0.51099999109E-03 0. -1.
       22    1    1    2    0    0 -0.29172861800E-03  0.72195167499E-03 -0.14884255770E-02  0.16798007339E-02  0.00000000000E+00 0.  1.
       22    1    1    2    0    0  0.29172861800E-03 -0.72195167499E-03 -0.33412620150E-01  0.33421692134E-01  0.00000000000E+00 0. -1.
       22    1    1    2    0    0  0.00000000000E+00 -0.00000000000E+00  0.34901045727E-01  0.34898507132E-01  0.00000000000E+00 0. -1.
</event>
<event>
 5   0  0.4146200E+04  0.9118800E+02  0.7546771E-02  0.1180000E+00
      -11   -1    0    0    0    0  0.00000000000E+00  0.00000000000E+00  0.34996269501E-01  0.35000000000E-01  0.51099999109E-03 0.  1.
       11   -1    0    0    0    0 -0.00000000000E+00 -0.00000000000E+00 -0.34996269501E-01  0.35000000000E-01  0.51099999109E-03 0. -1.
       22    1    1    2    0    0  0.21840708928E-02  0.14461094831E-01  0.22520664664E-01  0.26852816729E-01  0.00000000000E+00 0.  1.
       22    1    1    2    0    0  0.68894978796E-03 -0.16498829121E-01 -0.30355854224E-01  0.34556676632E-01  0.00000000000E+00 0. -1.
       22    1    1    2    0    0 -0.28730206807E-02  0.20377342900E-02  0.78351895606E-02  0.85905066393E-02  0.00000000000E+00 0. -1.
</event>
<event>
 5   0  0.4146200E+04  0.9118800E+02  0.7546771E-02  0.1180000E+00
      -11   -1    0    0    0    0  0.00000000000E+00  0.00000000000E+00  0.34996269501E-01  0.35000000000E-01  0.51099999109E-03 0. -1.
       11   -1    0    0    0    0 -0.00000000000E+00 -0.00000000000E+00 -0.34996269501E-01  0.35000000000E-01  0.51099999109E-03 0. -1.
       22    1    1    2    0    0 -0.72230996892E-03 -0.11721621230E-02 -0.14123051012E-02  0.19723847071E-02  0.00000000000E+00 0.  1.
       22    1    1    2    0    0  0.00000000000E+00 -0.00000000000E+00  0.34705953725E-01  0.34705509501E-01  0.00000000000E+00 0. -1.
       22    1    1    2    0    0  0.72230996892E-03  0.11721621230E-02 -0.33293648624E-01  0.33322105792E-01  0.00000000000E+00 0. -1.
</event>
<event>
 5   0  0.4146200E+04  0.9118800E+02  0.7546771E-02  0.1180000E+00
      -11   -1    0    0    0    0  0.00000000000E+00  0.00000000000E+00  0.34996269501E-01  0.35000000000E-01  0.51099999109E-03 0. -1.
       11   -1    0    0    0    0 -0.00000000000E+00 -0.00000000000E+00 -0.34996269501E-01  0.35000000000E-01  0.51099999109E-03 0.  1.
       22    1    1    2    0    0 -0.19077308042E-03 -0.15562413087E-03 -0.75559672747E-03  0.79469469162E-03  0.00000000000E+00 0. -1.
       22    1    1    2    0    0 -0.13739007468E-01 -0.53459492118E-02  0.31626200428E-01  0.34893495851E-01  0.00000000000E+00 0. -1.
       22    1    1    2    0    0  0.13929780548E-01  0.55015733426E-02 -0.30870603701E-01  0.34311809457E-01  0.00000000000E+00 0.  1.
</event>
<event>
 5   0  0.4146200E+04  0.9118800E+02  0.7546771E-02  0.1180000E+00
      -11   -1    0    0    0    0  0.00000000000E+00  0.00000000000E+00  0.34996269501E-01  0.35000000000E-01  0.51099999109E-03 0. -1.
       11   -1    0    0    0    0 -0.00000000000E+00 -0.00000000000E+00 -0.34996269501E-01  0.35000000000E-01  0.51099999109E-03 0.  1.
       22    1    1    2    0    0  0.62433941150E-02 -0.34943906214E-02  0.34220153684E-01  0.34960115190E-01  0.00000000000E+00 0. -1.
       22    1    1    2    0    0  0.16093652714E-03 -0.34661243218E-04 -0.31776667912E-03  0.35787935105E-03  0.00000000000E+00 0. -1.
       22    1    1    2    0    0 -0.64043306421E-02  0.35290518646E-02 -0.33902387005E-01  0.34682005459E-01  0.00000000000E+00 0.  1.
</event>
<event>
 5   0  0.4146200E+04  0.9118800E+02  0.7546771E-02  0.1180000E+00
      -11   -1    0    0    0    0  0.00000000000E+00  0.00000000000E+00  0.34996269501E-01  0.35000000000E-01  0.51099999109E-03 0. -1.
       11   -1    0    0    0    0 -0.00000000000E+00 -0.00000000000E+00 -0.34996269501E-01  0.35000000000E-01  0.51099999109E-03 0.  1.
       22    1    1    2    0    0 -0.67502602688E-02  0.88358758281E-03  0.22492149559E-01  0.23499862393E-01  0.00000000000E+00 0. -1.
       22    1    1    2    0    0 -0.91065266990E-02 -0.10517260009E-01  0.37062565788E-02  0.14397149872E-01  0.00000000000E+00 0. -1.
       22    1    1    2    0    0  0.15856786968E-01  0.96336724265E-02 -0.26198406137E-01  0.32102987735E-01  0.00000000000E+00 0.  1.
</event>
<event>
 5   0  0.4146200E+04  0.9118800E+02  0.7546771E-02  0.1180000E+00
      -11   -1    0    0    0    0  0.00000000000E+00  0.00000000000E+00  0.34996269501E-01  0.35000000000E-01  0.51099999109E-03 0.  1.
       11   -1    0    0    0    0 -0.00000000000E+00 -0.00000000000E+00 -0.34996269501E-01  0.35000000000E-01  0.51099999109E-03 0. -1.
       22    1    1    2    0    0  0.68637896937E-03 -0.13328086000E-03  0.55749321995E-02  0.56186073814E-02  0.00000000000E+00 0.  1.
       22    1    1    2    0    0 -0.45492212777E-02  0.17169246887E-01  0.24105180011E-01  0.29942247014E-01  0.00000000000E+00 0.  1.
       22    1    1    2    0    0  0.38628423083E-02 -0.17035966027E-01 -0.29680112210E-01  0.34439145605E-01  0.00000000000E+00 0. -1.
</event>
<event>
 5   0  0.4146200E+04  0.9118800E+02  0.7546771E-02  0.1180000E+00
      -11   -1    0    0    0    0  0.00000000000E+00  0.00000000000E+00  0.34996269501E-01  0.35000000000E-01  0.51099999109E-03 0. -1.
       11   -1    0    0    0    0 -0.00000000000E+00 -0.00000000000E+00 -0.34996269501E-01  0.35000000000E-01  0.51099999109E-03 0.  1.
       22    1    1    2    0    0 -0.37070904132E-02 -0.84054175677E-03 -0.45758026410E-02  0.59486973016E-02  0.00000000000E+00 0.  1.
       22    1    1    2    0    0  0.52125141652E-02  0.27032051943E-02  0.34013369423E-01  0.34516473194E-01  0.00000000000E+00 0. -1.
       22    1    1    2    0    0 -0.15054237520E-02 -0.18626634375E-02 -0.29437566783E-01  0.29534829504E-01  0.00000000000E+00 0.  1.
</event>
<event>
 5   0  0.4146200E+04  0.9118800E+02  0.7546771E-02  0.1180000E+00
      -11   -1    0    0    0    0  0.00000000000E+00  0.00000000000E+00  0.34996269501E-01  0.35000000000E-01  0.51099999109E-03 0. -1.
       11   -1    0    0    0    0 -0.00000000000E+00 -0.00000000000E+00 -0.34996269501E-01  0.35000000000E-01  0.51099999109E-03 0.  1.
       22    1    1    2    0    0 -0.14057519789E-01  0.14606877348E-01 -0.27064909333E-01  0.33815440936E-01  0.00000000000E+00 0.  1.
       22    1    1    2    0    0  0.12923134068E-01 -0.14631564282E-01  0.16504655439E-01  0.25563523205E-01  0.00000000000E+00 0. -1.
       22    1    1    2    0    0  0.11343857206E-02  0.24686933290E-04  0.10560253895E-01  0.10621035859E-01  0.00000000000E+00 0. -1.
</event>
<event>
 5   0  0.4146200E+04  0.9118800E+02  0.7546771E-02  0.1180000E+00
      -11   -1    0    0    0    0  0.00000000000E+00  0.00000000000E+00  0.34996269501E-01  0.35000000000E-01  0.51099999109E-03 0.  1.
       11   -1    0    0    0    0 -0.00000000000E+00 -0.00000000000E+00 -0.34996269501E-01  0.35000000000E-01  0.51099999109E-03 0. -1.
       22    1    1    2    0    0  0.12352612653E-01  0.77535414199E-02  0.31696259012E-01  0.34890647447E-01  0.00000000000E+00 0.  1.
       22    1    1    2    0    0  0.28078420913E-04  0.11556990876E-03 -0.18390597516E-02  0.18429014003E-02  0.00000000000E+00 0.  1.
       22    1    1    2    0    0 -0.12380691074E-01 -0.78691113287E-02 -0.29857199261E-01  0.33266451152E-01  0.00000000000E+00 0. -1.
</event>
<event>
 5   0  0.4146200E+04  0.9118800E+02  0.7546771E-02  0.1180000E+00
      -11   -1    0    0    0    0  0.00000000000E+00  0.00000000000E+00  0.34996269501E-01  0.35000000000E-01  0.51099999109E-03 0.  1.
       11   -1    0    0    0    0 -0.00000000000E+00 -0.00000000000E+00 -0.34996269501E-01  0.35000000000E-01  0.51099999109E-03 0.  1.
       22    1    1    2    0    0  0.00000000000E+00 -0.00000000000E+00  0.34816846529E-01  0.34813225318E-01  0.00000000000E+00 0.  1.
       22    1    1    2    0    0  0.11245768652E-03 -0.90530403974E-03 -0.98470479579E-03  0.13423359008E-02  0.00000000000E+00 0. -1.
       22    1    1    2    0    0 -0.11245768652E-03  0.90530403974E-03 -0.33832141734E-01  0.33844438781E-01  0.00000000000E+00 0.  1.
</event>
<event>
 5   0  0.4146200E+04  0.9118800E+02  0.7546771E-02  0.1180000E+00
      -11   -1    0    0    0    0  0.00000000000E+00  0.00000000000E+00  0.34996269501E-01  0.35000000000E-01  0.51099999109E-03 0. -1.
       11   -1    0    0    0    0 -0.00000000000E+00 -0.00000000000E+00 -0.34996269501E-01  0.35000000000E-01  0.51099999109E-03 0. -1.
       22    1    1    2    0    0 -0.25127718136E-02  0.19973485994E-04 -0.44159630859E-02  0.50808612561E-02  0.00000000000E+00 0.  1.
       22    1    1    2    0    0 -0.39365978106E-03 -0.31250656222E-04  0.34596611321E-01  0.34598865004E-01  0.00000000000E+00 0. -1.
       22    1    1    2    0    0  0.29064315947E-02  0.11277170228E-04 -0.30180648235E-01  0.30320273740E-01  0.00000000000E+00 0. -1.
</event>
<event>
 5   0  0.4146200E+04  0.9118800E+02  0.7546771E-02  0.1180000E+00
      -11   -1    0    0    0    0  0.00000000000E+00  0.00000000000E+00  0.34996269501E-01  0.35000000000E-01  0.51099999109E-03 0.  1.
       11   -1    0    0    0    0 -0.00000000000E+00 -0.00000000000E+00 -0.34996269501E-01  0.35000000000E-01  0.51099999109E-03 0. -1.
       22    1    1    2    0    0  0.26660322967E-02 -0.79881974877E-02 -0.31106606072E-01  0.32226386218E-01  0.00000000000E+00 0. -1.
       22    1    1    2    0    0 -0.22573568713E-02  0.91488324212E-02  0.33651978519E-01  0.34946422606E-01  0.00000000000E+00 0.  1.
       22    1    1    2    0    0 -0.40867542532E-03 -0.11606349335E-02 -0.25453724471E-02  0.28271911762E-02  0.00000000000E+00 0. -1.
</event>
<event>
 5   0  0.4146200E+04  0.9118800E+02  0.7546771E-02  0.1180000E+00
      -11   -1    0    0    0    0  0.00000000000E+00  0.00000000000E+00  0.34996269501E-01  0.35000000000E-01  0.51099999109E-03 0. -1.
       11   -1    0    0    0    0 -0.00000000000E+00 -0.00000000000E+00 -0.34996269501E-01  0.35000000000E-01  0.51099999109E-03 0.  1.
       22    1    1    2    0    0 -0.17165331349E-01 -0.70659276634E-02 -0.22600273978E-01  0.29246338540E-01  0.00000000000E+00 0.  1.
       22    1    1    2    0    0 -0.45037426783E-03  0.36674004005E-03 -0.62588208157E-02  0.62857118325E-02  0.00000000000E+00 0.  1.
       22    1    1    2    0    0  0.17615705617E-01  0.66991876234E-02  0.28859094794E-01  0.34467949628E-01  0.00000000000E+00 0. -1.
</event>
<event>
 5   0  0.4146200E+04  0.9118800E+02  0.7546771E-02  0.1180000E+00
      -11   -1    0    0    0    0  0.00000000000E+00  0.00000000000E+00  0.34996269501E-01  0.35000000000E-01  0.51099999109E-03 0.  1.
       11   -1    0    0    0    0 -0.00000000000E+00 -0.00000000000E+00 -0.34996269501E-01  0.35000000000E-01  0.51099999109E-03 0. -1.
       22    1    1    2    0    0  0.15853799545E-01  0.25705545959E-02 -0.30331933395E-01  0.34321668002E-01  0.00000000000E+00 0. -1.
       22    1    1    2    0    0 -0.88586080011E-04 -0.16486566107E-03  0.92106163273E-02  0.92125176422E-02  0.00000000000E+00 0.  1.
       22    1    1    2    0    0 -0.15765213465E-01 -0.24056889348E-02  0.21121317068E-01  0.26465814356E-01  0.00000000000E+00 0.  1.
</event>
<event>
 5   0  0.4146200E+04  0.9118800E+02  0.7546771E-02  0.1180000E+00
      -11   -1    0    0    0    0  0.00000000000E+00  0.00000000000E+00  0.34996269501E-01  0.35000000000E-01  0.51099999109E-03 0.  1.
       11   -1    0    0    0    0 -0.00000000000E+00 -0.00000000000E+00 -0.34996269501E-01  0.35000000000E-01  0.51099999109E-03 0. -1.
       22    1    1    2    0    0  0.18738177440E-02 -0.11190697485E-01  0.33057709007E-01  0.34950751464E-01  0.00000000000E+00 0.  1.
       22    1    1    2    0    0 -0.18156500540E-02  0.11334715068E-01 -0.32768237508E-01  0.34720739338E-01  0.00000000000E+00 0. -1.
       22    1    1    2    0    0 -0.58167689968E-04 -0.14401758305E-03 -0.28947149876E-03  0.32850919771E-03  0.00000000000E+00 0.  1.
</event>
<event>
 5   0  0.4146200E+04  0.9118800E+02  0.7546771E-02  0.1180000E+00
      -11   -1    0    0    0    0  0.00000000000E+00  0.00000000000E+00  0.34996269501E-01  0.35000000000E-01  0.51099999109E-03 0.  1.
       11   -1    0    0    0    0 -0.00000000000E+00 -0.00000000000E+00 -0.34996269501E-01  0.35000000000E-01  0.51099999109E-03 0. -1.
       22    1    1    2    0    0 -0.65281340546E-02  0.14766452792E-03  0.90145468782E-02  0.11131055407E-01  0.00000000000E+00 0. -1.
       22    1    1    2    0    0  0.21905763407E-01  0.18669997927E-02  0.17534895088E-01  0.28121534531E-01  0.00000000000E+00 0.  1.
       22    1    1    2    0    0 -0.15377629352E-01 -0.20146643206E-02 -0.26549441966E-01  0.30747410062E-01  0.00000000000E+00 0. -1.
</event>
<event>
 5   0  0.4146200E+04  0.9118800E+02  0.7546771E-02  0.1180000E+00
      -11   -1    0    0    0    0  0.00000000000E+00  0.00000000000E+00  0.34996269501E-01  0.35000000000E-01  0.51099999109E-03 0. -1.
       11   -1    0    0    0    0 -0.00000000000E+00 -0.00000000000E+00 -0.34996269501E-01  0.35000000000E-01  0.51099999109E-03 0.  1.
       22    1    1    2    0    0 -0.13325699441E-01  0.76869542848E-02  0.31044025137E-01  0.34646717427E-01  0.00000000000E+00 0. -1.
       22    1    1    2    0    0  0.21290005757E-04 -0.42643348652E-04  0.38007626098E-03  0.38305310819E-03  0.00000000000E+00 0. -1.
       22    1    1    2    0    0  0.13304409436E-01 -0.76443109361E-02 -0.31424101398E-01  0.34970229464E-01  0.00000000000E+00 0.  1.
</event>
<event>
 5   0  0.4146200E+04  0.9118800E+02  0.7546771E-02  0.1180000E+00
      -11   -1    0    0    0    0  0.00000000000E+00  0.00000000000E+00  0.34996269501E-01  0.35000000000E-01  0.51099999109E-03 0.  1.
       11   -1    0    0    0    0 -0.00000000000E+00 -0.00000000000E+00 -0.34996269501E-01  0.35000000000E-01  0.51099999109E-03 0. -1.
       22    1    1    2    0    0  0.78934863849E-02 -0.10545494239E-01  0.96099413765E-02  0.16305384059E-01  0.00000000000E+00 0.  1.
       22    1    1    2    0    0 -0.68383400330E-02  0.12894887502E-01 -0.29883804474E-01  0.33257822958E-01  0.00000000000E+00 0. -1.
       22    1    1    2    0    0 -0.10551463519E-02 -0.23493932627E-02  0.20273863097E-01  0.20436792983E-01  0.00000000000E+00 0.  1.
</event>
<event>
 5   0  0.4146200E+04  0.9118800E+02  0.7546771E-02  0.1180000E+00
      -11   -1    0    0    0    0  0.00000000000E+00  0.00000000000E+00  0.34996269501E-01  0.35000000000E-01  0.51099999109E-03 0.  1.
       11   -1    0    0    0    0 -0.00000000000E+00 -0.00000000000E+00 -0.34996269501E-01  0.35000000000E-01  0.51099999109E-03 0. -1.
       22    1    1    2    0    0 -0.15345089792E-03  0.12438458900E-01  0.32154432385E-01  0.34476750557E-01  0.00000000000E+00 0.  1.
       22    1    1    2    0    0  0.19975602401E-02  0.42395062947E-03 -0.33451958903E-02  0.39192239785E-02  0.00000000000E+00 0.  1.
       22    1    1    2    0    0 -0.18441093422E-02 -0.12862409530E-01 -0.28809236494E-01  0.31604025465E-01  0.00000000000E+00 0. -1.
</event>
<event>
 5   0  0.4146200E+04  0.9118800E+02  0.7546771E-02  0.1180000E+00
      -11   -1    0    0    0    0  0.00000000000E+00  0.00000000000E+00  0.34996269501E-01  0.35000000000E-01  0.51099999109E-03 0.  1.
       11   -1    0    0    0    0 -0.00000000000E+00 -0.00000000000E+00 -0.34996269501E-01  0.35000000000E-01  0.51099999109E-03 0. -1.
       22    1    1    2    0    0  0.36191889743E-04  0.40760720735E-03 -0.11699725205E-02  0.12394713337E-02  0.00000000000E+00 0.  1.
       22    1    1    2    0    0 -0.44383217375E-02 -0.51245280460E-02 -0.33151654450E-01  0.33837725696E-01  0.00000000000E+00 0. -1.
       22    1    1    2    0    0  0.44021298477E-02  0.47169208386E-02  0.34321626970E-01  0.34922802970E-01  0.00000000000E+00 0.  1.
</event>
<event>
 5   0  0.4146200E+04  0.9118800E+02  0.7546771E-02  0.1180000E+00
      -11   -1    0    0    0    0  0.00000000000E+00  0.00000000000E+00  0.34996269501E-01  0.35000000000E-01  0.51099999109E-03 0. -1.
       11   -1    0    0    0    0 -0.00000000000E+00 -0.00000000000E+00 -0.34996269501E-01  0.35000000000E-01  0.51099999109E-03 0.  1.
       22    1    1    2    0    0  0.19453317758E-01  0.13907213417E-01 -0.25443239769E-01  0.34917053237E-01  0.00000000000E+00 0.  1.
       22    1    1    2    0    0 -0.19415553230E-01 -0.13893255131E-01  0.24748807099E-01  0.34387347937E-01  0.00000000000E+00 0. -1.
       22    1    1    2    0    0 -0.37764528779E-04 -0.13958286243E-04  0.69443266971E-03  0.69559882558E-03  0.00000000000E+00 0. -1.
</event>
<event>
 5   0  0.4146200E+04  0.9118800E+02  0.7546771E-02  0.1180000E+00
      -11   -1    0    0    0    0  0.00000000000E+00  0.00000000000E+00  0.34996269501E-01  0.35000000000E-01  0.51099999109E-03 0.  1.
       11   -1    0    0    0    0 -0.00000000000E+00 -0.00000000000E+00 -0.34996269501E-01  0.35000000000E-01  0.51099999109E-03 0. -1.
       22    1    1    2    0    0  0.15151525819E-01  0.10389027476E-01 -0.29328396952E-01  0.34607159582E-01  0.00000000000E+00 0. -1.
       22    1    1    2    0    0 -0.15122467000E-01 -0.10456646886E-01  0.29745704612E-01  0.34969092283E-01  0.00000000000E+00 0.  1.
       22    1    1    2    0    0 -0.29058819238E-04  0.67619409451E-04 -0.41730765946E-03  0.42374813528E-03  0.00000000000E+00 0.  1.
</event>
<event>
 5   0  0.4146200E+04  0.9118800E+02  0.7546771E-02  0.1180000E+00
      -11   -1    0    0    0    0  0.00000000000E+00  0.00000000000E+00  0.34996269501E-01  0.35000000000E-01  0.51099999109E-03 0. -1.
       11   -1    0    0    0    0 -0.00000000000E+00 -0.00000000000E+00 -0.34996269501E-01  0.35000000000E-01  0.51099999109E-03 0. -1.
       22    1    1    2    0    0  0.10828555917E-02  0.34899908063E-02 -0.27887172382E-01  0.28125557693E-01  0.00000000000E+00 0. -1.
       22    1    1    2    0    0 -0.10828555917E-02 -0.34899908063E-02 -0.65180390275E-02  0.74724457057E-02  0.00000000000E+00 0.  1.
       22    1    1    2    0    0  0.00000000000E+00  0.00000000000E+00  0.34405211409E-01  0.34401996602E-01  0.00000000000E+00 0. -1.
</event>
<event>
 5   0  0.4146200E+04  0.9118800E+02  0.7546771E-02  0.1180000E+00
      -11   -1    0    0    0    0  0.00000000000E+00  0.00000000000E+00  0.34996269501E-01  0.35000000000E-01  0.51099999109E-03 0. -1.
       11   -1    0    0    0    0 -0.00000000000E+00 -0.00000000000E+00 -0.34996269501E-01  0.35000000000E-01  0.51099999109E-03 0.  1.
       22    1    1    2    0    0 -0.16839579044E-02 -0.29102928932E-02 -0.11224404570E-01  0.11717200045E-01  0.00000000000E+00 0.  1.
       22    1    1    2    0    0  0.40588660653E-02  0.11610465034E-01 -0.21264536954E-01  0.24565378562E-01  0.00000000000E+00 0.  1.
       22    1    1    2    0    0 -0.23749081609E-02 -0.87001721405E-02  0.32488941524E-01  0.33717421393E-01  0.00000000000E+00 0. -1.
</event>
<event>
 5   0  0.4146200E+04  0.9118800E+02  0.7546771E-02  0.1180000E+00
      -11   -1    0    0    0    0  0.00000000000E+00  0.00000000000E+00  0.34996269501E-01  0.35000000000E-01  0.51099999109E-03 0.  1.
       11   -1    0    0    0    0 -0.00000000000E+00 -0.00000000000E+00 -0.34996269501E-01  0.35000000000E-01  0.51099999109E-03 0. -1.
       22    1    1    2    0    0 -0.98820869339E-02 -0.21494660912E-01 -0.25478905057E-01  0.34768530208E-01  0.00000000000E+00 0. -1.
       22    1    1    2    0    0  0.10444304262E-01  0.20893519569E-01  0.23725414238E-01  0.33294412929E-01  0.00000000000E+00 0.  1.
       22    1    1    2    0    0 -0.56221732789E-03  0.60114134252E-03  0.17534908198E-02  0.19370568636E-02  0.00000000000E+00 0. -1.
</event>
<event>
 5   0  0.4146200E+04  0.9118800E+02  0.7546771E-02  0.1180000E+00
      -11   -1    0    0    0    0  0.00000000000E+00  0.00000000000E+00  0.34996269501E-01  0.35000000000E-01  0.51099999109E-03 0.  1.
       11   -1    0    0    0    0 -0.00000000000E+00 -0.00000000000E+00 -0.34996269501E-01  0.35000000000E-01  0.51099999109E-03 0. -1.
       22    1    1    2    0    0  0.80422312127E-02  0.20203137298E-02 -0.11973277571E-01  0.14564289417E-01  0.00000000000E+00 0.  1.
       22    1    1    2    0    0 -0.59833688254E-02 -0.70501870880E-04  0.33344519567E-01  0.33877170162E-01  0.00000000000E+00 0.  1.
       22    1    1    2    0    0 -0.20588623872E-02 -0.19498118589E-02 -0.21371241996E-01  0.21558540421E-01  0.00000000000E+00 0. -1.
</event>
<event>
 5   0  0.4146200E+04  0.9118800E+02  0.7546771E-02  0.1180000E+00
      -11   -1    0    0    0    0  0.00000000000E+00  0.00000000000E+00  0.34996269501E-01  0.35000000000E-01  0.51099999109E-03 0.  1.
       11   -1    0    0    0    0 -0.00000000000E+00 -0.00000000000E+00 -0.34996269501E-01  0.35000000000E-01  0.51099999109E-03 0. -1.
       22    1    1    2    0    0  0.78096854783E-03  0.34738453916E-03 -0.13498721349E-02  0.15977304752E-02  0.00000000000E+00 0. -1.
       22    1    1    2    0    0 -0.17744931432E-02 -0.14604200661E-02  0.34821575355E-01  0.34897331745E-01  0.00000000000E+00 0.  1.
       22    1    1    2    0    0  0.99352459537E-03  0.11130355269E-02 -0.33471703220E-01  0.33504937780E-01  0.00000000000E+00 0. -1.
</event>
<event>
 5   0  0.4146200E+04  0.9118800E+02  0.7546771E-02  0.1180000E+00
      -11   -1    0    0    0    0  0.00000000000E+00  0.00000000000E+00  0.34996269501E-01  0.35000000000E-01  0.51099999109E-03 0. -1.
       11   -1    0    0    0    0 -0.00000000000E+00 -0.00000000000E+00 -0.34996269501E-01  0.35000000000E-01  0.51099999109E-03 0.  1.
       22    1    1    2    0    0  0.72798207459E-03  0.60471324721E-03 -0.24825514585E-01  0.24843546655E-01  0.00000000000E+00 0.  1.
       22    1    1    2    0    0  0.40118151873E-02 -0.21694420489E-02 -0.94639551108E-02  0.10505597853E-01  0.00000000000E+00 0.  1.
       22    1    1    2    0    0 -0.47397972619E-02  0.15647288017E-02  0.34289469696E-01  0.34650855492E-01  0.00000000000E+00 0. -1.
</event>
<event>
 5   0  0.4146200E+04  0.9118800E+02  0.7546771E-02  0.1180000E+00
      -11   -1    0    0    0    0  0.00000000000E+00  0.00000000000E+00  0.34996269501E-01  0.35000000000E-01  0.51099999109E-03 0.  1.
       11   -1    0    0    0    0 -0.00000000000E+00 -0.00000000000E+00 -0.34996269501E-01  0.35000000000E-01  0.51099999109E-03 0. -1.
       22    1    1    2    0    0 -0.17874776100E-01 -0.63771968375E-02  0.28715047235E-01  0.34419909905E-01  0.00000000000E+00 0.  1.
       22    1    1    2    0    0  0.18128037316E-01  0.40375622047E-02 -0.24388667591E-01  0.30655093417E-01  0.00000000000E+00 0. -1.
       22    1    1    2    0    0 -0.25326121622E-03  0.23396346328E-02 -0.43263796440E-02  0.49249966784E-02  0.00000000000E+00 0. -1.
</event>
<event>
 5   0  0.4146200E+04  0.9118800E+02  0.7546771E-02  0.1180000E+00
      -11   -1    0    0    0    0  0.00000000000E+00  0.00000000000E+00  0.34996269501E-01  0.35000000000E-01  0.51099999109E-03 0.  1.
       11   -1    0    0    0    0 -0.00000000000E+00 -0.00000000000E+00 -0.34996269501E-01  0.35000000000E-01  0.51099999109E-03 0. -1.
       22    1    1    2    0    0  0.17470179670E-01 -0.25822355406E-01 -0.11768601187E-01  0.33324183266E-01  0.00000000000E+00 0. -1.
       22    1    1    2    0    0 -0.15313634348E-01  0.26108836939E-01  0.14182401254E-01  0.33426325980E-01  0.00000000000E+00 0.  1.
       22    1    1    2    0    0 -0.21565453226E-02 -0.28648153222E-03 -0.24138000668E-02  0.32494907538E-02  0.00000000000E+00 0. -1.
</event>
<event>
 5   0  0.4146200E+04  0.9118800E+02  0.7546771E-02  0.1180000E+00
      -11   -1    0    0    0    0  0.00000000000E+00  0.00000000000E+00  0.34996269501E-01  0.35000000000E-01  0.51099999109E-03 0. -1.
       11   -1    0    0    0    0 -0.00000000000E+00 -0.00000000000E+00 -0.34996269501E-01  0.35000000000E-01  0.51099999109E-03 0.  1.
       22    1    1    2    0    0  0.22295702018E-02  0.10736521774E-01 -0.32183587827E-01  0.34000400123E-01  0.00000000000E+00 0.  1.
       22    1    1    2    0    0  0.38206111885E-03  0.87582220598E-04 -0.95930113894E-03  0.10362914740E-02  0.00000000000E+00 0.  1.
       22    1    1    2    0    0 -0.26116313206E-02 -0.10824103995E-01  0.33142888966E-01  0.34963308403E-01  0.00000000000E+00 0. -1.
</event>
<event>
 5   0  0.4146200E+04  0.9118800E+02  0.7546771E-02  0.1180000E+00
      -11   -1    0    0    0    0  0.00000000000E+00  0.00000000000E+00  0.34996269501E-01  0.35000000000E-01  0.51099999109E-03 0. -1.
       11   -1    0    0    0    0 -0.00000000000E+00 -0.00000000000E+00 -0.34996269501E-01  0.35000000000E-01  0.51099999109E-03 0.  1.
       22    1    1    2    0    0 -0.93694011400E-02  0.26786941843E-02 -0.25063951333E-01  0.26891685270E-01  0.00000000000E+00 0.  1.
       22    1    1    2    0    0  0.52280519814E-03 -0.83807556811E-03 -0.83938610179E-02  0.84517808017E-02  0.00000000000E+00 0.  1.
       22    1    1    2    0    0  0.88465959418E-02 -0.18406186162E-02  0.33457812350E-01  0.34656533928E-01  0.00000000000E+00 0. -1.
</event>
<event>
 5   0  0.4146200E+04  0.9118800E+02  0.7546771E-02  0.1180000E+00
      -11   -1    0    0    0    0  0.00000000000E+00  0.00000000000E+00  0.34996269501E-01  0.35000000000E-01  0.51099999109E-03 0.  1.
       11   -1    0    0    0    0 -0.00000000000E+00 -0.00000000000E+00 -0.34996269501E-01  0.35000000000E-01  0.51099999109E-03 0. -1.
       22    1    1    2    0    0 -0.17930348414E-04 -0.10697430920E-03  0.10170448179E-02  0.10228123786E-02  0.00000000000E+00 0. -1.
       22    1    1    2    0    0  0.20715564957E-02  0.19879216790E-01  0.27634592851E-01  0.34104916486E-01  0.00000000000E+00 0.  1.
       22    1    1    2    0    0 -0.20536261473E-02 -0.19772242480E-01 -0.28651637669E-01  0.34872271136E-01  0.00000000000E+00 0. -1.
</event>
<event>
 5   0  0.4146200E+04  0.9118800E+02  0.7546771E-02  0.1180000E+00
      -11   -1    0    0    0    0  0.00000000000E+00  0.00000000000E+00  0.34996269501E-01  0.35000000000E-01  0.51099999109E-03 0. -1.
       11   -1    0    0    0    0 -0.00000000000E+00 -0.00000000000E+00 -0.34996269501E-01  0.35000000000E-01  0.51099999109E-03 0.  1.
       22    1    1    2    0    0  0.98669234217E-03 -0.90225496151E-02  0.33716032619E-01  0.34916340285E-01  0.00000000000E+00 0. -1.
       22    1    1    2    0    0 -0.13633962252E-02  0.89551461295E-02 -0.33334244517E-01  0.34543094085E-01  0.00000000000E+00 0.  1.
       22    1    1    2    0    0  0.37670388306E-03  0.67403485602E-04 -0.38178810234E-03  0.54056563012E-03  0.00000000000E+00 0. -1.
</event>
<event>
 5   0  0.4146200E+04  0.9118800E+02  0.7546771E-02  0.1180000E+00
      -11   -1    0    0    0    0  0.00000000000E+00  0.00000000000E+00  0.34996269501E-01  0.35000000000E-01  0.51099999109E-03 0. -1.
       11   -1    0    0    0    0 -0.00000000000E+00 -0.00000000000E+00 -0.34996269501E-01  0.35000000000E-01  0.51099999109E-03 0.  1.
       22    1    1    2    0    0 -0.28596256428E-02 -0.37016753523E-02  0.98495603355E-02  0.10903838683E-01  0.00000000000E+00 0. -1.
       22    1    1    2    0    0  0.11387428822E-01  0.14836898326E-01  0.19221065735E-01  0.26818957010E-01  0.00000000000E+00 0. -1.
       22    1    1    2    0    0 -0.85278031790E-02 -0.11135222974E-01 -0.29070626070E-01  0.32277204307E-01  0.00000000000E+00 0.  1.
</event>
<event>
 5   0  0.4146200E+04  0.9118800E+02  0.7546771E-02  0.1180000E+00
      -11   -1    0    0    0    0  0.00000000000E+00  0.00000000000E+00  0.34996269501E-01  0.35000000000E-01  0.51099999109E-03 0. -1.
       11   -1    0    0    0    0 -0.00000000000E+00 -0.00000000000E+00 -0.34996269501E-01  0.35000000000E-01  0.51099999109E-03 0.  1.
       22    1    1    2    0    0  0.15127535861E-02  0.19693388726E-02  0.34883067941E-01  0.34971347529E-01  0.00000000000E+00 0. -1.
       22    1    1    2    0    0 -0.16956997400E-02 -0.19294481745E-02 -0.34559366263E-01  0.34654696138E-01  0.00000000000E+00 0.  1.
       22    1    1    2    0    0  0.18294615387E-03 -0.39890698076E-04 -0.32370167773E-03  0.37395633324E-03  0.00000000000E+00 0. -1.
</event>
<event>
 5   0  0.4146200E+04  0.9118800E+02  0.7546771E-02  0.1180000E+00
      -11   -1    0    0    0    0  0.00000000000E+00  0.00000000000E+00  0.34996269501E-01  0.35000000000E-01  0.51099999109E-03 0.  1.
       11   -1    0    0    0    0 -0.00000000000E+00 -0.00000000000E+00 -0.34996269501E-01  0.35000000000E-01  0.51099999109E-03 0. -1.
       22    1    1    2    0    0 -0.96934611194E-04 -0.68773558192E-03 -0.72112761733E-03  0.10012000749E-02  0.00000000000E+00 0.  1.
       22    1    1    2    0    0 -0.00000000000E+00 -0.00000000000E+00  0.34858026836E-01  0.34854836113E-01  0.00000000000E+00 0.  1.
       22    1    1    2    0    0  0.96934611194E-04  0.68773558192E-03 -0.34136899219E-01  0.34143963812E-01  0.00000000000E+00 0. -1.
</event>
<event>
 5   0  0.4146200E+04  0.9118800E+02  0.7546771E-02  0.1180000E+00
      -11   -1    0    0    0    0  0.00000000000E+00  0.00000000000E+00  0.34996269501E-01  0.35000000000E-01  0.51099999109E-03 0.  1.
       11   -1    0    0    0    0 -0.00000000000E+00 -0.00000000000E+00 -0.34996269501E-01  0.35000000000E-01  0.51099999109E-03 0. -1.
       22    1    1    2    0    0 -0.11154710780E-01 -0.15625203523E-01 -0.29110476529E-01  0.34871111273E-01  0.00000000000E+00 0. -1.
       22    1    1    2    0    0  0.23237546410E-03  0.37856070344E-03 -0.61094950269E-04  0.44837390140E-03  0.00000000000E+00 0.  1.
       22    1    1    2    0    0  0.10922335316E-01  0.15246642819E-01  0.29171571479E-01  0.34680514825E-01  0.00000000000E+00 0.  1.
</event>
<event>
 5   0  0.4146200E+04  0.9118800E+02  0.7546771E-02  0.1180000E+00
      -11   -1    0    0    0    0  0.00000000000E+00  0.00000000000E+00  0.34996269501E-01  0.35000000000E-01  0.51099999109E-03 0. -1.
       11   -1    0    0    0    0 -0.00000000000E+00 -0.00000000000E+00 -0.34996269501E-01  0.35000000000E-01  0.51099999109E-03 0.  1.
       22    1    1    2    0    0  0.66762796706E-03 -0.18454321829E-03 -0.11417834633E-02  0.13354597631E-02  0.00000000000E+00 0.  1.
       22    1    1    2    0    0  0.31299218241E-02  0.14908138342E-02 -0.33556258885E-01  0.33734869896E-01  0.00000000000E+00 0.  1.
       22    1    1    2    0    0 -0.37975497911E-02 -0.13062706160E-02  0.34698042348E-01  0.34929670341E-01  0.00000000000E+00 0. -1.
</event>
<event>
 5   0  0.4146200E+04  0.9118800E+02  0.7546771E-02  0.1180000E+00
      -11   -1    0    0    0    0  0.00000000000E+00  0.00000000000E+00  0.34996269501E-01  0.35000000000E-01  0.51099999109E-03 0. -1.
       11   -1    0    0    0    0 -0.00000000000E+00 -0.00000000000E+00 -0.34996269501E-01  0.35000000000E-01  0.51099999109E-03 0.  1.
       22    1    1    2    0    0 -0.12080630393E-01  0.42558290675E-02  0.32429944540E-01  0.34867678653E-01  0.00000000000E+00 0. -1.
       22    1    1    2    0    0  0.12096794959E-01 -0.47500422508E-02 -0.31570774344E-01  0.34141018473E-01  0.00000000000E+00 0.  1.
       22    1    1    2    0    0 -0.16164565361E-04  0.49421318332E-03 -0.85917019558E-03  0.99130287436E-03  0.00000000000E+00 0. -1.
</event>
<event>
 5   0  0.4146200E+04  0.9118800E+02  0.7546771E-02  0.1180000E+00
      -11   -1    0    0    0    0  0.00000000000E+00  0.00000000000E+00  0.34996269501E-01  0.35000000000E-01  0.51099999109E-03 0.  1.
       11   -1    0    0    0    0 -0.00000000000E+00 -0.00000000000E+00 -0.34996269501E-01  0.35000000000E-01  0.51099999109E-03 0. -1.
       22    1    1    2    0    0  0.21794920028E-02  0.18217337545E-02  0.96631289997E-03  0.30004432811E-02  0.00000000000E+00 0. -1.
       22    1    1    2    0    0 -0.14928657035E-01  0.44788027128E-02  0.29507460527E-01  0.33370866056E-01  0.00000000000E+00 0.  1.
       22    1    1    2    0    0  0.12749165033E-01 -0.63005364673E-02 -0.30473773427E-01  0.33628690662E-01  0.00000000000E+00 0. -1.
</event>
<event>
 5   0  0.4146200E+04  0.9118800E+02  0.7546771E-02  0.1180000E+00
      -11   -1    0    0    0    0  0.00000000000E+00  0.00000000000E+00  0.34996269501E-01  0.35000000000E-01  0.51099999109E-03 0.  1.
       11   -1    0    0    0    0 -0.00000000000E+00 -0.00000000000E+00 -0.34996269501E-01  0.35000000000E-01  0.51099999109E-03 0. -1.
       22    1    1    2    0    0 -0.61849592878E-02 -0.15453808484E-01  0.29504011354E-01  0.33875663891E-01  0.00000000000E+00 0.  1.
       22    1    1    2    0    0  0.59710392432E-02  0.15570748978E-01 -0.30682126338E-01  0.34921260143E-01  0.00000000000E+00 0. -1.
       22    1    1    2    0    0  0.21392004461E-03 -0.11694049348E-03  0.11781149842E-02  0.12030759662E-02  0.00000000000E+00 0. -1.
</event>
<event>
 5   0  0.4146200E+04  0.9118800E+02  0.7546771E-02  0.1180000E+00
      -11   -1    0    0    0    0  0.00000000000E+00  0.00000000000E+00  0.34996269501E-01  0.35000000000E-01  0.51099999109E-03 0.  1.
       11   -1    0    0    0    0 -0.00000000000E+00 -0.00000000000E+00 -0.34996269501E-01  0.35000000000E-01  0.51099999109E-03 0. -1.
       22    1    1    2    0    0  0.48389185305E-04 -0.26724032434E-03  0.72896239868E-03  0.77791071653E-03  0.00000000000E+00 0. -1.
       22    1    1    2    0    0  0.15892470386E-01  0.11276997994E-01 -0.29006570251E-01  0.34944562044E-01  0.00000000000E+00 0.  1.
       22    1    1    2    0    0 -0.15940859572E-01 -0.11009757670E-01  0.28277607852E-01  0.34277527240E-01  0.00000000000E+00 0. -1.
</event>
<event>
 5   0  0.4146200E+04  0.9118800E+02  0.7546771E-02  0.1180000E+00
      -11   -1    0    0    0    0  0.00000000000E+00  0.00000000000E+00  0.34996269501E-01  0.35000000000E-01  0.51099999109E-03 0. -1.
       11   -1    0    0    0    0 -0.00000000000E+00 -0.00000000000E+00 -0.34996269501E-01  0.35000000000E-01  0.51099999109E-03 0.  1.
       22    1    1    2    0    0 -0.40346586314E-02 -0.64675338138E-02  0.33464006443E-01  0.34321235280E-01  0.00000000000E+00 0. -1.
       22    1    1    2    0    0  0.48873040456E-02  0.10145644971E-02 -0.25532999329E-01  0.26016324427E-01  0.00000000000E+00 0.  1.
       22    1    1    2    0    0 -0.85264541424E-03  0.54529693167E-02 -0.79310071147E-02  0.96624402934E-02  0.00000000000E+00 0.  1.
</event>
<event>
 5   0  0.4146200E+04  0.9118800E+02  0.7546771E-02  0.1180000E+00
      -11   -1    0    0    0    0  0.00000000000E+00  0.00000000000E+00  0.34996269501E-01  0.35000000000E-01  0.51099999109E-03 0. -1.
       11   -1    0    0    0    0 -0.00000000000E+00 -0.00000000000E+00 -0.34996269501E-01  0.35000000000E-01  0.51099999109E-03 0.  1.
       22    1    1    2    0    0  0.19377739755E-01  0.95072083492E-02  0.18845447353E-01  0.28653702982E-01  0.00000000000E+00 0. -1.
       22    1    1    2    0    0 -0.11422455993E-01 -0.14416566049E-01  0.19991065490E-02  0.18501521682E-01  0.00000000000E+00 0.  1.
       22    1    1    2    0    0 -0.79552837627E-02  0.49093577002E-02 -0.20844553902E-01  0.22844775336E-01  0.00000000000E+00 0.  1.
</event>
<event>
 5   0  0.4146200E+04  0.9118800E+02  0.7546771E-02  0.1180000E+00
      -11   -1    0    0    0    0  0.00000000000E+00  0.00000000000E+00  0.34996269501E-01  0.35000000000E-01  0.51099999109E-03 0.  1.
       11   -1    0    0    0    0 -0.00000000000E+00 -0.00000000000E+00 -0.34996269501E-01  0.35000000000E-01  0.51099999109E-03 0. -1.
       22    1    1    2    0    0  0.68686488541E-02 -0.10928896310E-01 -0.32467128079E-01  0.34938997086E-01  0.00000000000E+00 0. -1.
       22    1    1    2    0    0 -0.54285407866E-02  0.10199665628E-01  0.27208222791E-01  0.29559932703E-01  0.00000000000E+00 0.  1.
       22    1    1    2    0    0 -0.14401080675E-02  0.72923068220E-03  0.52589052883E-02  0.55010702109E-02  0.00000000000E+00 0.  1.
</event>
<event>
 5   0  0.4146200E+04  0.9118800E+02  0.7546771E-02  0.1180000E+00
      -11   -1    0    0    0    0  0.00000000000E+00  0.00000000000E+00  0.34996269501E-01  0.35000000000E-01  0.51099999109E-03 0.  1.
       11   -1    0    0    0    0 -0.00000000000E+00 -0.00000000000E+00 -0.34996269501E-01  0.35000000000E-01  0.51099999109E-03 0. -1.
       22    1    1    2    0    0  0.12726874437E-01 -0.16490271202E-02  0.29582863024E-01  0.32246525519E-01  0.00000000000E+00 0.  1.
       22    1    1    2    0    0  0.13224988907E-03  0.51099609993E-05  0.28357939410E-02  0.28388806634E-02  0.00000000000E+00 0.  1.
       22    1    1    2    0    0 -0.12859124326E-01  0.16439171592E-02 -0.32418656965E-01  0.34914593818E-01  0.00000000000E+00 0. -1.
</event>
<event>
 5   0  0.4146200E+04  0.9118800E+02  0.7546771E-02  0.1180000E+00
      -11   -1    0    0    0    0  0.00000000000E+00  0.00000000000E+00  0.34996269501E-01  0.35000000000E-01  0.51099999109E-03 0.  1.
       11   -1    0    0    0    0 -0.00000000000E+00 -0.00000000000E+00 -0.34996269501E-01  0.35000000000E-01  0.51099999109E-03 0. -1.
       22    1    1    2    0    0 -0.77557858890E-03  0.76764111452E-03  0.22182619649E-01  0.22209444152E-01  0.00000000000E+00 0.  1.
       22    1    1    2    0    0 -0.10197759171E-01 -0.82965147092E-02  0.75893139452E-02  0.15179727751E-01  0.00000000000E+00 0.  1.
       22    1    1    2    0    0  0.10973337760E-01  0.75288735947E-02 -0.29771933595E-01  0.32610828097E-01  0.00000000000E+00 0. -1.
</event>
<event>
 5   0  0.4146200E+04  0.9118800E+02  0.7546771E-02  0.1180000E+00
      -11   -1    0    0    0    0  0.00000000000E+00  0.00000000000E+00  0.34996269501E-01  0.35000000000E-01  0.51099999109E-03 0.  1.
       11   -1    0    0    0    0 -0.00000000000E+00 -0.00000000000E+00 -0.34996269501E-01  0.35000000000E-01  0.51099999109E-03 0. -1.
       22    1    1    2    0    0 -0.13738974791E-02  0.63254000695E-02 -0.12685523202E-02  0.65960219308E-02  0.00000000000E+00 0.  1.
       22    1    1    2    0    0 -0.11098215754E-02 -0.25526183270E-01  0.22944523254E-01  0.34340484615E-01  0.00000000000E+00 0.  1.
       22    1    1    2    0    0  0.24837190544E-02  0.19200783200E-01 -0.21675970934E-01  0.29063493454E-01  0.00000000000E+00 0. -1.
</event>
<event>
 5   0  0.4146200E+04  0.9118800E+02  0.7546771E-02  0.1180000E+00
      -11   -1    0    0    0    0  0.00000000000E+00  0.00000000000E+00  0.34996269501E-01  0.35000000000E-01  0.51099999109E-03 0.  1.
       11   -1    0    0    0    0 -0.00000000000E+00 -0.00000000000E+00 -0.34996269501E-01  0.35000000000E-01  0.51099999109E-03 0. -1.
       22    1    1    2    0    0  0.64897965463E-05 -0.18512837762E-04  0.56222469112E-03  0.56256683686E-03  0.00000000000E+00 0.  1.
       22    1    1    2    0    0 -0.57917569544E-02 -0.13786647774E-01 -0.31610636494E-01  0.34969249992E-01  0.00000000000E+00 0. -1.
       22    1    1    2    0    0  0.57852671579E-02  0.13805160612E-01  0.31048411803E-01  0.34468183171E-01  0.00000000000E+00 0.  1.
</event>
<event>
 5   0  0.4146200E+04  0.9118800E+02  0.7546771E-02  0.1180000E+00
      -11   -1    0    0    0    0  0.00000000000E+00  0.00000000000E+00  0.34996269501E-01  0.35000000000E-01  0.51099999109E-03 0.  1.
       11   -1    0    0    0    0 -0.00000000000E+00 -0.00000000000E+00 -0.34996269501E-01  0.35000000000E-01  0.51099999109E-03 0. -1.
       22    1    1    2    0    0  0.21014145217E-04 -0.13254163341E-03 -0.50089999710E-02  0.50107973007E-02  0.00000000000E+00 0.  1.
       22    1    1    2    0    0  0.11105812704E-01 -0.13058077450E-01 -0.25035221822E-01  0.30341634665E-01  0.00000000000E+00 0. -1.
       22    1    1    2    0    0 -0.11126826849E-01  0.13190619084E-01  0.30044221793E-01  0.34647568034E-01  0.00000000000E+00 0.  1.
</event>
<event>
 5   0  0.4146200E+04  0.9118800E+02  0.7546771E-02  0.1180000E+00
      -11   -1    0    0    0    0  0.00000000000E+00  0.00000000000E+00  0.34996269501E-01  0.35000000000E-01  0.51099999109E-03 0.  1.
       11   -1    0    0    0    0 -0.00000000000E+00 -0.00000000000E+00 -0.34996269501E-01  0.35000000000E-01  0.51099999109E-03 0. -1.
       22    1    1    2    0    0 -0.14402017202E-03  0.29370048899E-03 -0.71865664637E-03  0.78960063485E-03  0.00000000000E+00 0.  1.
       22    1    1    2    0    0  0.91880625220E-02 -0.27630721375E-01 -0.18585384093E-01  0.34544084277E-01  0.00000000000E+00 0. -1.
       22    1    1    2    0    0 -0.90440423500E-02  0.27337020886E-01  0.19304040739E-01  0.34666315089E-01  0.00000000000E+00 0.  1.
</event>
<event>
 5   0  0.4146200E+04  0.9118800E+02  0.7546771E-02  0.1180000E+00
      -11   -1    0    0    0    0  0.00000000000E+00  0.00000000000E+00  0.34996269501E-01  0.35000000000E-01  0.51099999109E-03 0.  1.
       11   -1    0    0    0    0 -0.00000000000E+00 -0.00000000000E+00 -0.34996269501E-01  0.35000000000E-01  0.51099999109E-03 0. -1.
       22    1    1    2    0    0 -0.36101730129E-04 -0.18359981696E-03  0.51781787893E-02  0.51815584337E-02  0.00000000000E+00 0.  1.
       22    1    1    2    0    0  0.22434751329E-01  0.77910583705E-02  0.19429837660E-01  0.30684478962E-01  0.00000000000E+00 0.  1.
       22    1    1    2    0    0 -0.22398649598E-01 -0.76074585535E-02 -0.24608016449E-01  0.34133962604E-01  0.00000000000E+00 0. -1.
</event>
<event>
 5   0  0.4146200E+04  0.9118800E+02  0.7546771E-02  0.1180000E+00
      -11   -1    0    0    0    0  0.00000000000E+00  0.00000000000E+00  0.34996269501E-01  0.35000000000E-01  0.51099999109E-03 0. -1.
       11   -1    0    0    0    0 -0.00000000000E+00 -0.00000000000E+00 -0.34996269501E-01  0.35000000000E-01  0.51099999109E-03 0.  1.
       22    1    1    2    0    0  0.15729346478E-02 -0.21578222606E-02  0.92424831424E-02  0.96204893302E-02  0.00000000000E+00 0. -1.
       22    1    1    2    0    0 -0.26170868567E-02  0.12538051669E-01 -0.32476374890E-01  0.34910840855E-01  0.00000000000E+00 0.  1.
       22    1    1    2    0    0  0.10441522089E-02 -0.10380229408E-01  0.23233891747E-01  0.25468669814E-01  0.00000000000E+00 0. -1.
</event>
<event>
 5   0  0.4146200E+04  0.9118800E+02  0.7546771E-02  0.1180000E+00
      -11   -1    0    0    0    0  0.00000000000E+00  0.00000000000E+00  0.34996269501E-01  0.35000000000E-01  0.51099999109E-03 0.  1.
       11   -1    0    0    0    0 -0.00000000000E+00 -0.00000000000E+00 -0.34996269501E-01  0.35000000000E-01  0.51099999109E-03 0. -1.
       22    1    1    2    0    0 -0.11004157144E-01  0.48166410325E-02  0.32799394341E-01  0.34929812115E-01  0.00000000000E+00 0.  1.
       22    1    1    2    0    0  0.10791542565E-01 -0.48852267864E-02 -0.29882875297E-01  0.32145125101E-01  0.00000000000E+00 0. -1.
       22    1    1    2    0    0  0.21261457867E-03  0.68585753936E-04 -0.29165190431E-02  0.29250627846E-02  0.00000000000E+00 0.  1.
</event>
<event>
 5   0  0.4146200E+04  0.9118800E+02  0.7546771E-02  0.1180000E+00
      -11   -1    0    0    0    0  0.00000000000E+00  0.00000000000E+00  0.34996269501E-01  0.35000000000E-01  0.51099999109E-03 0.  1.
       11   -1    0    0    0    0 -0.00000000000E+00 -0.00000000000E+00 -0.34996269501E-01  0.35000000000E-01  0.51099999109E-03 0. -1.
       22    1    1    2    0    0 -0.23669791683E-01 -0.11418969738E-02  0.25258511103E-01  0.34634597589E-01  0.00000000000E+00 0.  1.
       22    1    1    2    0    0 -0.10812432769E-03 -0.26378529467E-03  0.30986611918E-03  0.42105886018E-03  0.00000000000E+00 0. -1.
       22    1    1    2    0    0  0.23777916010E-01  0.14056822685E-02 -0.25568377222E-01  0.34944343551E-01  0.00000000000E+00 0. -1.
</event>
<event>
 5   0  0.4146200E+04  0.9118800E+02  0.7546771E-02  0.1180000E+00
      -11   -1    0    0    0    0  0.00000000000E+00  0.00000000000E+00  0.34996269501E-01  0.35000000000E-01  0.51099999109E-03 0. -1.
       11   -1    0    0    0    0 -0.00000000000E+00 -0.00000000000E+00 -0.34996269501E-01  0.35000000000E-01  0.51099999109E-03 0.  1.
       22    1    1    2    0    0 -0.52885061009E-02  0.13249944927E-01  0.31375780564E-01  0.34466925354E-01  0.00000000000E+00 0. -1.
       22    1    1    2    0    0 -0.57121012898E-05  0.63372528280E-05  0.55596112736E-03  0.55602658570E-03  0.00000000000E+00 0.  1.
       22    1    1    2    0    0  0.52942182021E-02 -0.13256282179E-01 -0.31931741691E-01  0.34977048061E-01  0.00000000000E+00 0.  1.
</event>
<event>
 5   0  0.4146200E+04  0.9118800E+02  0.7546771E-02  0.1180000E+00
      -11   -1    0    0    0    0  0.00000000000E+00  0.00000000000E+00  0.34996269501E-01  0.35000000000E-01  0.51099999109E-03 0. -1.
       11   -1    0    0    0    0 -0.00000000000E+00 -0.00000000000E+00 -0.34996269501E-01  0.35000000000E-01  0.51099999109E-03 0.  1.
       22    1    1    2    0    0 -0.12080093469E-01  0.15545401011E-01  0.23041786093E-01  0.30306963840E-01  0.00000000000E+00 0. -1.
       22    1    1    2    0    0  0.26340774162E-02 -0.13285544502E-02  0.56122335844E-02  0.63403932502E-02  0.00000000000E+00 0. -1.
       22    1    1    2    0    0  0.94460160529E-02 -0.14216846561E-01 -0.28654019678E-01  0.33352642910E-01  0.00000000000E+00 0.  1.
</event>
<event>
 5   0  0.4146200E+04  0.9118800E+02  0.7546771E-02  0.1180000E+00
      -11   -1    0    0    0    0  0.00000000000E+00  0.00000000000E+00  0.34996269501E-01  0.35000000000E-01  0.51099999109E-03 0.  1.
       11   -1    0    0    0    0 -0.00000000000E+00 -0.00000000000E+00 -0.34996269501E-01  0.35000000000E-01  0.51099999109E-03 0. -1.
       22    1    1    2    0    0  0.22915918248E-02  0.67385038793E-03  0.58921957148E-02  0.63579428889E-02  0.00000000000E+00 0.  1.
       22    1    1    2    0    0 -0.45784376274E-02  0.13725867216E-01  0.25336698915E-01  0.29177214292E-01  0.00000000000E+00 0.  1.
       22    1    1    2    0    0  0.22868458026E-02 -0.14399717604E-01 -0.31228894629E-01  0.34464842819E-01  0.00000000000E+00 0. -1.
</event>
<event>
 5   0  0.4146200E+04  0.9118800E+02  0.7546771E-02  0.1180000E+00
      -11   -1    0    0    0    0  0.00000000000E+00  0.00000000000E+00  0.34996269501E-01  0.35000000000E-01  0.51099999109E-03 0. -1.
       11   -1    0    0    0    0 -0.00000000000E+00 -0.00000000000E+00 -0.34996269501E-01  0.35000000000E-01  0.51099999109E-03 0.  1.
       22    1    1    2    0    0 -0.40021038823E-02 -0.11997672932E-01  0.13338970381E-01  0.18381760582E-01  0.00000000000E+00 0.  1.
       22    1    1    2    0    0 -0.69851121832E-02  0.68817302304E-03  0.16465908306E-01  0.17899483530E-01  0.00000000000E+00 0. -1.
       22    1    1    2    0    0  0.10987216066E-01  0.11309499909E-01 -0.29804878687E-01  0.33718755888E-01  0.00000000000E+00 0.  1.
</event>
<event>
 5   0  0.4146200E+04  0.9118800E+02  0.7546771E-02  0.1180000E+00
      -11   -1    0    0    0    0  0.00000000000E+00  0.00000000000E+00  0.34996269501E-01  0.35000000000E-01  0.51099999109E-03 0. -1.
       11   -1    0    0    0    0 -0.00000000000E+00 -0.00000000000E+00 -0.34996269501E-01  0.35000000000E-01  0.51099999109E-03 0.  1.
       22    1    1    2    0    0  0.13400038243E-02  0.38707894477E-02 -0.54636086333E-02  0.68285899346E-02  0.00000000000E+00 0. -1.
       22    1    1    2    0    0  0.41787257166E-02 -0.24715194437E-02 -0.28410424558E-01  0.28822254953E-01  0.00000000000E+00 0.  1.
       22    1    1    2    0    0 -0.55187295409E-02 -0.13992700040E-02  0.33874033192E-01  0.34349155113E-01  0.00000000000E+00 0. -1.
</event>
<event>
 5   0  0.4146200E+04  0.9118800E+02  0.7546771E-02  0.1180000E+00
      -11   -1    0    0    0    0  0.00000000000E+00  0.00000000000E+00  0.34996269501E-01  0.35000000000E-01  0.51099999109E-03 0.  1.
       11   -1    0    0    0    0 -0.00000000000E+00 -0.00000000000E+00 -0.34996269501E-01  0.35000000000E-01  0.51099999109E-03 0. -1.
       22    1    1    2    0    0  0.11603364069E-01  0.76992303233E-02 -0.29781086465E-01  0.32875968675E-01  0.00000000000E+00 0. -1.
       22    1    1    2    0    0 -0.14035440768E-01 -0.77606114060E-02  0.30607308780E-01  0.34554710788E-01  0.00000000000E+00 0.  1.
       22    1    1    2    0    0  0.24320766989E-02  0.61381082655E-04 -0.82622231456E-03  0.25693205365E-02  0.00000000000E+00 0.  1.
</event>
<event>
 5   0  0.4146200E+04  0.9118800E+02  0.7546771E-02  0.1180000E+00
      -11   -1    0    0    0    0  0.00000000000E+00  0.00000000000E+00  0.34996269501E-01  0.35000000000E-01  0.51099999109E-03 0.  1.
       11   -1    0    0    0    0 -0.00000000000E+00 -0.00000000000E+00 -0.34996269501E-01  0.35000000000E-01  0.51099999109E-03 0. -1.
       22    1    1    2    0    0  0.14161890800E-04  0.18230573172E-03 -0.63296234567E-02  0.63322641324E-02  0.00000000000E+00 0.  1.
       22    1    1    2    0    0 -0.26190786504E-02  0.98576068988E-02  0.33270663198E-01  0.34798980105E-01  0.00000000000E+00 0.  1.
       22    1    1    2    0    0  0.26049167596E-02 -0.10039912631E-01 -0.26941039741E-01  0.28868755762E-01  0.00000000000E+00 0. -1.
</event>
<event>
 5   0  0.4146200E+04  0.9118800E+02  0.7546771E-02  0.1180000E+00
      -11   -1    0    0    0    0  0.00000000000E+00  0.00000000000E+00  0.34996269501E-01  0.35000000000E-01  0.51099999109E-03 0. -1.
       11   -1    0    0    0    0 -0.00000000000E+00 -0.00000000000E+00 -0.34996269501E-01  0.35000000000E-01  0.51099999109E-03 0.  1.
       22    1    1    2    0    0 -0.10545162455E-02 -0.11462118336E-01 -0.32436271930E-01  0.34418075163E-01  0.00000000000E+00 0.  1.
       22    1    1    2    0    0  0.93153171331E-03  0.11306305597E-01  0.33046860106E-01  0.34939880659E-01  0.00000000000E+00 0. -1.
       22    1    1    2    0    0  0.12298453216E-03  0.15581273840E-03 -0.61058817669E-03  0.64204417769E-03  0.00000000000E+00 0.  1.
</event>
<event>
 5   0  0.4146200E+04  0.9118800E+02  0.7546771E-02  0.1180000E+00
      -11   -1    0    0    0    0  0.00000000000E+00  0.00000000000E+00  0.34996269501E-01  0.35000000000E-01  0.51099999109E-03 0.  1.
       11   -1    0    0    0    0 -0.00000000000E+00 -0.00000000000E+00 -0.34996269501E-01  0.35000000000E-01  0.51099999109E-03 0.  1.
       22    1    1    2    0    0  0.25933349263E-02 -0.47602950308E-02  0.34336055735E-01  0.34761336543E-01  0.00000000000E+00 0.  1.
       22    1    1    2    0    0 -0.39334711624E-03  0.47867381008E-03 -0.21820404749E-01  0.21829198656E-01  0.00000000000E+00 0.  1.
       22    1    1    2    0    0 -0.21999878101E-02  0.42816212207E-02 -0.12515650986E-01  0.13409464801E-01  0.00000000000E+00 0. -1.
</event>
<event>
 5   0  0.4146200E+04  0.9118800E+02  0.7546771E-02  0.1180000E+00
      -11   -1    0    0    0    0  0.00000000000E+00  0.00000000000E+00  0.34996269501E-01  0.35000000000E-01  0.51099999109E-03 0.  1.
       11   -1    0    0    0    0 -0.00000000000E+00 -0.00000000000E+00 -0.34996269501E-01  0.35000000000E-01  0.51099999109E-03 0. -1.
       22    1    1    2    0    0 -0.10056196671E-03  0.58046259901E-02  0.12643722634E-01  0.13912854403E-01  0.00000000000E+00 0.  1.
       22    1    1    2    0    0 -0.12133918893E-01 -0.11419446243E-01 -0.29883176966E-01  0.34214616844E-01  0.00000000000E+00 0. -1.
       22    1    1    2    0    0  0.12234480860E-01  0.56148202525E-02  0.17239454333E-01  0.21872528753E-01  0.00000000000E+00 0.  1.
</event>
<event>
 5   0  0.4146200E+04  0.9118800E+02  0.7546771E-02  0.1180000E+00
      -11   -1    0    0    0    0  0.00000000000E+00  0.00000000000E+00  0.34996269501E-01  0.35000000000E-01  0.51099999109E-03 0. -1.
       11   -1    0    0    0    0 -0.00000000000E+00 -0.00000000000E+00 -0.34996269501E-01  0.35000000000E-01  0.51099999109E-03 0.  1.
       22    1    1    2    0    0 -0.38059270311E-02 -0.23069405827E-01 -0.24125276033E-01  0.33596302020E-01  0.00000000000E+00 0.  1.
       22    1    1    2    0    0 -0.96619279736E-03 -0.52907768224E-03  0.64313335362E-02  0.65249906337E-02  0.00000000000E+00 0.  1.
       22    1    1    2    0    0  0.47721198285E-02  0.23598483509E-01  0.17693942497E-01  0.29878707346E-01  0.00000000000E+00 0. -1.
</event>
<event>
 5   0  0.4146200E+04  0.9118800E+02  0.7546771E-02  0.1180000E+00
      -11   -1    0    0    0    0  0.00000000000E+00  0.00000000000E+00  0.34996269501E-01  0.35000000000E-01  0.51099999109E-03 0. -1.
       11   -1    0    0    0    0 -0.00000000000E+00 -0.00000000000E+00 -0.34996269501E-01  0.35000000000E-01  0.51099999109E-03 0.  1.
       22    1    1    2    0    0 -0.44587345105E-03 -0.10129100887E-02 -0.24403294754E-02  0.26795518152E-02  0.00000000000E+00 0.  1.
       22    1    1    2    0    0  0.34865410453E-02 -0.11291005763E-01 -0.30133541682E-01  0.32367778946E-01  0.00000000000E+00 0.  1.
       22    1    1    2    0    0 -0.30406675943E-02  0.12303915852E-01  0.32573871158E-01  0.34952669238E-01  0.00000000000E+00 0. -1.
</event>
<event>
 5   0  0.4146200E+04  0.9118800E+02  0.7546771E-02  0.1180000E+00
      -11   -1    0    0    0    0  0.00000000000E+00  0.00000000000E+00  0.34996269501E-01  0.35000000000E-01  0.51099999109E-03 0.  1.
       11   -1    0    0    0    0 -0.00000000000E+00 -0.00000000000E+00 -0.34996269501E-01  0.35000000000E-01  0.51099999109E-03 0. -1.
       22    1    1    2    0    0 -0.15310255536E-01 -0.13262111861E-02 -0.26696225750E-01  0.30803428868E-01  0.00000000000E+00 0. -1.
       22    1    1    2    0    0  0.15364264814E-01  0.20427834192E-02  0.31092700104E-01  0.34741755815E-01  0.00000000000E+00 0.  1.
       22    1    1    2    0    0 -0.54009277657E-04 -0.71657223311E-03 -0.43964743536E-02  0.44548153171E-02  0.00000000000E+00 0. -1.
</event>
<event>
 5   0  0.4146200E+04  0.9118800E+02  0.7546771E-02  0.1180000E+00
      -11   -1    0    0    0    0  0.00000000000E+00  0.00000000000E+00  0.34996269501E-01  0.35000000000E-01  0.51099999109E-03 0. -1.
       11   -1    0    0    0    0 -0.00000000000E+00 -0.00000000000E+00 -0.34996269501E-01  0.35000000000E-01  0.51099999109E-03 0.  1.
       22    1    1    2    0    0  0.89426869528E-04 -0.20553571041E-03  0.10849381615E-01  0.10851696804E-01  0.00000000000E+00 0. -1.
       22    1    1    2    0    0  0.13650877665E-01 -0.28211419832E-02 -0.31335463281E-01  0.34296013793E-01  0.00000000000E+00 0.  1.
       22    1    1    2    0    0 -0.13740304534E-01  0.30266776936E-02  0.20486081665E-01  0.24852289403E-01  0.00000000000E+00 0. -1.
</event>
<event>
 5   0  0.4146200E+04  0.9118800E+02  0.7546771E-02  0.1180000E+00
      -11   -1    0    0    0    0  0.00000000000E+00  0.00000000000E+00  0.34996269501E-01  0.35000000000E-01  0.51099999109E-03 0.  1.
       11   -1    0    0    0    0 -0.00000000000E+00 -0.00000000000E+00 -0.34996269501E-01  0.35000000000E-01  0.51099999109E-03 0. -1.
       22    1    1    2    0    0 -0.26539366372E-01  0.15243951539E-01  0.34776062847E-02  0.30802755907E-01  0.00000000000E+00 0.  1.
       22    1    1    2    0    0 -0.14212686329E-02  0.33934372985E-02 -0.42040916105E-02  0.55865738602E-02  0.00000000000E+00 0. -1.
       22    1    1    2    0    0  0.27960635005E-01 -0.18637388838E-01  0.72648532574E-03  0.33610670233E-01  0.00000000000E+00 0. -1.
</event>
<event>
 5   0  0.4146200E+04  0.9118800E+02  0.7546771E-02  0.1180000E+00
      -11   -1    0    0    0    0  0.00000000000E+00  0.00000000000E+00  0.34996269501E-01  0.35000000000E-01  0.51099999109E-03 0.  1.
       11   -1    0    0    0    0 -0.00000000000E+00 -0.00000000000E+00 -0.34996269501E-01  0.35000000000E-01  0.51099999109E-03 0. -1.
       22    1    1    2    0    0 -0.12016444941E-01 -0.15202048337E-01 -0.26677848195E-01  0.32972788887E-01  0.00000000000E+00 0. -1.
       22    1    1    2    0    0  0.10204259116E-01  0.18653565610E-01  0.19456343649E-01  0.28820682196E-01  0.00000000000E+00 0.  1.
       22    1    1    2    0    0  0.18121858256E-02 -0.34515172727E-02  0.72215045467E-02  0.82065289171E-02  0.00000000000E+00 0. -1.
</event>
<event>
 5   0  0.4146200E+04  0.9118800E+02  0.7546771E-02  0.1180000E+00
      -11   -1    0    0    0    0  0.00000000000E+00  0.00000000000E+00  0.34996269501E-01  0.35000000000E-01  0.51099999109E-03 0. -1.
       11   -1    0    0    0    0 -0.00000000000E+00 -0.00000000000E+00 -0.34996269501E-01  0.35000000000E-01  0.51099999109E-03 0.  1.
       22    1    1    2    0    0 -0.13499075279E-03 -0.39333615384E-02 -0.88910735956E-02  0.97232065276E-02  0.00000000000E+00 0.  1.
       22    1    1    2    0    0  0.15287252435E-02  0.36330169236E-02  0.34451698103E-01  0.34676437461E-01  0.00000000000E+00 0. -1.
       22    1    1    2    0    0 -0.13937344907E-02  0.30034461477E-03 -0.25560624507E-01  0.25600356011E-01  0.00000000000E+00 0.  1.
</event>
<event>
 5   0  0.4146200E+04  0.9118800E+02  0.7546771E-02  0.1180000E+00
      -11   -1    0    0    0    0  0.00000000000E+00  0.00000000000E+00  0.34996269501E-01  0.35000000000E-01  0.51099999109E-03 0.  1.
       11   -1    0    0    0    0 -0.00000000000E+00 -0.00000000000E+00 -0.34996269501E-01  0.35000000000E-01  0.51099999109E-03 0. -1.
       22    1    1    2    0    0  0.12266617962E-01 -0.71732007028E-02 -0.31848949860E-01  0.34875210849E-01  0.00000000000E+00 0. -1.
       22    1    1    2    0    0 -0.12244810066E-01  0.72188145368E-02  0.29205789231E-01  0.32481145015E-01  0.00000000000E+00 0.  1.
       22    1    1    2    0    0 -0.21807895914E-04 -0.45613833965E-04  0.26431606293E-02  0.26436441361E-02  0.00000000000E+00 0.  1.
</event>
<event>
 5   0  0.4146200E+04  0.9118800E+02  0.7546771E-02  0.1180000E+00
      -11   -1    0    0    0    0  0.00000000000E+00  0.00000000000E+00  0.34996269501E-01  0.35000000000E-01  0.51099999109E-03 0.  1.
       11   -1    0    0    0    0 -0.00000000000E+00 -0.00000000000E+00 -0.34996269501E-01  0.35000000000E-01  0.51099999109E-03 0. -1.
       22    1    1    2    0    0 -0.28356483623E-03 -0.26884288527E-03 -0.18337027956E-03  0.43163662117E-03  0.00000000000E+00 0.  1.
       22    1    1    2    0    0 -0.98854185207E-02 -0.10495685883E-01 -0.31473739822E-01  0.34619029736E-01  0.00000000000E+00 0. -1.
       22    1    1    2    0    0  0.10168983357E-01  0.10764528768E-01  0.31657110101E-01  0.34949333643E-01  0.00000000000E+00 0.  1.
</event>
<event>
 5   0  0.4146200E+04  0.9118800E+02  0.7546771E-02  0.1180000E+00
      -11   -1    0    0    0    0  0.00000000000E+00  0.00000000000E+00  0.34996269501E-01  0.35000000000E-01  0.51099999109E-03 0.  1.
       11   -1    0    0    0    0 -0.00000000000E+00 -0.00000000000E+00 -0.34996269501E-01  0.35000000000E-01  0.51099999109E-03 0. -1.
       22    1    1    2    0    0 -0.19804066824E-03 -0.63665370695E-03 -0.11659356880E-01  0.11678405324E-01  0.00000000000E+00 0. -1.
       22    1    1    2    0    0 -0.24110305329E-02  0.13202977908E-01  0.31756367859E-01  0.34476058265E-01  0.00000000000E+00 0.  1.
       22    1    1    2    0    0  0.26090712012E-02 -0.12566324201E-01 -0.20097010979E-01  0.23845536411E-01  0.00000000000E+00 0. -1.
</event>
<event>
 5   0  0.4146200E+04  0.9118800E+02  0.7546771E-02  0.1180000E+00
      -11   -1    0    0    0    0  0.00000000000E+00  0.00000000000E+00  0.34996269501E-01  0.35000000000E-01  0.51099999109E-03 0. -1.
       11   -1    0    0    0    0 -0.00000000000E+00 -0.00000000000E+00 -0.34996269501E-01  0.35000000000E-01  0.51099999109E-03 0.  1.
       22    1    1    2    0    0  0.10245990452E-02 -0.66374679269E-03 -0.24671655652E-01  0.24701841138E-01  0.00000000000E+00 0.  1.
       22    1    1    2    0    0  0.67718879249E-02 -0.35250145695E-02 -0.82306935746E-02  0.11226242047E-01  0.00000000000E+00 0.  1.
       22    1    1    2    0    0 -0.77964869701E-02  0.41887613622E-02  0.32902349226E-01  0.34071916815E-01  0.00000000000E+00 0. -1.
</event>
<event>
 5   0  0.4146200E+04  0.9118800E+02  0.7546771E-02  0.1180000E+00
      -11   -1    0    0    0    0  0.00000000000E+00  0.00000000000E+00  0.34996269501E-01  0.35000000000E-01  0.51099999109E-03 0. -1.
       11   -1    0    0    0    0 -0.00000000000E+00 -0.00000000000E+00 -0.34996269501E-01  0.35000000000E-01  0.51099999109E-03 0.  1.
       22    1    1    2    0    0  0.85399018088E-03  0.19051536619E-01  0.18952238534E-01  0.26886384886E-01  0.00000000000E+00 0. -1.
       22    1    1    2    0    0  0.41431853364E-02  0.77738679469E-02 -0.12122263094E-01  0.14984934772E-01  0.00000000000E+00 0. -1.
       22    1    1    2    0    0 -0.49971755172E-02 -0.26825404566E-01 -0.68299754397E-02  0.28128680342E-01  0.00000000000E+00 0.  1.
</event>
<event>
 5   0  0.4146200E+04  0.9118800E+02  0.7546771E-02  0.1180000E+00
      -11   -1    0    0    0    0  0.00000000000E+00  0.00000000000E+00  0.34996269501E-01  0.35000000000E-01  0.51099999109E-03 0.  1.
       11   -1    0    0    0    0 -0.00000000000E+00 -0.00000000000E+00 -0.34996269501E-01  0.35000000000E-01  0.51099999109E-03 0. -1.
       22    1    1    2    0    0 -0.84638416539E-02 -0.18373729186E-02 -0.86600147797E-02  0.12247792077E-01  0.00000000000E+00 0. -1.
       22    1    1    2    0    0  0.86540359294E-02  0.23012078430E-02  0.32599726066E-01  0.33807248261E-01  0.00000000000E+00 0.  1.
       22    1    1    2    0    0 -0.19019427552E-03 -0.46383492447E-03 -0.23939711287E-01  0.23944959661E-01  0.00000000000E+00 0. -1.
</event>
<event>
 5   0  0.4146200E+04  0.9118800E+02  0.7546771E-02  0.1180000E+00
      -11   -1    0    0    0    0  0.00000000000E+00  0.00000000000E+00  0.34996269501E-01  0.35000000000E-01  0.51099999109E-03 0. -1.
       11   -1    0    0    0    0 -0.00000000000E+00 -0.00000000000E+00 -0.34996269501E-01  0.35000000000E-01  0.51099999109E-03 0.  1.
       22    1    1    2    0    0  0.12900521193E-01  0.66408550452E-02 -0.31390362219E-01  0.34581486998E-01  0.00000000000E+00 0.  1.
       22    1    1    2    0    0 -0.18511622666E-03  0.11149617592E-03 -0.43635092038E-03  0.48693073463E-03  0.00000000000E+00 0. -1.
       22    1    1    2    0    0 -0.12715404966E-01 -0.67523512211E-02  0.31826713139E-01  0.34931582267E-01  0.00000000000E+00 0. -1.
</event>
<event>
 5   0  0.4146200E+04  0.9118800E+02  0.7546771E-02  0.1180000E+00
      -11   -1    0    0    0    0  0.00000000000E+00  0.00000000000E+00  0.34996269501E-01  0.35000000000E-01  0.51099999109E-03 0. -1.
       11   -1    0    0    0    0 -0.00000000000E+00 -0.00000000000E+00 -0.34996269501E-01  0.35000000000E-01  0.51099999109E-03 0.  1.
       22    1    1    2    0    0  0.83369534649E-02 -0.13960417992E-01  0.26977515874E-01  0.31498959131E-01  0.00000000000E+00 0. -1.
       22    1    1    2    0    0  0.21867523948E-03 -0.20096431004E-03  0.36650424672E-02  0.36770561324E-02  0.00000000000E+00 0. -1.
       22    1    1    2    0    0 -0.85556287044E-02  0.14161382302E-01 -0.30642558341E-01  0.34823984737E-01  0.00000000000E+00 0.  1.
</event>
<event>
 5   0  0.4146200E+04  0.9118800E+02  0.7546771E-02  0.1180000E+00
      -11   -1    0    0    0    0  0.00000000000E+00  0.00000000000E+00  0.34996269501E-01  0.35000000000E-01  0.51099999109E-03 0. -1.
       11   -1    0    0    0    0 -0.00000000000E+00 -0.00000000000E+00 -0.34996269501E-01  0.35000000000E-01  0.51099999109E-03 0.  1.
       22    1    1    2    0    0  0.64823972296E-04  0.25756553065E-03  0.16929961996E-02  0.17137030903E-02  0.00000000000E+00 0.  1.
       22    1    1    2    0    0 -0.14924235525E-01 -0.28915755348E-02 -0.31444444118E-01  0.34926309295E-01  0.00000000000E+00 0.  1.
       22    1    1    2    0    0  0.14859411553E-01  0.26340100041E-02  0.29751447918E-01  0.33359987615E-01  0.00000000000E+00 0. -1.
</event>
<event>
 5   0  0.4146200E+04  0.9118800E+02  0.7546771E-02  0.1180000E+00
      -11   -1    0    0    0    0  0.00000000000E+00  0.00000000000E+00  0.34996269501E-01  0.35000000000E-01  0.51099999109E-03 0.  1.
       11   -1    0    0    0    0 -0.00000000000E+00 -0.00000000000E+00 -0.34996269501E-01  0.35000000000E-01  0.51099999109E-03 0. -1.
       22    1    1    2    0    0 -0.87418937861E-03  0.43537724383E-03 -0.19069794117E-03  0.99505081221E-03  0.00000000000E+00 0.  1.
       22    1    1    2    0    0  0.19079593767E-02  0.22865683890E-01  0.25691654536E-01  0.34446203296E-01  0.00000000000E+00 0.  1.
       22    1    1    2    0    0 -0.10337699981E-02 -0.23301061134E-01 -0.25500956595E-01  0.34558745892E-01  0.00000000000E+00 0. -1.
</event>
<event>
 5   0  0.4146200E+04  0.9118800E+02  0.7546771E-02  0.1180000E+00
      -11   -1    0    0    0    0  0.00000000000E+00  0.00000000000E+00  0.34996269501E-01  0.35000000000E-01  0.51099999109E-03 0.  1.
       11   -1    0    0    0    0 -0.00000000000E+00 -0.00000000000E+00 -0.34996269501E-01  0.35000000000E-01  0.51099999109E-03 0. -1.
       22    1    1    2    0    0  0.14022104734E-04 -0.23062003943E-04  0.63835774638E-03  0.63892807718E-03  0.00000000000E+00 0.  1.
       22    1    1    2    0    0  0.15153633092E-01  0.87413807957E-02  0.29625071790E-01  0.34404784735E-01  0.00000000000E+00 0.  1.
       22    1    1    2    0    0 -0.15167655197E-01 -0.87183187918E-02 -0.30263429536E-01  0.34956287188E-01  0.00000000000E+00 0. -1.
</event>
<event>
 5   0  0.4146200E+04  0.9118800E+02  0.7546771E-02  0.1180000E+00
      -11   -1    0    0    0    0  0.00000000000E+00  0.00000000000E+00  0.34996269501E-01  0.35000000000E-01  0.51099999109E-03 0.  1.
       11   -1    0    0    0    0 -0.00000000000E+00 -0.00000000000E+00 -0.34996269501E-01  0.35000000000E-01  0.51099999109E-03 0. -1.
       22    1    1    2    0    0  0.28322010129E-03 -0.56230948878E-04 -0.37195879634E-03  0.47088097388E-03  0.00000000000E+00 0.  1.
       22    1    1    2    0    0 -0.35124312667E-03  0.21669854734E-01  0.27391442157E-01  0.34928456585E-01  0.00000000000E+00 0.  1.
       22    1    1    2    0    0  0.68023025376E-04 -0.21613623785E-01 -0.27019483361E-01  0.34600662441E-01  0.00000000000E+00 0. -1.
</event>
<event>
 5   0  0.4146200E+04  0.9118800E+02  0.7546771E-02  0.1180000E+00
      -11   -1    0    0    0    0  0.00000000000E+00  0.00000000000E+00  0.34996269501E-01  0.35000000000E-01  0.51099999109E-03 0.  1.
       11   -1    0    0    0    0 -0.00000000000E+00 -0.00000000000E+00 -0.34996269501E-01  0.35000000000E-01  0.51099999109E-03 0. -1.
       22    1    1    2    0    0  0.28036551220E-03 -0.41626961615E-03  0.35073102106E-04  0.50310569094E-03  0.00000000000E+00 0. -1.
       22    1    1    2    0    0 -0.12292972533E-01  0.77153310407E-02  0.31658149572E-01  0.34826454615E-01  0.00000000000E+00 0.  1.
       22    1    1    2    0    0  0.12012607021E-01 -0.72990614246E-02 -0.31693222674E-01  0.34670439694E-01  0.00000000000E+00 0. -1.
</event>
<event>
 5   0  0.4146200E+04  0.9118800E+02  0.7546771E-02  0.1180000E+00
      -11   -1    0    0    0    0  0.00000000000E+00  0.00000000000E+00  0.34996269501E-01  0.35000000000E-01  0.51099999109E-03 0.  1.
       11   -1    0    0    0    0 -0.00000000000E+00 -0.00000000000E+00 -0.34996269501E-01  0.35000000000E-01  0.51099999109E-03 0. -1.
       22    1    1    2    0    0 -0.21057761545E-02  0.10542203449E-02 -0.30188556454E-02  0.38287286606E-02  0.00000000000E+00 0. -1.
       22    1    1    2    0    0 -0.21615543535E-01 -0.12567547085E-01  0.22302219529E-01  0.33504685612E-01  0.00000000000E+00 0.  1.
       22    1    1    2    0    0  0.23721319689E-01  0.11513326740E-01 -0.19283363884E-01  0.32666585727E-01  0.00000000000E+00 0. -1.
</event>
<event>
 5   0  0.4146200E+04  0.9118800E+02  0.7546771E-02  0.1180000E+00
      -11   -1    0    0    0    0  0.00000000000E+00  0.00000000000E+00  0.34996269501E-01  0.35000000000E-01  0.51099999109E-03 0.  1.
       11   -1    0    0    0    0 -0.00000000000E+00 -0.00000000000E+00 -0.34996269501E-01  0.35000000000E-01  0.51099999109E-03 0. -1.
       22    1    1    2    0    0 -0.46951878830E-03 -0.17197755561E-01  0.30275409658E-01  0.34822172164E-01  0.00000000000E+00 0.  1.
       22    1    1    2    0    0 -0.15628353750E-05  0.26792337783E-03  0.18500622822E-03  0.32559588960E-03  0.00000000000E+00 0.  1.
       22    1    1    2    0    0  0.47108162367E-03  0.16929832184E-01 -0.30460415887E-01  0.34852231946E-01  0.00000000000E+00 0. -1.
</event>
<event>
 5   0  0.4146200E+04  0.9118800E+02  0.7546771E-02  0.1180000E+00
      -11   -1    0    0    0    0  0.00000000000E+00  0.00000000000E+00  0.34996269501E-01  0.35000000000E-01  0.51099999109E-03 0.  1.
       11   -1    0    0    0    0 -0.00000000000E+00 -0.00000000000E+00 -0.34996269501E-01  0.35000000000E-01  0.51099999109E-03 0. -1.
       22    1    1    2    0    0  0.10019337155E-01  0.96511964730E-02 -0.32038293785E-01  0.34928283368E-01  0.00000000000E+00 0. -1.
       22    1    1    2    0    0 -0.10019439253E-01 -0.96368980240E-02  0.30338883917E-01  0.33372246610E-01  0.00000000000E+00 0.  1.
       22    1    1    2    0    0  0.10209723750E-06 -0.14298449079E-04  0.16994098681E-02  0.16994700221E-02  0.00000000000E+00 0. -1.
</event>
<event>
 5   0  0.4146200E+04  0.9118800E+02  0.7546771E-02  0.1180000E+00
      -11   -1    0    0    0    0  0.00000000000E+00  0.00000000000E+00  0.34996269501E-01  0.35000000000E-01  0.51099999109E-03 0.  1.
       11   -1    0    0    0    0 -0.00000000000E+00 -0.00000000000E+00 -0.34996269501E-01  0.35000000000E-01  0.51099999109E-03 0. -1.
       22    1    1    2    0    0  0.20845503273E-02  0.12927639198E-01 -0.32220606101E-01  0.34779831265E-01  0.00000000000E+00 0. -1.
       22    1    1    2    0    0  0.75334699948E-03  0.40089817583E-04  0.74704393052E-03  0.10617031267E-02  0.00000000000E+00 0. -1.
       22    1    1    2    0    0 -0.28378973268E-02 -0.12967729015E-01  0.31473562170E-01  0.34158465609E-01  0.00000000000E+00 0.  1.
</event>
<event>
 5   0  0.4146200E+04  0.9118800E+02  0.7546771E-02  0.1180000E+00
      -11   -1    0    0    0    0  0.00000000000E+00  0.00000000000E+00  0.34996269501E-01  0.35000000000E-01  0.51099999109E-03 0.  1.
       11   -1    0    0    0    0 -0.00000000000E+00 -0.00000000000E+00 -0.34996269501E-01  0.35000000000E-01  0.51099999109E-03 0. -1.
       22    1    1    2    0    0 -0.79534945262E-02  0.10632268496E-01 -0.32340645290E-01  0.34960270970E-01  0.00000000000E+00 0. -1.
       22    1    1    2    0    0  0.80724911788E-02 -0.10080210094E-01  0.30746508949E-01  0.33348516638E-01  0.00000000000E+00 0.  1.
       22    1    1    2    0    0 -0.11899665263E-03 -0.55205840157E-03  0.15941363409E-02  0.16912123921E-02  0.00000000000E+00 0.  1.
</event>
<event>
 5   0  0.4146200E+04  0.9118800E+02  0.7546771E-02  0.1180000E+00
      -11   -1    0    0    0    0  0.00000000000E+00  0.00000000000E+00  0.34996269501E-01  0.35000000000E-01  0.51099999109E-03 0.  1.
       11   -1    0    0    0    0 -0.00000000000E+00 -0.00000000000E+00 -0.34996269501E-01  0.35000000000E-01  0.51099999109E-03 0. -1.
       22    1    1    2    0    0  0.46160371835E-02  0.45086468317E-02 -0.30757195392E-01  0.31426752360E-01  0.00000000000E+00 0. -1.
       22    1    1    2    0    0 -0.37805992760E-02 -0.55689007834E-02  0.34210042996E-01  0.34865923602E-01  0.00000000000E+00 0.  1.
       22    1    1    2    0    0 -0.83543790754E-03  0.10602539516E-02 -0.34528476046E-02  0.37073240376E-02  0.00000000000E+00 0. -1.
</event>
<event>
 5   0  0.4146200E+04  0.9118800E+02  0.7546771E-02  0.1180000E+00
      -11   -1    0    0    0    0  0.00000000000E+00  0.00000000000E+00  0.34996269501E-01  0.35000000000E-01  0.51099999109E-03 0. -1.
       11   -1    0    0    0    0 -0.00000000000E+00 -0.00000000000E+00 -0.34996269501E-01  0.35000000000E-01  0.51099999109E-03 0.  1.
       22    1    1    2    0    0  0.51141271226E-02 -0.84859632758E-02  0.33358188831E-01  0.34798486045E-01  0.00000000000E+00 0. -1.
       22    1    1    2    0    0 -0.18130249414E-02  0.47299688460E-02 -0.24601989825E-01  0.25118072539E-01  0.00000000000E+00 0.  1.
       22    1    1    2    0    0 -0.33011021812E-02  0.37559944298E-02 -0.87561990056E-02  0.10083441416E-01  0.00000000000E+00 0.  1.
</event>
<event>
 5   0  0.4146200E+04  0.9118800E+02  0.7546771E-02  0.1180000E+00
      -11   -1    0    0    0    0  0.00000000000E+00  0.00000000000E+00  0.34996269501E-01  0.35000000000E-01  0.51099999109E-03 0. -1.
       11   -1    0    0    0    0 -0.00000000000E+00 -0.00000000000E+00 -0.34996269501E-01  0.35000000000E-01  0.51099999109E-03 0.  1.
       22    1    1    2    0    0 -0.65458409613E-03  0.11459371681E-03  0.78697589221E-02  0.78977666179E-02  0.00000000000E+00 0. -1.
       22    1    1    2    0    0  0.12748271961E-01  0.72643885782E-02 -0.31387077893E-01  0.34647343882E-01  0.00000000000E+00 0.  1.
       22    1    1    2    0    0 -0.12093687865E-01 -0.73789822951E-02  0.23517318971E-01  0.27454889500E-01  0.00000000000E+00 0. -1.
</event>
<event>
 5   0  0.4146200E+04  0.9118800E+02  0.7546771E-02  0.1180000E+00
      -11   -1    0    0    0    0  0.00000000000E+00  0.00000000000E+00  0.34996269501E-01  0.35000000000E-01  0.51099999109E-03 0.  1.
       11   -1    0    0    0    0 -0.00000000000E+00 -0.00000000000E+00 -0.34996269501E-01  0.35000000000E-01  0.51099999109E-03 0.  1.
       22    1    1    2    0    0  0.15522550263E-03  0.99018263718E-04  0.32936846279E-01  0.32937360890E-01  0.00000000000E+00 0.  1.
       22    1    1    2    0    0 -0.70626937797E-02 -0.31876780450E-02 -0.85967064407E-02  0.11573517027E-01  0.00000000000E+00 0. -1.
       22    1    1    2    0    0  0.69074682771E-02  0.30886597813E-02 -0.24340139838E-01  0.25489122084E-01  0.00000000000E+00 0.  1.
</event>
<event>
 5   0  0.4146200E+04  0.9118800E+02  0.7546771E-02  0.1180000E+00
      -11   -1    0    0    0    0  0.00000000000E+00  0.00000000000E+00  0.34996269501E-01  0.35000000000E-01  0.51099999109E-03 0.  1.
       11   -1    0    0    0    0 -0.00000000000E+00 -0.00000000000E+00 -0.34996269501E-01  0.35000000000E-01  0.51099999109E-03 0. -1.
       22    1    1    2    0    0 -0.13300221966E-01  0.17063543593E-01 -0.18944022465E-01  0.28756502073E-01  0.00000000000E+00 0. -1.
       22    1    1    2    0    0  0.14584296906E-01 -0.14679487340E-01  0.26265395801E-01  0.33437405423E-01  0.00000000000E+00 0.  1.
       22    1    1    2    0    0 -0.12840749407E-02 -0.23840562526E-02 -0.73213733357E-02  0.78060925045E-02  0.00000000000E+00 0.  1.
</event>
<event>
 5   0  0.4146200E+04  0.9118800E+02  0.7546771E-02  0.1180000E+00
      -11   -1    0    0    0    0  0.00000000000E+00  0.00000000000E+00  0.34996269501E-01  0.35000000000E-01  0.51099999109E-03 0.  1.
       11   -1    0    0    0    0 -0.00000000000E+00 -0.00000000000E+00 -0.34996269501E-01  0.35000000000E-01  0.51099999109E-03 0. -1.
       22    1    1    2    0    0 -0.10566477322E-03 -0.17566265958E-03 -0.13498441915E-02  0.13653211182E-02  0.00000000000E+00 0. -1.
       22    1    1    2    0    0  0.95909165296E-02  0.84515562026E-02 -0.31209809153E-01  0.33726349780E-01  0.00000000000E+00 0. -1.
       22    1    1    2    0    0 -0.94852517564E-02 -0.82758935430E-02  0.32559653344E-01  0.34908329102E-01  0.00000000000E+00 0.  1.
</event>
<event>
 5   0  0.4146200E+04  0.9118800E+02  0.7546771E-02  0.1180000E+00
      -11   -1    0    0    0    0  0.00000000000E+00  0.00000000000E+00  0.34996269501E-01  0.35000000000E-01  0.51099999109E-03 0.  1.
       11   -1    0    0    0    0 -0.00000000000E+00 -0.00000000000E+00 -0.34996269501E-01  0.35000000000E-01  0.51099999109E-03 0. -1.
       22    1    1    2    0    0  0.26547589049E-01  0.13359290159E-01 -0.56894360355E-02  0.30259127553E-01  0.00000000000E+00 0. -1.
       22    1    1    2    0    0  0.21509233074E-02 -0.32803907871E-03 -0.57990869089E-02  0.61938267402E-02  0.00000000000E+00 0. -1.
       22    1    1    2    0    0 -0.28698512357E-01 -0.13031251080E-01  0.11488522944E-01  0.33547045707E-01  0.00000000000E+00 0.  1.
</event>
<event>
 5   0  0.4146200E+04  0.9118800E+02  0.7546771E-02  0.1180000E+00
      -11   -1    0    0    0    0  0.00000000000E+00  0.00000000000E+00  0.34996269501E-01  0.35000000000E-01  0.51099999109E-03 0. -1.
       11   -1    0    0    0    0 -0.00000000000E+00 -0.00000000000E+00 -0.34996269501E-01  0.35000000000E-01  0.51099999109E-03 0.  1.
       22    1    1    2    0    0 -0.53929095924E-04 -0.21050905565E-03  0.23310974108E-02  0.23412042945E-02  0.00000000000E+00 0. -1.
       22    1    1    2    0    0 -0.17556079284E-01  0.60909208010E-02 -0.29432556053E-01  0.34807909904E-01  0.00000000000E+00 0.  1.
       22    1    1    2    0    0  0.17610008380E-01 -0.58804117453E-02  0.27101458643E-01  0.32850885802E-01  0.00000000000E+00 0. -1.
</event>
<event>
 5   0  0.4146200E+04  0.9118800E+02  0.7546771E-02  0.1180000E+00
      -11   -1    0    0    0    0  0.00000000000E+00  0.00000000000E+00  0.34996269501E-01  0.35000000000E-01  0.51099999109E-03 0.  1.
       11   -1    0    0    0    0 -0.00000000000E+00 -0.00000000000E+00 -0.34996269501E-01  0.35000000000E-01  0.51099999109E-03 0. -1.
       22    1    1    2    0    0  0.18430827069E-01  0.29467251838E-01 -0.32705435104E-03  0.34758039098E-01  0.00000000000E+00 0. -1.
       22    1    1    2    0    0 -0.18428620926E-01 -0.29660022508E-01  0.58023140785E-03  0.34923740821E-01  0.00000000000E+00 0.  1.
       22    1    1    2    0    0 -0.22061433698E-05  0.19277066993E-03 -0.25317705681E-03  0.31822008163E-03  0.00000000000E+00 0.  1.
</event>
<event>
 5   0  0.4146200E+04  0.9118800E+02  0.7546771E-02  0.1180000E+00
      -11   -1    0    0    0    0  0.00000000000E+00  0.00000000000E+00  0.34996269501E-01  0.35000000000E-01  0.51099999109E-03 0. -1.
       11   -1    0    0    0    0 -0.00000000000E+00 -0.00000000000E+00 -0.34996269501E-01  0.35000000000E-01  0.51099999109E-03 0.  1.
       22    1    1    2    0    0  0.77681974186E-02 -0.61127341973E-02 -0.28070963283E-01  0.29760534104E-01  0.00000000000E+00 0.  1.
       22    1    1    2    0    0 -0.10194598340E-01  0.21667033292E-03  0.31423089071E-01  0.33036151533E-01  0.00000000000E+00 0. -1.
       22    1    1    2    0    0  0.24264009213E-02  0.58960638643E-02 -0.33521257879E-02  0.72033143636E-02  0.00000000000E+00 0. -1.
</event>
<event>
 5   0  0.4146200E+04  0.9118800E+02  0.7546771E-02  0.1180000E+00
      -11   -1    0    0    0    0  0.00000000000E+00  0.00000000000E+00  0.34996269501E-01  0.35000000000E-01  0.51099999109E-03 0.  1.
       11   -1    0    0    0    0 -0.00000000000E+00 -0.00000000000E+00 -0.34996269501E-01  0.35000000000E-01  0.51099999109E-03 0. -1.
       22    1    1    2    0    0  0.19138677125E-02 -0.73653143076E-02  0.30685366002E-02  0.82052825264E-02  0.00000000000E+00 0.  1.
       22    1    1    2    0    0 -0.73846019630E-02  0.19003913611E-01 -0.27471431273E-01  0.34210533683E-01  0.00000000000E+00 0. -1.
       22    1    1    2    0    0  0.54707342505E-02 -0.11638599304E-01  0.24402894673E-01  0.27584183791E-01  0.00000000000E+00 0.  1.
</event>
<event>
 5   0  0.4146200E+04  0.9118800E+02  0.7546771E-02  0.1180000E+00
      -11   -1    0    0    0    0  0.00000000000E+00  0.00000000000E+00  0.34996269501E-01  0.35000000000E-01  0.51099999109E-03 0. -1.
       11   -1    0    0    0    0 -0.00000000000E+00 -0.00000000000E+00 -0.34996269501E-01  0.35000000000E-01  0.51099999109E-03 0.  1.
       22    1    1    2    0    0 -0.38320106156E-03 -0.90351920354E-03 -0.20000100567E-03  0.10015939332E-02  0.00000000000E+00 0.  1.
       22    1    1    2    0    0  0.18782930086E-01 -0.88299156461E-02 -0.27434828469E-01  0.34401100070E-01  0.00000000000E+00 0.  1.
       22    1    1    2    0    0 -0.18399729024E-01  0.97334348497E-02  0.27634829475E-01  0.34597305997E-01  0.00000000000E+00 0. -1.
</event>
<event>
 5   0  0.4146200E+04  0.9118800E+02  0.7546771E-02  0.1180000E+00
      -11   -1    0    0    0    0  0.00000000000E+00  0.00000000000E+00  0.34996269501E-01  0.35000000000E-01  0.51099999109E-03 0. -1.
       11   -1    0    0    0    0 -0.00000000000E+00 -0.00000000000E+00 -0.34996269501E-01  0.35000000000E-01  0.51099999109E-03 0. -1.
       22    1    1    2    0    0  0.46993486546E-03 -0.33267358481E-02 -0.33466165539E-01  0.33634390824E-01  0.00000000000E+00 0. -1.
       22    1    1    2    0    0 -0.12312788359E-02  0.36165661276E-02  0.34687642919E-01  0.34897394880E-01  0.00000000000E+00 0. -1.
       22    1    1    2    0    0  0.76134397049E-03 -0.28983027952E-03 -0.12214773796E-02  0.14682142967E-02  0.00000000000E+00 0. -1.
</event>
<event>
 5   0  0.4146200E+04  0.9118800E+02  0.7546771E-02  0.1180000E+00
      -11   -1    0    0    0    0  0.00000000000E+00  0.00000000000E+00  0.34996269501E-01  0.35000000000E-01  0.51099999109E-03 0.  1.
       11   -1    0    0    0    0 -0.00000000000E+00 -0.00000000000E+00 -0.34996269501E-01  0.35000000000E-01  0.51099999109E-03 0. -1.
       22    1    1    2    0    0 -0.73765914325E-02  0.21983723031E-01  0.25971451368E-01  0.34816870416E-01  0.00000000000E+00 0.  1.
       22    1    1    2    0    0  0.72983830215E-02 -0.21918230414E-01 -0.24373335833E-01  0.33581761699E-01  0.00000000000E+00 0. -1.
       22    1    1    2    0    0  0.78208411050E-04 -0.65492616489E-04 -0.15981155349E-02  0.16013678844E-02  0.00000000000E+00 0. -1.
</event>
<event>
 5   0  0.4146200E+04  0.9118800E+02  0.7546771E-02  0.1180000E+00
      -11   -1    0    0    0    0  0.00000000000E+00  0.00000000000E+00  0.34996269501E-01  0.35000000000E-01  0.51099999109E-03 0.  1.
       11   -1    0    0    0    0 -0.00000000000E+00 -0.00000000000E+00 -0.34996269501E-01  0.35000000000E-01  0.51099999109E-03 0. -1.
       22    1    1    2    0    0  0.11946755544E-01 -0.60273342472E-03  0.26517213003E-01  0.29090390872E-01  0.00000000000E+00 0.  1.
       22    1    1    2    0    0 -0.19056703859E-01 -0.13334434288E-02 -0.27490954789E-01  0.33476687837E-01  0.00000000000E+00 0. -1.
       22    1    1    2    0    0  0.71099483151E-02  0.19361768536E-02  0.97374178590E-03  0.74329212909E-02  0.00000000000E+00 0. -1.
</event>
<event>
 5   0  0.4146200E+04  0.9118800E+02  0.7546771E-02  0.1180000E+00
      -11   -1    0    0    0    0  0.00000000000E+00  0.00000000000E+00  0.34996269501E-01  0.35000000000E-01  0.51099999109E-03 0.  1.
       11   -1    0    0    0    0 -0.00000000000E+00 -0.00000000000E+00 -0.34996269501E-01  0.35000000000E-01  0.51099999109E-03 0. -1.
       22    1    1    2    0    0 -0.93129830301E-04 -0.17669951982E-03  0.21529588105E-02  0.21622043209E-02  0.00000000000E+00 0. -1.
       22    1    1    2    0    0  0.14668946274E-01  0.51547184770E-02  0.29101250394E-01  0.32994421981E-01  0.00000000000E+00 0.  1.
       22    1    1    2    0    0 -0.14575816443E-01 -0.49780189572E-02 -0.31254209204E-01  0.34843373699E-01  0.00000000000E+00 0. -1.
</event>
<event>
 5   0  0.4146200E+04  0.9118800E+02  0.7546771E-02  0.1180000E+00
      -11   -1    0    0    0    0  0.00000000000E+00  0.00000000000E+00  0.34996269501E-01  0.35000000000E-01  0.51099999109E-03 0.  1.
       11   -1    0    0    0    0 -0.00000000000E+00 -0.00000000000E+00 -0.34996269501E-01  0.35000000000E-01  0.51099999109E-03 0. -1.
       22    1    1    2    0    0 -0.94502858177E-03 -0.43223782256E-04 -0.34580125772E-01  0.34593063549E-01  0.00000000000E+00 0. -1.
       22    1    1    2    0    0 -0.16195841266E-03  0.47931395823E-04 -0.38702090764E-03  0.42227139269E-03  0.00000000000E+00 0. -1.
       22    1    1    2    0    0  0.11069869944E-02 -0.47076135664E-05  0.34967146679E-01  0.34984665058E-01  0.00000000000E+00 0.  1.
</event>
<event>
 5   0  0.4146200E+04  0.9118800E+02  0.7546771E-02  0.1180000E+00
      -11   -1    0    0    0    0  0.00000000000E+00  0.00000000000E+00  0.34996269501E-01  0.35000000000E-01  0.51099999109E-03 0.  1.
       11   -1    0    0    0    0 -0.00000000000E+00 -0.00000000000E+00 -0.34996269501E-01  0.35000000000E-01  0.51099999109E-03 0. -1.
       22    1    1    2    0    0 -0.55627912198E-02  0.16710332217E-02 -0.10154859405E-01  0.11698639567E-01  0.00000000000E+00 0.  1.
       22    1    1    2    0    0  0.41806415815E-02 -0.28662227741E-02 -0.23781578500E-01  0.24315765935E-01  0.00000000000E+00 0. -1.
       22    1    1    2    0    0  0.13821496383E-02  0.11951895524E-02  0.33936437905E-01  0.33985594498E-01  0.00000000000E+00 0.  1.
</event>
<event>
 5   0  0.4146200E+04  0.9118800E+02  0.7546771E-02  0.1180000E+00
      -11   -1    0    0    0    0  0.00000000000E+00  0.00000000000E+00  0.34996269501E-01  0.35000000000E-01  0.51099999109E-03 0.  1.
       11   -1    0    0    0    0 -0.00000000000E+00 -0.00000000000E+00 -0.34996269501E-01  0.35000000000E-01  0.51099999109E-03 0. -1.
       22    1    1    2    0    0 -0.20755856066E-03 -0.14132612896E-01 -0.31085923366E-01  0.34148330256E-01  0.00000000000E+00 0. -1.
       22    1    1    2    0    0 -0.40839262081E-02  0.84065024000E-02  0.10497150280E-01  0.14054817675E-01  0.00000000000E+00 0.  1.
       22    1    1    2    0    0  0.42914847687E-02  0.57261104958E-02  0.20588773086E-01  0.21796852069E-01  0.00000000000E+00 0.  1.
</event>
<event>
 5   0  0.4146200E+04  0.9118800E+02  0.7546771E-02  0.1180000E+00
      -11   -1    0    0    0    0  0.00000000000E+00  0.00000000000E+00  0.34996269501E-01  0.35000000000E-01  0.51099999109E-03 0.  1.
       11   -1    0    0    0    0 -0.00000000000E+00 -0.00000000000E+00 -0.34996269501E-01  0.35000000000E-01  0.51099999109E-03 0. -1.
       22    1    1    2    0    0  0.18977855713E-01 -0.50692629395E-02  0.14214275840E-01  0.24246691978E-01  0.00000000000E+00 0.  1.
       22    1    1    2    0    0 -0.15477522953E-02 -0.39692146099E-02  0.12153375489E-01  0.12878460217E-01  0.00000000000E+00 0.  1.
       22    1    1    2    0    0 -0.17430103417E-01  0.90384775494E-02 -0.26367651330E-01  0.32874847805E-01  0.00000000000E+00 0. -1.
</event>
<event>
 5   0  0.4146200E+04  0.9118800E+02  0.7546771E-02  0.1180000E+00
      -11   -1    0    0    0    0  0.00000000000E+00  0.00000000000E+00  0.34996269501E-01  0.35000000000E-01  0.51099999109E-03 0. -1.
       11   -1    0    0    0    0 -0.00000000000E+00 -0.00000000000E+00 -0.34996269501E-01  0.35000000000E-01  0.51099999109E-03 0.  1.
       22    1    1    2    0    0  0.10481398373E-01 -0.44840144468E-02 -0.33031808753E-01  0.34943761774E-01  0.00000000000E+00 0.  1.
       22    1    1    2    0    0  0.88948637447E-04  0.65851823534E-04  0.15621124767E-02  0.15660280051E-02  0.00000000000E+00 0. -1.
       22    1    1    2    0    0 -0.10570347011E-01  0.44181626233E-02  0.31469696277E-01  0.33490210221E-01  0.00000000000E+00 0. -1.
</event>
<event>
 5   0  0.4146200E+04  0.9118800E+02  0.7546771E-02  0.1180000E+00
      -11   -1    0    0    0    0  0.00000000000E+00  0.00000000000E+00  0.34996269501E-01  0.35000000000E-01  0.51099999109E-03 0. -1.
       11   -1    0    0    0    0 -0.00000000000E+00 -0.00000000000E+00 -0.34996269501E-01  0.35000000000E-01  0.51099999109E-03 0.  1.
       22    1    1    2    0    0 -0.20550593835E-01  0.59160138396E-03 -0.25517674448E-01  0.32769324198E-01  0.00000000000E+00 0.  1.
       22    1    1    2    0    0  0.21615261566E-01 -0.57750392855E-03  0.14212855937E-01  0.25875824958E-01  0.00000000000E+00 0. -1.
       22    1    1    2    0    0 -0.10646677310E-02 -0.14097455409E-04  0.11304818511E-01  0.11354850844E-01  0.00000000000E+00 0. -1.
</event>
<event>
 5   0  0.4146200E+04  0.9118800E+02  0.7546771E-02  0.1180000E+00
      -11   -1    0    0    0    0  0.00000000000E+00  0.00000000000E+00  0.34996269501E-01  0.35000000000E-01  0.51099999109E-03 0.  1.
       11   -1    0    0    0    0 -0.00000000000E+00 -0.00000000000E+00 -0.34996269501E-01  0.35000000000E-01  0.51099999109E-03 0. -1.
       22    1    1    2    0    0  0.68181203900E-02  0.14302788835E-01 -0.31180525695E-01  0.34975444483E-01  0.00000000000E+00 0. -1.
       22    1    1    2    0    0  0.94240995700E-05  0.55429671384E-05  0.40848482236E-03  0.40863111511E-03  0.00000000000E+00 0.  1.
       22    1    1    2    0    0 -0.68275444896E-02 -0.14308331802E-01  0.30772040873E-01  0.34615924402E-01  0.00000000000E+00 0.  1.
</event>
<event>
 5   0  0.4146200E+04  0.9118800E+02  0.7546771E-02  0.1180000E+00
      -11   -1    0    0    0    0  0.00000000000E+00  0.00000000000E+00  0.34996269501E-01  0.35000000000E-01  0.51099999109E-03 0.  1.
       11   -1    0    0    0    0 -0.00000000000E+00 -0.00000000000E+00 -0.34996269501E-01  0.35000000000E-01  0.51099999109E-03 0. -1.
       22    1    1    2    0    0  0.43472389025E-02 -0.21204817672E-02 -0.46527462339E-02  0.67114064485E-02  0.00000000000E+00 0. -1.
       22    1    1    2    0    0 -0.66966856012E-02 -0.94990405389E-02 -0.27050428160E-01  0.29441518861E-01  0.00000000000E+00 0. -1.
       22    1    1    2    0    0  0.23494466987E-02  0.11619522306E-01  0.31703174394E-01  0.33847074690E-01  0.00000000000E+00 0.  1.
</event>
<event>
 5   0  0.4146200E+04  0.9118800E+02  0.7546771E-02  0.1180000E+00
      -11   -1    0    0    0    0  0.00000000000E+00  0.00000000000E+00  0.34996269501E-01  0.35000000000E-01  0.51099999109E-03 0.  1.
       11   -1    0    0    0    0 -0.00000000000E+00 -0.00000000000E+00 -0.34996269501E-01  0.35000000000E-01  0.51099999109E-03 0. -1.
       22    1    1    2    0    0 -0.82362411571E-02 -0.99348645644E-02 -0.13775526764E-01  0.18875972556E-01  0.00000000000E+00 0. -1.
       22    1    1    2    0    0 -0.26560954286E-03  0.78944283350E-03 -0.17462713778E-01  0.17482566771E-01  0.00000000000E+00 0. -1.
       22    1    1    2    0    0  0.85018506999E-02  0.91454217309E-02  0.31238240543E-01  0.33641460672E-01  0.00000000000E+00 0.  1.
</event>
<event>
 5   0  0.4146200E+04  0.9118800E+02  0.7546771E-02  0.1180000E+00
      -11   -1    0    0    0    0  0.00000000000E+00  0.00000000000E+00  0.34996269501E-01  0.35000000000E-01  0.51099999109E-03 0. -1.
       11   -1    0    0    0    0 -0.00000000000E+00 -0.00000000000E+00 -0.34996269501E-01  0.35000000000E-01  0.51099999109E-03 0. -1.
       22    1    1    2    0    0  0.83061521500E-02  0.60278277669E-02 -0.35280968971E-02  0.10852388624E-01  0.00000000000E+00 0.  1.
       22    1    1    2    0    0 -0.76581569983E-02 -0.59774239187E-02 -0.26957771793E-01  0.28654815046E-01  0.00000000000E+00 0. -1.
       22    1    1    2    0    0 -0.64799515171E-03 -0.50403848222E-04  0.30485868690E-01  0.30492796330E-01  0.00000000000E+00 0. -1.
</event>
<event>
 5   0  0.4146200E+04  0.9118800E+02  0.7546771E-02  0.1180000E+00
      -11   -1    0    0    0    0  0.00000000000E+00  0.00000000000E+00  0.34996269501E-01  0.35000000000E-01  0.51099999109E-03 0. -1.
       11   -1    0    0    0    0 -0.00000000000E+00 -0.00000000000E+00 -0.34996269501E-01  0.35000000000E-01  0.51099999109E-03 0. -1.
       22    1    1    2    0    0  0.11033604075E-01 -0.32185153005E-02 -0.32134879414E-01  0.34128430005E-01  0.00000000000E+00 0. -1.
       22    1    1    2    0    0 -0.11033604075E-01  0.32185153005E-02  0.15803538676E-01  0.19541010575E-01  0.00000000000E+00 0.  1.
       22    1    1    2    0    0 -0.00000000000E+00 -0.00000000000E+00  0.16331340738E-01  0.16330559420E-01  0.00000000000E+00 0. -1.
</event>
<event>
 5   0  0.4146200E+04  0.9118800E+02  0.7546771E-02  0.1180000E+00
      -11   -1    0    0    0    0  0.00000000000E+00  0.00000000000E+00  0.34996269501E-01  0.35000000000E-01  0.51099999109E-03 0. -1.
       11   -1    0    0    0    0 -0.00000000000E+00 -0.00000000000E+00 -0.34996269501E-01  0.35000000000E-01  0.51099999109E-03 0.  1.
       22    1    1    2    0    0  0.19921537078E-01  0.47547446846E-02 -0.28218321955E-01  0.34867591407E-01  0.00000000000E+00 0.  1.
       22    1    1    2    0    0 -0.19951736029E-01 -0.47822021396E-02  0.26987114169E-01  0.33900524466E-01  0.00000000000E+00 0. -1.
       22    1    1    2    0    0  0.30198951393E-04  0.27457454947E-04  0.12312077864E-02  0.12318841268E-02  0.00000000000E+00 0. -1.
</event>
<event>
 5   0  0.4146200E+04  0.9118800E+02  0.7546771E-02  0.1180000E+00
      -11   -1    0    0    0    0  0.00000000000E+00  0.00000000000E+00  0.34996269501E-01  0.35000000000E-01  0.51099999109E-03 0. -1.
       11   -1    0    0    0    0 -0.00000000000E+00 -0.00000000000E+00 -0.34996269501E-01  0.35000000000E-01  0.51099999109E-03 0.  1.
       22    1    1    2    0    0 -0.15569550380E-01  0.34576519084E-02  0.30289175506E-01  0.34231570349E-01  0.00000000000E+00 0. -1.
       22    1    1    2    0    0  0.37069753018E-02 -0.79859914612E-03 -0.80531313450E-03  0.38765907353E-02  0.00000000000E+00 0.  1.
       22    1    1    2    0    0  0.11862575078E-01 -0.26590527623E-02 -0.29483862371E-01  0.31891838915E-01  0.00000000000E+00 0.  1.
</event>
<event>
 5   0  0.4146200E+04  0.9118800E+02  0.7546771E-02  0.1180000E+00
      -11   -1    0    0    0    0  0.00000000000E+00  0.00000000000E+00  0.34996269501E-01  0.35000000000E-01  0.51099999109E-03 0. -1.
       11   -1    0    0    0    0 -0.00000000000E+00 -0.00000000000E+00 -0.34996269501E-01  0.35000000000E-01  0.51099999109E-03 0.  1.
       22    1    1    2    0    0 -0.22236683686E-02 -0.19045852009E-01  0.16542625270E-01  0.25324842163E-01  0.00000000000E+00 0. -1.
       22    1    1    2    0    0 -0.11347374417E-02  0.17791975756E-03  0.11033766774E-01  0.11093389641E-01  0.00000000000E+00 0. -1.
       22    1    1    2    0    0  0.33584058104E-02  0.18867932251E-01 -0.27576392044E-01  0.33581768196E-01  0.00000000000E+00 0.  1.
</event>
<event>
 5   0  0.4146200E+04  0.9118800E+02  0.7546771E-02  0.1180000E+00
      -11   -1    0    0    0    0  0.00000000000E+00  0.00000000000E+00  0.34996269501E-01  0.35000000000E-01  0.51099999109E-03 0. -1.
       11   -1    0    0    0    0 -0.00000000000E+00 -0.00000000000E+00 -0.34996269501E-01  0.35000000000E-01  0.51099999109E-03 0.  1.
       22    1    1    2    0    0  0.13770461592E-03 -0.56526032902E-03  0.30259102939E-02  0.30813333003E-02  0.00000000000E+00 0. -1.
       22    1    1    2    0    0  0.12431738899E-01 -0.16577715099E-02  0.29458069314E-01  0.32016779759E-01  0.00000000000E+00 0. -1.
       22    1    1    2    0    0 -0.12569443515E-01  0.22230318389E-02 -0.32483979608E-01  0.34901886940E-01  0.00000000000E+00 0.  1.
</event>
<event>
 5   0  0.4146200E+04  0.9118800E+02  0.7546771E-02  0.1180000E+00
      -11   -1    0    0    0    0  0.00000000000E+00  0.00000000000E+00  0.34996269501E-01  0.35000000000E-01  0.51099999109E-03 0.  1.
       11   -1    0    0    0    0 -0.00000000000E+00 -0.00000000000E+00 -0.34996269501E-01  0.35000000000E-01  0.51099999109E-03 0. -1.
       22    1    1    2    0    0 -0.21339122999E-03 -0.99265146722E-04 -0.50568288524E-03  0.55776748454E-03  0.00000000000E+00 0. -1.
       22    1    1    2    0    0 -0.21785012104E-02 -0.62355455826E-03 -0.34386306234E-01  0.34460887166E-01  0.00000000000E+00 0. -1.
       22    1    1    2    0    0  0.23918924404E-02  0.72281970499E-03  0.34891989119E-01  0.34981345350E-01  0.00000000000E+00 0.  1.
</event>
<event>
 5   0  0.4146200E+04  0.9118800E+02  0.7546771E-02  0.1180000E+00
      -11   -1    0    0    0    0  0.00000000000E+00  0.00000000000E+00  0.34996269501E-01  0.35000000000E-01  0.51099999109E-03 0. -1.
       11   -1    0    0    0    0 -0.00000000000E+00 -0.00000000000E+00 -0.34996269501E-01  0.35000000000E-01  0.51099999109E-03 0.  1.
       22    1    1    2    0    0  0.33632618782E-03 -0.11093087950E-03  0.46233803832E-02  0.46369243181E-02  0.00000000000E+00 0.  1.
       22    1    1    2    0    0 -0.10985474916E-01  0.81649776916E-02 -0.32054795532E-01  0.34854805070E-01  0.00000000000E+00 0.  1.
       22    1    1    2    0    0  0.10649148728E-01 -0.80540468121E-02  0.27431415149E-01  0.30508270612E-01  0.00000000000E+00 0. -1.
</event>
<event>
 5   0  0.4146200E+04  0.9118800E+02  0.7546771E-02  0.1180000E+00
      -11   -1    0    0    0    0  0.00000000000E+00  0.00000000000E+00  0.34996269501E-01  0.35000000000E-01  0.51099999109E-03 0. -1.
       11   -1    0    0    0    0 -0.00000000000E+00 -0.00000000000E+00 -0.34996269501E-01  0.35000000000E-01  0.51099999109E-03 0.  1.
       22    1    1    2    0    0 -0.32847834652E-02 -0.12237466057E-01  0.32292752563E-01  0.34689584114E-01  0.00000000000E+00 0. -1.
       22    1    1    2    0    0  0.32898685970E-02  0.12222646515E-01 -0.32616411645E-01  0.34986377804E-01  0.00000000000E+00 0.  1.
       22    1    1    2    0    0 -0.50851318161E-05  0.14819541775E-04  0.32365908214E-03  0.32403808239E-03  0.00000000000E+00 0.  1.
</event>
<event>
 5   0  0.4146200E+04  0.9118800E+02  0.7546771E-02  0.1180000E+00
      -11   -1    0    0    0    0  0.00000000000E+00  0.00000000000E+00  0.34996269501E-01  0.35000000000E-01  0.51099999109E-03 0.  1.
       11   -1    0    0    0    0 -0.00000000000E+00 -0.00000000000E+00 -0.34996269501E-01  0.35000000000E-01  0.51099999109E-03 0. -1.
       22    1    1    2    0    0  0.67861834739E-03  0.56886379297E-02 -0.33589150647E-01  0.34074215553E-01  0.00000000000E+00 0. -1.
       22    1    1    2    0    0 -0.32538876327E-03 -0.34807984441E-04 -0.90874630063E-03  0.96587229070E-03  0.00000000000E+00 0. -1.
       22    1    1    2    0    0 -0.35322958412E-03 -0.56538299452E-02  0.34497896948E-01  0.34959912157E-01  0.00000000000E+00 0.  1.
</event>
<event>
 5   0  0.4146200E+04  0.9118800E+02  0.7546771E-02  0.1180000E+00
      -11   -1    0    0    0    0  0.00000000000E+00  0.00000000000E+00  0.34996269501E-01  0.35000000000E-01  0.51099999109E-03 0.  1.
       11   -1    0    0    0    0 -0.00000000000E+00 -0.00000000000E+00 -0.34996269501E-01  0.35000000000E-01  0.51099999109E-03 0. -1.
       22    1    1    2    0    0 -0.14667337549E-01  0.82461325849E-02  0.29391568021E-01  0.33867296380E-01  0.00000000000E+00 0.  1.
       22    1    1    2    0    0 -0.37436650039E-03  0.32037251745E-03 -0.10493586644E-01  0.10505148713E-01  0.00000000000E+00 0. -1.
       22    1    1    2    0    0  0.15041704049E-01 -0.85665051024E-02 -0.18897981377E-01  0.25627554907E-01  0.00000000000E+00 0. -1.
</event>
<event>
 5   0  0.4146200E+04  0.9118800E+02  0.7546771E-02  0.1180000E+00
      -11   -1    0    0    0    0  0.00000000000E+00  0.00000000000E+00  0.34996269501E-01  0.35000000000E-01  0.51099999109E-03 0. -1.
       11   -1    0    0    0    0 -0.00000000000E+00 -0.00000000000E+00 -0.34996269501E-01  0.35000000000E-01  0.51099999109E-03 0.  1.
       22    1    1    2    0    0  0.30246883753E-03  0.10592432518E-02  0.31966502297E-01  0.31985477217E-01  0.00000000000E+00 0. -1.
       22    1    1    2    0    0 -0.96885972642E-02 -0.39756447207E-02 -0.19553722191E-01  0.22181585142E-01  0.00000000000E+00 0.  1.
       22    1    1    2    0    0  0.93861284267E-02  0.29164014689E-02 -0.12412780107E-01  0.15832937641E-01  0.00000000000E+00 0. -1.
</event>
<event>
 5   0  0.4146200E+04  0.9118800E+02  0.7546771E-02  0.1180000E+00
      -11   -1    0    0    0    0  0.00000000000E+00  0.00000000000E+00  0.34996269501E-01  0.35000000000E-01  0.51099999109E-03 0.  1.
       11   -1    0    0    0    0 -0.00000000000E+00 -0.00000000000E+00 -0.34996269501E-01  0.35000000000E-01  0.51099999109E-03 0. -1.
       22    1    1    2    0    0  0.26651714375E-02  0.24982037873E-02 -0.40307376417E-02  0.54397616575E-02  0.00000000000E+00 0.  1.
       22    1    1    2    0    0  0.11120311889E-01 -0.47473099582E-02  0.31501540246E-01  0.33742337297E-01  0.00000000000E+00 0.  1.
       22    1    1    2    0    0 -0.13785483327E-01  0.22491061709E-02 -0.27470802605E-01  0.30817901046E-01  0.00000000000E+00 0. -1.
</event>
<event>
 5   0  0.4146200E+04  0.9118800E+02  0.7546771E-02  0.1180000E+00
      -11   -1    0    0    0    0  0.00000000000E+00  0.00000000000E+00  0.34996269501E-01  0.35000000000E-01  0.51099999109E-03 0. -1.
       11   -1    0    0    0    0 -0.00000000000E+00 -0.00000000000E+00 -0.34996269501E-01  0.35000000000E-01  0.51099999109E-03 0.  1.
       22    1    1    2    0    0  0.14027001793E-02  0.19384590340E-01  0.28123978993E-01  0.34186080572E-01  0.00000000000E+00 0. -1.
       22    1    1    2    0    0  0.81274287927E-03 -0.84381452342E-04 -0.72599214408E-02  0.73057600935E-02  0.00000000000E+00 0.  1.
       22    1    1    2    0    0 -0.22154430586E-02 -0.19300208888E-01 -0.20864057553E-01  0.28508159334E-01  0.00000000000E+00 0.  1.
</event>
<event>
 5   0  0.4146200E+04  0.9118800E+02  0.7546771E-02  0.1180000E+00
      -11   -1    0    0    0    0  0.00000000000E+00  0.00000000000E+00  0.34996269501E-01  0.35000000000E-01  0.51099999109E-03 0.  1.
       11   -1    0    0    0    0 -0.00000000000E+00 -0.00000000000E+00 -0.34996269501E-01  0.35000000000E-01  0.51099999109E-03 0. -1.
       22    1    1    2    0    0  0.79562083878E-02 -0.15245145781E-02  0.33523856199E-01  0.34488756589E-01  0.00000000000E+00 0.  1.
       22    1    1    2    0    0  0.23194234809E-03 -0.23509626380E-02 -0.41859829543E-02  0.48065867174E-02  0.00000000000E+00 0.  1.
       22    1    1    2    0    0 -0.81881507359E-02  0.38754772161E-02 -0.29337873245E-01  0.30704656693E-01  0.00000000000E+00 0. -1.
</event>
<event>
 5   0  0.4146200E+04  0.9118800E+02  0.7546771E-02  0.1180000E+00
      -11   -1    0    0    0    0  0.00000000000E+00  0.00000000000E+00  0.34996269501E-01  0.35000000000E-01  0.51099999109E-03 0. -1.
       11   -1    0    0    0    0 -0.00000000000E+00 -0.00000000000E+00 -0.34996269501E-01  0.35000000000E-01  0.51099999109E-03 0.  1.
       22    1    1    2    0    0 -0.18559509576E-02  0.84788954790E-03 -0.34316604001E-01  0.34377213105E-01  0.00000000000E+00 0.  1.
       22    1    1    2    0    0  0.68201039031E-04 -0.29215667132E-03 -0.59217888015E-03  0.66383938451E-03  0.00000000000E+00 0.  1.
       22    1    1    2    0    0  0.17877499186E-02 -0.55573287658E-03  0.34908782882E-01  0.34958947511E-01  0.00000000000E+00 0. -1.
</event>
<event>
 5   0  0.4146200E+04  0.9118800E+02  0.7546771E-02  0.1180000E+00
      -11   -1    0    0    0    0  0.00000000000E+00  0.00000000000E+00  0.34996269501E-01  0.35000000000E-01  0.51099999109E-03 0.  1.
       11   -1    0    0    0    0 -0.00000000000E+00 -0.00000000000E+00 -0.34996269501E-01  0.35000000000E-01  0.51099999109E-03 0. -1.
       22    1    1    2    0    0 -0.28121377850E-02  0.18873453869E-01 -0.24226766997E-01  0.30839124810E-01  0.00000000000E+00 0. -1.
       22    1    1    2    0    0 -0.93018188226E-03 -0.19550663085E-01  0.58985913295E-02  0.20442285711E-01  0.00000000000E+00 0.  1.
       22    1    1    2    0    0  0.37423196673E-02  0.67720921571E-03  0.18328175668E-01  0.18718589480E-01  0.00000000000E+00 0.  1.
</event>
<event>
 5   0  0.4146200E+04  0.9118800E+02  0.7546771E-02  0.1180000E+00
      -11   -1    0    0    0    0  0.00000000000E+00  0.00000000000E+00  0.34996269501E-01  0.35000000000E-01  0.51099999109E-03 0.  1.
       11   -1    0    0    0    0 -0.00000000000E+00 -0.00000000000E+00 -0.34996269501E-01  0.35000000000E-01  0.51099999109E-03 0. -1.
       22    1    1    2    0    0 -0.14326500071E-02  0.82889789100E-02  0.24972925662E-01  0.26351597172E-01  0.00000000000E+00 0. -1.
       22    1    1    2    0    0 -0.93544932607E-03 -0.15596581832E-01 -0.30442736358E-01  0.34218249915E-01  0.00000000000E+00 0.  1.
       22    1    1    2    0    0  0.23680993332E-02  0.73076029217E-02  0.54698106959E-02  0.94301529129E-02  0.00000000000E+00 0. -1.
</event>
<event>
 5   0  0.4146200E+04  0.9118800E+02  0.7546771E-02  0.1180000E+00
      -11   -1    0    0    0    0  0.00000000000E+00  0.00000000000E+00  0.34996269501E-01  0.35000000000E-01  0.51099999109E-03 0. -1.
       11   -1    0    0    0    0 -0.00000000000E+00 -0.00000000000E+00 -0.34996269501E-01  0.35000000000E-01  0.51099999109E-03 0.  1.
       22    1    1    2    0    0  0.94248385709E-02 -0.77256000736E-02  0.95977775123E-02  0.15512247154E-01  0.00000000000E+00 0. -1.
       22    1    1    2    0    0 -0.26771868513E-02  0.13092670772E-01 -0.29725432826E-01  0.32591206085E-01  0.00000000000E+00 0.  1.
       22    1    1    2    0    0 -0.67476517196E-02 -0.53670706989E-02  0.20127655314E-01  0.21896546761E-01  0.00000000000E+00 0. -1.
</event>
<event>
 5   0  0.4146200E+04  0.9118800E+02  0.7546771E-02  0.1180000E+00
      -11   -1    0    0    0    0  0.00000000000E+00  0.00000000000E+00  0.34996269501E-01  0.35000000000E-01  0.51099999109E-03 0.  1.
       11   -1    0    0    0    0 -0.00000000000E+00 -0.00000000000E+00 -0.34996269501E-01  0.35000000000E-01  0.51099999109E-03 0. -1.
       22    1    1    2    0    0 -0.10973015617E-01  0.74985266125E-02 -0.31700957902E-01  0.34374201154E-01  0.00000000000E+00 0. -1.
       22    1    1    2    0    0  0.18942148075E-03 -0.18006012405E-02  0.17035541532E-03  0.18185341054E-02  0.00000000000E+00 0.  1.
       22    1    1    2    0    0  0.10783594136E-01 -0.56979253719E-02  0.31530602487E-01  0.33807264740E-01  0.00000000000E+00 0.  1.
</event>
<event>
 5   0  0.4146200E+04  0.9118800E+02  0.7546771E-02  0.1180000E+00
      -11   -1    0    0    0    0  0.00000000000E+00  0.00000000000E+00  0.34996269501E-01  0.35000000000E-01  0.51099999109E-03 0. -1.
       11   -1    0    0    0    0 -0.00000000000E+00 -0.00000000000E+00 -0.34996269501E-01  0.35000000000E-01  0.51099999109E-03 0.  1.
       22    1    1    2    0    0  0.47088680202E-02 -0.93553466558E-02 -0.19257975126E-01  0.21921805469E-01  0.00000000000E+00 0.  1.
       22    1    1    2    0    0  0.50612764140E-03 -0.21890726690E-03 -0.13521737247E-01  0.13532976899E-01  0.00000000000E+00 0.  1.
       22    1    1    2    0    0 -0.52149956616E-02  0.95742539227E-02  0.32779712373E-01  0.34545217631E-01  0.00000000000E+00 0. -1.
</event>
<event>
 5   0  0.4146200E+04  0.9118800E+02  0.7546771E-02  0.1180000E+00
      -11   -1    0    0    0    0  0.00000000000E+00  0.00000000000E+00  0.34996269501E-01  0.35000000000E-01  0.51099999109E-03 0. -1.
       11   -1    0    0    0    0 -0.00000000000E+00 -0.00000000000E+00 -0.34996269501E-01  0.35000000000E-01  0.51099999109E-03 0.  1.
       22    1    1    2    0    0  0.13774083360E-01  0.14766480464E-01 -0.28471155807E-01  0.34905315221E-01  0.00000000000E+00 0.  1.
       22    1    1    2    0    0 -0.13747693660E-01 -0.14803984296E-01  0.27504985501E-01  0.34127426792E-01  0.00000000000E+00 0. -1.
       22    1    1    2    0    0 -0.26389700446E-04  0.37503832622E-04  0.96617030590E-03  0.96725798718E-03  0.00000000000E+00 0.  1.
</event>
<event>
 5   0  0.4146200E+04  0.9118800E+02  0.7546771E-02  0.1180000E+00
      -11   -1    0    0    0    0  0.00000000000E+00  0.00000000000E+00  0.34996269501E-01  0.35000000000E-01  0.51099999109E-03 0.  1.
       11   -1    0    0    0    0 -0.00000000000E+00 -0.00000000000E+00 -0.34996269501E-01  0.35000000000E-01  0.51099999109E-03 0. -1.
       22    1    1    2    0    0 -0.19242776913E-03 -0.53916599316E-03 -0.21186617261E-02  0.21946425505E-02  0.00000000000E+00 0. -1.
       22    1    1    2    0    0 -0.49625553060E-02  0.13831324320E-01  0.31715176937E-01  0.34954040335E-01  0.00000000000E+00 0.  1.
       22    1    1    2    0    0  0.51549830751E-02 -0.13292158327E-01 -0.29596515211E-01  0.32851317114E-01  0.00000000000E+00 0. -1.
</event>
<event>
 5   0  0.4146200E+04  0.9118800E+02  0.7546771E-02  0.1180000E+00
      -11   -1    0    0    0    0  0.00000000000E+00  0.00000000000E+00  0.34996269501E-01  0.35000000000E-01  0.51099999109E-03 0. -1.
       11   -1    0    0    0    0 -0.00000000000E+00 -0.00000000000E+00 -0.34996269501E-01  0.35000000000E-01  0.51099999109E-03 0.  1.
       22    1    1    2    0    0 -0.20387547933E-03  0.50660364488E-04 -0.43414594256E-03  0.48230113315E-03  0.00000000000E+00 0. -1.
       22    1    1    2    0    0 -0.59059900147E-02  0.69489823249E-03 -0.34010975676E-01  0.34526946984E-01  0.00000000000E+00 0.  1.
       22    1    1    2    0    0  0.61098654940E-02 -0.74555859698E-03  0.34445121619E-01  0.34990751883E-01  0.00000000000E+00 0. -1.
</event>
<event>
 5   0  0.4146200E+04  0.9118800E+02  0.7546771E-02  0.1180000E+00
      -11   -1    0    0    0    0  0.00000000000E+00  0.00000000000E+00  0.34996269501E-01  0.35000000000E-01  0.51099999109E-03 0. -1.
       11   -1    0    0    0    0 -0.00000000000E+00 -0.00000000000E+00 -0.34996269501E-01  0.35000000000E-01  0.51099999109E-03 0.  1.
       22    1    1    2    0    0  0.11048955416E-01 -0.77673736258E-02  0.30868072797E-01  0.33693462675E-01  0.00000000000E+00 0. -1.
       22    1    1    2    0    0 -0.80098288382E-03 -0.14401124232E-02  0.75515404758E-03  0.18126651669E-02  0.00000000000E+00 0.  1.
       22    1    1    2    0    0 -0.10247972533E-01  0.92074860490E-02 -0.31623226845E-01  0.34493872158E-01  0.00000000000E+00 0.  1.
</event>
<event>
 5   0  0.4146200E+04  0.9118800E+02  0.7546771E-02  0.1180000E+00
      -11   -1    0    0    0    0  0.00000000000E+00  0.00000000000E+00  0.34996269501E-01  0.35000000000E-01  0.51099999109E-03 0.  1.
       11   -1    0    0    0    0 -0.00000000000E+00 -0.00000000000E+00 -0.34996269501E-01  0.35000000000E-01  0.51099999109E-03 0. -1.
       22    1    1    2    0    0  0.73448675129E-03  0.56468141605E-02 -0.33570720300E-01  0.34050245849E-01  0.00000000000E+00 0. -1.
       22    1    1    2    0    0 -0.15173789376E-04  0.33399695362E-03 -0.89820200213E-03  0.95841068731E-03  0.00000000000E+00 0. -1.
       22    1    1    2    0    0 -0.71931296191E-03 -0.59808111142E-02  0.34468922302E-01  0.34991343463E-01  0.00000000000E+00 0.  1.
</event>
<event>
 5   0  0.4146200E+04  0.9118800E+02  0.7546771E-02  0.1180000E+00
      -11   -1    0    0    0    0  0.00000000000E+00  0.00000000000E+00  0.34996269501E-01  0.35000000000E-01  0.51099999109E-03 0. -1.
       11   -1    0    0    0    0 -0.00000000000E+00 -0.00000000000E+00 -0.34996269501E-01  0.35000000000E-01  0.51099999109E-03 0.  1.
       22    1    1    2    0    0 -0.65637711009E-03  0.41165666429E-02  0.95626474572E-02  0.10431738984E-01  0.00000000000E+00 0.  1.
       22    1    1    2    0    0  0.20946934301E-01  0.20950571603E-02 -0.25473012178E-01  0.33045993260E-01  0.00000000000E+00 0.  1.
       22    1    1    2    0    0 -0.20290557190E-01 -0.62116238032E-02  0.15910364721E-01  0.26522267756E-01  0.00000000000E+00 0. -1.
</event>
<event>
 5   0  0.4146200E+04  0.9118800E+02  0.7546771E-02  0.1180000E+00
      -11   -1    0    0    0    0  0.00000000000E+00  0.00000000000E+00  0.34996269501E-01  0.35000000000E-01  0.51099999109E-03 0. -1.
       11   -1    0    0    0    0 -0.00000000000E+00 -0.00000000000E+00 -0.34996269501E-01  0.35000000000E-01  0.51099999109E-03 0.  1.
       22    1    1    2    0    0  0.41666514218E-04  0.11518161907E-03 -0.32832704016E-03  0.35043051961E-03  0.00000000000E+00 0. -1.
       22    1    1    2    0    0  0.18842974933E-01 -0.26102610569E-03  0.29436444364E-01  0.34951825356E-01  0.00000000000E+00 0. -1.
       22    1    1    2    0    0 -0.18884641447E-01  0.14584448662E-03 -0.29108117324E-01  0.34697744124E-01  0.00000000000E+00 0.  1.
</event>
<event>
 5   0  0.4146200E+04  0.9118800E+02  0.7546771E-02  0.1180000E+00
      -11   -1    0    0    0    0  0.00000000000E+00  0.00000000000E+00  0.34996269501E-01  0.35000000000E-01  0.51099999109E-03 0. -1.
       11   -1    0    0    0    0 -0.00000000000E+00 -0.00000000000E+00 -0.34996269501E-01  0.35000000000E-01  0.51099999109E-03 0.  1.
       22    1    1    2    0    0 -0.53346431600E-02  0.15745600286E-01 -0.30618464751E-01  0.34840676367E-01  0.00000000000E+00 0.  1.
       22    1    1    2    0    0  0.95582532410E-04  0.32831932327E-03  0.98217784191E-03  0.10400013998E-02  0.00000000000E+00 0.  1.
       22    1    1    2    0    0  0.52390606276E-02 -0.16073919609E-01  0.29636286909E-01  0.34119322233E-01  0.00000000000E+00 0. -1.
</event>
<event>
 5   0  0.4146200E+04  0.9118800E+02  0.7546771E-02  0.1180000E+00
      -11   -1    0    0    0    0  0.00000000000E+00  0.00000000000E+00  0.34996269501E-01  0.35000000000E-01  0.51099999109E-03 0. -1.
       11   -1    0    0    0    0 -0.00000000000E+00 -0.00000000000E+00 -0.34996269501E-01  0.35000000000E-01  0.51099999109E-03 0.  1.
       22    1    1    2    0    0 -0.93016527653E-03 -0.97414530505E-03 -0.33032341316E-01  0.33059790370E-01  0.00000000000E+00 0.  1.
       22    1    1    2    0    0  0.20811943196E-02  0.18108346126E-02  0.34664918150E-01  0.34774517137E-01  0.00000000000E+00 0. -1.
       22    1    1    2    0    0 -0.11510290431E-02 -0.83668930750E-03 -0.16325768339E-02  0.21656924929E-02  0.00000000000E+00 0.  1.
</event>
<event>
 5   0  0.4146200E+04  0.9118800E+02  0.7546771E-02  0.1180000E+00
      -11   -1    0    0    0    0  0.00000000000E+00  0.00000000000E+00  0.34996269501E-01  0.35000000000E-01  0.51099999109E-03 0.  1.
       11   -1    0    0    0    0 -0.00000000000E+00 -0.00000000000E+00 -0.34996269501E-01  0.35000000000E-01  0.51099999109E-03 0. -1.
       22    1    1    2    0    0  0.77257548426E-02  0.12881741967E-01 -0.29686210806E-01  0.33270071777E-01  0.00000000000E+00 0. -1.
       22    1    1    2    0    0 -0.71725266439E-02 -0.70010339430E-02  0.47276969964E-02  0.11082000434E-01  0.00000000000E+00 0.  1.
       22    1    1    2    0    0 -0.55322819873E-03 -0.58807080240E-02  0.24958513810E-01  0.25647927789E-01  0.00000000000E+00 0.  1.
</event>
<event>
 5   0  0.4146200E+04  0.9118800E+02  0.7546771E-02  0.1180000E+00
      -11   -1    0    0    0    0  0.00000000000E+00  0.00000000000E+00  0.34996269501E-01  0.35000000000E-01  0.51099999109E-03 0. -1.
       11   -1    0    0    0    0 -0.00000000000E+00 -0.00000000000E+00 -0.34996269501E-01  0.35000000000E-01  0.51099999109E-03 0.  1.
       22    1    1    2    0    0 -0.13958511726E-01  0.76409249608E-03  0.31727802412E-01  0.34670986903E-01  0.00000000000E+00 0. -1.
       22    1    1    2    0    0  0.13785633903E-01 -0.58605845256E-03 -0.24667387588E-01  0.28264238483E-01  0.00000000000E+00 0.  1.
       22    1    1    2    0    0  0.17287782285E-03 -0.17803404352E-03 -0.70604148235E-02  0.70647746137E-02  0.00000000000E+00 0. -1.
</event>
<event>
 5   0  0.4146200E+04  0.9118800E+02  0.7546771E-02  0.1180000E+00
      -11   -1    0    0    0    0  0.00000000000E+00  0.00000000000E+00  0.34996269501E-01  0.35000000000E-01  0.51099999109E-03 0. -1.
       11   -1    0    0    0    0 -0.00000000000E+00 -0.00000000000E+00 -0.34996269501E-01  0.35000000000E-01  0.51099999109E-03 0.  1.
       22    1    1    2    0    0 -0.33458386858E-02  0.23940679714E-02 -0.58275290765E-02  0.71334629108E-02  0.00000000000E+00 0.  1.
       22    1    1    2    0    0 -0.22796100641E-01 -0.15210162971E-01  0.16347126901E-01  0.31909870259E-01  0.00000000000E+00 0. -1.
       22    1    1    2    0    0  0.26141939327E-01  0.12816095000E-01 -0.10519597825E-01  0.30956666830E-01  0.00000000000E+00 0.  1.
</event>
<event>
 5   0  0.4146200E+04  0.9118800E+02  0.7546771E-02  0.1180000E+00
      -11   -1    0    0    0    0  0.00000000000E+00  0.00000000000E+00  0.34996269501E-01  0.35000000000E-01  0.51099999109E-03 0.  1.
       11   -1    0    0    0    0 -0.00000000000E+00 -0.00000000000E+00 -0.34996269501E-01  0.35000000000E-01  0.51099999109E-03 0. -1.
       22    1    1    2    0    0  0.49296117460E-02 -0.50016614918E-03 -0.33843949838E-01  0.34204739128E-01  0.00000000000E+00 0. -1.
       22    1    1    2    0    0 -0.51803058775E-02  0.17023711854E-03  0.34571558449E-01  0.34957934769E-01  0.00000000000E+00 0.  1.
       22    1    1    2    0    0  0.25069413154E-03  0.32992903064E-03 -0.72760861118E-03  0.83732610368E-03  0.00000000000E+00 0. -1.
</event>
<event>
 5   0  0.4146200E+04  0.9118800E+02  0.7546771E-02  0.1180000E+00
      -11   -1    0    0    0    0  0.00000000000E+00  0.00000000000E+00  0.34996269501E-01  0.35000000000E-01  0.51099999109E-03 0. -1.
       11   -1    0    0    0    0 -0.00000000000E+00 -0.00000000000E+00 -0.34996269501E-01  0.35000000000E-01  0.51099999109E-03 0.  1.
       22    1    1    2    0    0  0.21211194798E-02 -0.24242033214E-01 -0.24717546856E-01  0.34686199630E-01  0.00000000000E+00 0.  1.
       22    1    1    2    0    0  0.33170053103E-03  0.67502401906E-04 -0.28979188313E-03  0.44560201085E-03  0.00000000000E+00 0.  1.
       22    1    1    2    0    0 -0.24528200108E-02  0.24174530812E-01  0.25007338739E-01  0.34868198359E-01  0.00000000000E+00 0. -1.
</event>
<event>
 5   0  0.4146200E+04  0.9118800E+02  0.7546771E-02  0.1180000E+00
      -11   -1    0    0    0    0  0.00000000000E+00  0.00000000000E+00  0.34996269501E-01  0.35000000000E-01  0.51099999109E-03 0.  1.
       11   -1    0    0    0    0 -0.00000000000E+00 -0.00000000000E+00 -0.34996269501E-01  0.35000000000E-01  0.51099999109E-03 0.  1.
       22    1    1    2    0    0 -0.15148102926E-03  0.23570366633E-03  0.34937654218E-01  0.34938777669E-01  0.00000000000E+00 0.  1.
       22    1    1    2    0    0 -0.10607292160E-03 -0.37095219743E-03 -0.34649879336E-01  0.34652027285E-01  0.00000000000E+00 0.  1.
       22    1    1    2    0    0  0.25755395086E-03  0.13524853110E-03 -0.28777488230E-03  0.40919504598E-03  0.00000000000E+00 0.  1.
</event>
<event>
 5   0  0.4146200E+04  0.9118800E+02  0.7546771E-02  0.1180000E+00
      -11   -1    0    0    0    0  0.00000000000E+00  0.00000000000E+00  0.34996269501E-01  0.35000000000E-01  0.51099999109E-03 0. -1.
       11   -1    0    0    0    0 -0.00000000000E+00 -0.00000000000E+00 -0.34996269501E-01  0.35000000000E-01  0.51099999109E-03 0.  1.
       22    1    1    2    0    0 -0.91882887863E-03 -0.32726671005E-03 -0.51584138126E-02  0.52498174320E-02  0.00000000000E+00 0. -1.
       22    1    1    2    0    0 -0.15537355345E-01  0.10167740541E-01  0.28826937818E-01  0.34289717158E-01  0.00000000000E+00 0. -1.
       22    1    1    2    0    0  0.16456184223E-01 -0.98404738310E-02 -0.23668524005E-01  0.30460465410E-01  0.00000000000E+00 0.  1.
</event>
<event>
 5   0  0.4146200E+04  0.9118800E+02  0.7546771E-02  0.1180000E+00
      -11   -1    0    0    0    0  0.00000000000E+00  0.00000000000E+00  0.34996269501E-01  0.35000000000E-01  0.51099999109E-03 0.  1.
       11   -1    0    0    0    0 -0.00000000000E+00 -0.00000000000E+00 -0.34996269501E-01  0.35000000000E-01  0.51099999109E-03 0. -1.
       22    1    1    2    0    0 -0.10043225953E-01 -0.55427455132E-02 -0.28054160718E-01  0.30308816357E-01  0.00000000000E+00 0. -1.
       22    1    1    2    0    0  0.10237716729E-02 -0.72415122311E-04 -0.49312498114E-02  0.50369213902E-02  0.00000000000E+00 0. -1.
       22    1    1    2    0    0  0.90194542799E-02  0.56151606355E-02  0.32985410530E-01  0.34654262253E-01  0.00000000000E+00 0.  1.
</event>
<event>
 5   0  0.4146200E+04  0.9118800E+02  0.7546771E-02  0.1180000E+00
      -11   -1    0    0    0    0  0.00000000000E+00  0.00000000000E+00  0.34996269501E-01  0.35000000000E-01  0.51099999109E-03 0. -1.
       11   -1    0    0    0    0 -0.00000000000E+00 -0.00000000000E+00 -0.34996269501E-01  0.35000000000E-01  0.51099999109E-03 0.  1.
       22    1    1    2    0    0 -0.18229694020E-01  0.64441987310E-02  0.28682170316E-01  0.34590697238E-01  0.00000000000E+00 0. -1.
       22    1    1    2    0    0  0.16662093759E-01 -0.80237168845E-02 -0.26279742330E-01  0.32134564848E-01  0.00000000000E+00 0.  1.
       22    1    1    2    0    0  0.15676002612E-02  0.15795181536E-02 -0.24024279863E-02  0.32747379140E-02  0.00000000000E+00 0.  1.
</event>
<event>
 5   0  0.4146200E+04  0.9118800E+02  0.7546771E-02  0.1180000E+00
      -11   -1    0    0    0    0  0.00000000000E+00  0.00000000000E+00  0.34996269501E-01  0.35000000000E-01  0.51099999109E-03 0. -1.
       11   -1    0    0    0    0 -0.00000000000E+00 -0.00000000000E+00 -0.34996269501E-01  0.35000000000E-01  0.51099999109E-03 0.  1.
       22    1    1    2    0    0  0.14934785095E-01  0.40859961004E-02 -0.31167710011E-01  0.34801857957E-01  0.00000000000E+00 0.  1.
       22    1    1    2    0    0 -0.15250051161E-01 -0.40298367832E-02  0.29047715755E-01  0.33054098618E-01  0.00000000000E+00 0. -1.
       22    1    1    2    0    0  0.31526606583E-03 -0.56159317147E-04  0.21199942558E-02  0.21440434244E-02  0.00000000000E+00 0. -1.
</event>
<event>
 5   0  0.4146200E+04  0.9118800E+02  0.7546771E-02  0.1180000E+00
      -11   -1    0    0    0    0  0.00000000000E+00  0.00000000000E+00  0.34996269501E-01  0.35000000000E-01  0.51099999109E-03 0. -1.
       11   -1    0    0    0    0 -0.00000000000E+00 -0.00000000000E+00 -0.34996269501E-01  0.35000000000E-01  0.51099999109E-03 0.  1.
       22    1    1    2    0    0  0.12342433011E-01  0.14285977700E-01  0.29396381479E-01  0.34936686384E-01  0.00000000000E+00 0. -1.
       22    1    1    2    0    0 -0.12498233563E-01 -0.14239318003E-01 -0.29078470591E-01  0.34706216609E-01  0.00000000000E+00 0.  1.
       22    1    1    2    0    0  0.15580055221E-03 -0.46659696458E-04 -0.31791088832E-03  0.35709700679E-03  0.00000000000E+00 0.  1.
</event>
<event>
 5   0  0.4146200E+04  0.9118800E+02  0.7546771E-02  0.1180000E+00
      -11   -1    0    0    0    0  0.00000000000E+00  0.00000000000E+00  0.34996269501E-01  0.35000000000E-01  0.51099999109E-03 0. -1.
       11   -1    0    0    0    0 -0.00000000000E+00 -0.00000000000E+00 -0.34996269501E-01  0.35000000000E-01  0.51099999109E-03 0.  1.
       22    1    1    2    0    0  0.85280317881E-03 -0.11786057718E-02 -0.41279118524E-02  0.43767614841E-02  0.00000000000E+00 0.  1.
       22    1    1    2    0    0 -0.46140678788E-02 -0.68127591901E-02  0.33736480855E-01  0.34725400655E-01  0.00000000000E+00 0. -1.
       22    1    1    2    0    0  0.37612647000E-02  0.79913649618E-02 -0.29608569003E-01  0.30897837861E-01  0.00000000000E+00 0.  1.
</event>
<event>
 5   0  0.4146200E+04  0.9118800E+02  0.7546771E-02  0.1180000E+00
      -11   -1    0    0    0    0  0.00000000000E+00  0.00000000000E+00  0.34996269501E-01  0.35000000000E-01  0.51099999109E-03 0.  1.
       11   -1    0    0    0    0 -0.00000000000E+00 -0.00000000000E+00 -0.34996269501E-01  0.35000000000E-01  0.51099999109E-03 0. -1.
       22    1    1    2    0    0 -0.20192627983E-01 -0.36430637388E-02 -0.25837400805E-01  0.32993717866E-01  0.00000000000E+00 0. -1.
       22    1    1    2    0    0  0.10779436549E-02 -0.46220060028E-02  0.15049370920E-02  0.49789293692E-02  0.00000000000E+00 0. -1.
       22    1    1    2    0    0  0.19114684328E-01  0.82650697416E-02  0.24332463713E-01  0.32027352765E-01  0.00000000000E+00 0.  1.
</event>
<event>
 5   0  0.4146200E+04  0.9118800E+02  0.7546771E-02  0.1180000E+00
      -11   -1    0    0    0    0  0.00000000000E+00  0.00000000000E+00  0.34996269501E-01  0.35000000000E-01  0.51099999109E-03 0.  1.
       11   -1    0    0    0    0 -0.00000000000E+00 -0.00000000000E+00 -0.34996269501E-01  0.35000000000E-01  0.51099999109E-03 0. -1.
       22    1    1    2    0    0  0.33084257704E-02  0.28020766916E-02  0.11550776181E-01  0.12337655581E-01  0.00000000000E+00 0.  1.
       22    1    1    2    0    0  0.16835868371E-01  0.48190889918E-04 -0.27204157953E-01  0.31992420916E-01  0.00000000000E+00 0. -1.
       22    1    1    2    0    0 -0.20144294141E-01 -0.28502675815E-02  0.15653381772E-01  0.25669923503E-01  0.00000000000E+00 0.  1.
</event>
<event>
 5   0  0.4146200E+04  0.9118800E+02  0.7546771E-02  0.1180000E+00
      -11   -1    0    0    0    0  0.00000000000E+00  0.00000000000E+00  0.34996269501E-01  0.35000000000E-01  0.51099999109E-03 0. -1.
       11   -1    0    0    0    0 -0.00000000000E+00 -0.00000000000E+00 -0.34996269501E-01  0.35000000000E-01  0.51099999109E-03 0.  1.
       22    1    1    2    0    0  0.21871639678E-01 -0.25909701812E-02 -0.27048387769E-01  0.34881184463E-01  0.00000000000E+00 0.  1.
       22    1    1    2    0    0 -0.21881968365E-01  0.25766735585E-02  0.26041898652E-01  0.34112171897E-01  0.00000000000E+00 0. -1.
       22    1    1    2    0    0  0.10328686672E-04  0.14296622635E-04  0.10064891166E-02  0.10066436395E-02  0.00000000000E+00 0. -1.
</event>
<event>
 5   0  0.4146200E+04  0.9118800E+02  0.7546771E-02  0.1180000E+00
      -11   -1    0    0    0    0  0.00000000000E+00  0.00000000000E+00  0.34996269501E-01  0.35000000000E-01  0.51099999109E-03 0.  1.
       11   -1    0    0    0    0 -0.00000000000E+00 -0.00000000000E+00 -0.34996269501E-01  0.35000000000E-01  0.51099999109E-03 0. -1.
       22    1    1    2    0    0  0.59798062452E-04  0.15935948556E-03 -0.57361743712E-03  0.59833787953E-03  0.00000000000E+00 0. -1.
       22    1    1    2    0    0  0.73807271847E-02 -0.16886977930E-01  0.29727111734E-01  0.34976368157E-01  0.00000000000E+00 0.  1.
       22    1    1    2    0    0 -0.74405252472E-02  0.16727618444E-01 -0.29153494297E-01  0.34425293964E-01  0.00000000000E+00 0. -1.
</event>
<event>
 5   0  0.4146200E+04  0.9118800E+02  0.7546771E-02  0.1180000E+00
      -11   -1    0    0    0    0  0.00000000000E+00  0.00000000000E+00  0.34996269501E-01  0.35000000000E-01  0.51099999109E-03 0. -1.
       11   -1    0    0    0    0 -0.00000000000E+00 -0.00000000000E+00 -0.34996269501E-01  0.35000000000E-01  0.51099999109E-03 0.  1.
       22    1    1    2    0    0  0.50222766402E-03  0.30109075174E-03 -0.18286920852E-02  0.19201570274E-02  0.00000000000E+00 0.  1.
       22    1    1    2    0    0 -0.12837030704E-01  0.12328673050E-02  0.32511029896E-01  0.34975368247E-01  0.00000000000E+00 0. -1.
       22    1    1    2    0    0  0.12334803040E-01 -0.15339580567E-02 -0.30682337811E-01  0.33104474726E-01  0.00000000000E+00 0.  1.
</event>
<event>
 5   0  0.4146200E+04  0.9118800E+02  0.7546771E-02  0.1180000E+00
      -11   -1    0    0    0    0  0.00000000000E+00  0.00000000000E+00  0.34996269501E-01  0.35000000000E-01  0.51099999109E-03 0. -1.
       11   -1    0    0    0    0 -0.00000000000E+00 -0.00000000000E+00 -0.34996269501E-01  0.35000000000E-01  0.51099999109E-03 0.  1.
       22    1    1    2    0    0 -0.16879098917E-01  0.32488615468E-02  0.70082418331E-02  0.18562718960E-01  0.00000000000E+00 0. -1.
       22    1    1    2    0    0  0.17528933025E-01 -0.29579611869E-02 -0.26512181444E-01  0.31920350755E-01  0.00000000000E+00 0.  1.
       22    1    1    2    0    0 -0.64983410794E-03 -0.29090035994E-03  0.19503939611E-01  0.19516930285E-01  0.00000000000E+00 0. -1.
</event>
<event>
 5   0  0.4146200E+04  0.9118800E+02  0.7546771E-02  0.1180000E+00
      -11   -1    0    0    0    0  0.00000000000E+00  0.00000000000E+00  0.34996269501E-01  0.35000000000E-01  0.51099999109E-03 0. -1.
       11   -1    0    0    0    0 -0.00000000000E+00 -0.00000000000E+00 -0.34996269501E-01  0.35000000000E-01  0.51099999109E-03 0.  1.
       22    1    1    2    0    0  0.15530330589E-03 -0.18107218249E-02 -0.34506331878E-01  0.34554157092E-01  0.00000000000E+00 0.  1.
       22    1    1    2    0    0 -0.45193881281E-03  0.19323184756E-02  0.34889701462E-01  0.34946092363E-01  0.00000000000E+00 0. -1.
       22    1    1    2    0    0  0.29663550692E-03 -0.12159665064E-03 -0.38336958394E-03  0.49975054507E-03  0.00000000000E+00 0.  1.
</event>
<event>
 5   0  0.4146200E+04  0.9118800E+02  0.7546771E-02  0.1180000E+00
      -11   -1    0    0    0    0  0.00000000000E+00  0.00000000000E+00  0.34996269501E-01  0.35000000000E-01  0.51099999109E-03 0.  1.
       11   -1    0    0    0    0 -0.00000000000E+00 -0.00000000000E+00 -0.34996269501E-01  0.35000000000E-01  0.51099999109E-03 0. -1.
       22    1    1    2    0    0 -0.29374791563E-02 -0.27858909197E-03  0.37608348019E-02  0.47801960298E-02  0.00000000000E+00 0.  1.
       22    1    1    2    0    0  0.12822139203E-01  0.33921652206E-02 -0.32267904145E-01  0.34887414300E-01  0.00000000000E+00 0. -1.
       22    1    1    2    0    0 -0.98846600464E-02 -0.31135761286E-02  0.28507069343E-01  0.30332389670E-01  0.00000000000E+00 0.  1.
</event>
<event>
 5   0  0.4146200E+04  0.9118800E+02  0.7546771E-02  0.1180000E+00
      -11   -1    0    0    0    0  0.00000000000E+00  0.00000000000E+00  0.34996269501E-01  0.35000000000E-01  0.51099999109E-03 0. -1.
       11   -1    0    0    0    0 -0.00000000000E+00 -0.00000000000E+00 -0.34996269501E-01  0.35000000000E-01  0.51099999109E-03 0.  1.
       22    1    1    2    0    0  0.88232907519E-03 -0.55931469461E-03 -0.27797366927E-02  0.29695578131E-02  0.00000000000E+00 0. -1.
       22    1    1    2    0    0  0.18945466196E-01 -0.51916997254E-02 -0.25392226043E-01  0.32103731541E-01  0.00000000000E+00 0.  1.
       22    1    1    2    0    0 -0.19827795271E-01  0.57510144200E-02  0.28171962736E-01  0.34926710646E-01  0.00000000000E+00 0. -1.
</event>
<event>
 5   0  0.4146200E+04  0.9118800E+02  0.7546771E-02  0.1180000E+00
      -11   -1    0    0    0    0  0.00000000000E+00  0.00000000000E+00  0.34996269501E-01  0.35000000000E-01  0.51099999109E-03 0. -1.
       11   -1    0    0    0    0 -0.00000000000E+00 -0.00000000000E+00 -0.34996269501E-01  0.35000000000E-01  0.51099999109E-03 0.  1.
       22    1    1    2    0    0  0.57607488179E-02  0.12751224617E-01  0.22719335013E-01  0.26682356336E-01  0.00000000000E+00 0. -1.
       22    1    1    2    0    0 -0.81358723802E-02 -0.14598274044E-01 -0.30608718246E-01  0.34873996862E-01  0.00000000000E+00 0.  1.
       22    1    1    2    0    0  0.23751235624E-02  0.18470494270E-02  0.78893832331E-02  0.84436468023E-02  0.00000000000E+00 0.  1.
</event>
<event>
 5   0  0.4146200E+04  0.9118800E+02  0.7546771E-02  0.1180000E+00
      -11   -1    0    0    0    0  0.00000000000E+00  0.00000000000E+00  0.34996269501E-01  0.35000000000E-01  0.51099999109E-03 0. -1.
       11   -1    0    0    0    0 -0.00000000000E+00 -0.00000000000E+00 -0.34996269501E-01  0.35000000000E-01  0.51099999109E-03 0.  1.
       22    1    1    2    0    0  0.40413755402E-03 -0.26980839344E-03 -0.83018981771E-02  0.83161070865E-02  0.00000000000E+00 0. -1.
       22    1    1    2    0    0 -0.13276132585E-01  0.49741498242E-02 -0.23279673299E-01  0.27256945020E-01  0.00000000000E+00 0.  1.
       22    1    1    2    0    0  0.12871995031E-01 -0.47043414307E-02  0.31581571476E-01  0.34426947894E-01  0.00000000000E+00 0. -1.
</event>
<event>
 5   0  0.4146200E+04  0.9118800E+02  0.7546771E-02  0.1180000E+00
      -11   -1    0    0    0    0  0.00000000000E+00  0.00000000000E+00  0.34996269501E-01  0.35000000000E-01  0.51099999109E-03 0.  1.
       11   -1    0    0    0    0 -0.00000000000E+00 -0.00000000000E+00 -0.34996269501E-01  0.35000000000E-01  0.51099999109E-03 0. -1.
       22    1    1    2    0    0 -0.87488983685E-02 -0.77947250074E-02 -0.32582196545E-01  0.34625142488E-01  0.00000000000E+00 0. -1.
       22    1    1    2    0    0  0.89094227604E-02  0.77724107524E-02  0.32931603248E-01  0.34989693845E-01  0.00000000000E+00 0.  1.
       22    1    1    2    0    0 -0.16052439192E-03  0.22314255011E-04 -0.34940670321E-03  0.38516366733E-03  0.00000000000E+00 0. -1.
</event>
<event>
 5   0  0.4146200E+04  0.9118800E+02  0.7546771E-02  0.1180000E+00
      -11   -1    0    0    0    0  0.00000000000E+00  0.00000000000E+00  0.34996269501E-01  0.35000000000E-01  0.51099999109E-03 0. -1.
       11   -1    0    0    0    0 -0.00000000000E+00 -0.00000000000E+00 -0.34996269501E-01  0.35000000000E-01  0.51099999109E-03 0.  1.
       22    1    1    2    0    0 -0.11573114475E-02  0.24011324980E-02  0.16223749335E-01  0.16441254500E-01  0.00000000000E+00 0. -1.
       22    1    1    2    0    0 -0.72347049747E-02  0.96585055008E-02 -0.30667121618E-01  0.32956031814E-01  0.00000000000E+00 0.  1.
       22    1    1    2    0    0  0.83920164222E-02 -0.12059637999E-01  0.14443372283E-01  0.20602713685E-01  0.00000000000E+00 0. -1.
</event>
<event>
 5   0  0.4146200E+04  0.9118800E+02  0.7546771E-02  0.1180000E+00
      -11   -1    0    0    0    0  0.00000000000E+00  0.00000000000E+00  0.34996269501E-01  0.35000000000E-01  0.51099999109E-03 0.  1.
       11   -1    0    0    0    0 -0.00000000000E+00 -0.00000000000E+00 -0.34996269501E-01  0.35000000000E-01  0.51099999109E-03 0. -1.
       22    1    1    2    0    0 -0.71254610697E-03 -0.73243022599E-02  0.33915566416E-01  0.34704737009E-01  0.00000000000E+00 0.  1.
       22    1    1    2    0    0  0.15846296033E-02  0.25051975537E-02 -0.39846763093E-02  0.49663579263E-02  0.00000000000E+00 0. -1.
       22    1    1    2    0    0 -0.87208349636E-03  0.48191047063E-02 -0.29930890107E-01  0.30328905064E-01  0.00000000000E+00 0. -1.
</event>
<event>
 5   0  0.4146200E+04  0.9118800E+02  0.7546771E-02  0.1180000E+00
      -11   -1    0    0    0    0  0.00000000000E+00  0.00000000000E+00  0.34996269501E-01  0.35000000000E-01  0.51099999109E-03 0. -1.
       11   -1    0    0    0    0 -0.00000000000E+00 -0.00000000000E+00 -0.34996269501E-01  0.35000000000E-01  0.51099999109E-03 0.  1.
       22    1    1    2    0    0 -0.14902299024E-01  0.15144054566E-01  0.26891172121E-01  0.34271796611E-01  0.00000000000E+00 0. -1.
       22    1    1    2    0    0 -0.52137008498E-03  0.84185386230E-03 -0.21324797957E-03  0.10129261532E-02  0.00000000000E+00 0. -1.
       22    1    1    2    0    0  0.15423669109E-01 -0.15985908429E-01 -0.26677924141E-01  0.34715277236E-01  0.00000000000E+00 0.  1.
</event>
<event>
 5   0  0.4146200E+04  0.9118800E+02  0.7546771E-02  0.1180000E+00
      -11   -1    0    0    0    0  0.00000000000E+00  0.00000000000E+00  0.34996269501E-01  0.35000000000E-01  0.51099999109E-03 0. -1.
       11   -1    0    0    0    0 -0.00000000000E+00 -0.00000000000E+00 -0.34996269501E-01  0.35000000000E-01  0.51099999109E-03 0.  1.
       22    1    1    2    0    0 -0.25788894089E-02 -0.26624369234E-04 -0.32866715481E-01  0.32967747360E-01  0.00000000000E+00 0.  1.
       22    1    1    2    0    0  0.15605996116E-02  0.94015930711E-03  0.34698340899E-01  0.34746139812E-01  0.00000000000E+00 0. -1.
       22    1    1    2    0    0  0.10182897972E-02 -0.91353493788E-03 -0.18316254177E-02  0.22861128285E-02  0.00000000000E+00 0. -1.
</event>
<event>
 5   0  0.4146200E+04  0.9118800E+02  0.7546771E-02  0.1180000E+00
      -11   -1    0    0    0    0  0.00000000000E+00  0.00000000000E+00  0.34996269501E-01  0.35000000000E-01  0.51099999109E-03 0.  1.
       11   -1    0    0    0    0 -0.00000000000E+00 -0.00000000000E+00 -0.34996269501E-01  0.35000000000E-01  0.51099999109E-03 0. -1.
       22    1    1    2    0    0 -0.98943819619E-02  0.16519223695E-01 -0.20229111138E-01  0.27928488740E-01  0.00000000000E+00 0. -1.
       22    1    1    2    0    0  0.61406116588E-02 -0.13963768107E-01 -0.52945636228E-02  0.16147022489E-01  0.00000000000E+00 0.  1.
       22    1    1    2    0    0  0.37537703031E-02 -0.25554555879E-02  0.25523674760E-01  0.25924488771E-01  0.00000000000E+00 0.  1.
</event>
<event>
 5   0  0.4146200E+04  0.9118800E+02  0.7546771E-02  0.1180000E+00
      -11   -1    0    0    0    0  0.00000000000E+00  0.00000000000E+00  0.34996269501E-01  0.35000000000E-01  0.51099999109E-03 0. -1.
       11   -1    0    0    0    0 -0.00000000000E+00 -0.00000000000E+00 -0.34996269501E-01  0.35000000000E-01  0.51099999109E-03 0.  1.
       22    1    1    2    0    0 -0.12478355254E-01 -0.58467197543E-02  0.31633885414E-01  0.34505016855E-01  0.00000000000E+00 0. -1.
       22    1    1    2    0    0  0.12487235031E-01  0.58454650935E-02 -0.32148456536E-01  0.34980333882E-01  0.00000000000E+00 0.  1.
       22    1    1    2    0    0 -0.88797760743E-05  0.12546608427E-05  0.51457112161E-03  0.51464926289E-03  0.00000000000E+00 0.  1.
</event>
<event>
 5   0  0.4146200E+04  0.9118800E+02  0.7546771E-02  0.1180000E+00
      -11   -1    0    0    0    0  0.00000000000E+00  0.00000000000E+00  0.34996269501E-01  0.35000000000E-01  0.51099999109E-03 0. -1.
       11   -1    0    0    0    0 -0.00000000000E+00 -0.00000000000E+00 -0.34996269501E-01  0.35000000000E-01  0.51099999109E-03 0.  1.
       22    1    1    2    0    0  0.14442982119E-01  0.30192186374E-01 -0.94969546681E-02  0.34790228491E-01  0.00000000000E+00 0.  1.
       22    1    1    2    0    0 -0.17203543645E-03  0.85340880454E-04 -0.27943495822E-03  0.33906216708E-03  0.00000000000E+00 0.  1.
       22    1    1    2    0    0 -0.14270946683E-01 -0.30277527254E-01  0.97763896263E-02  0.34870709341E-01  0.00000000000E+00 0. -1.
</event>
<event>
 5   0  0.4146200E+04  0.9118800E+02  0.7546771E-02  0.1180000E+00
      -11   -1    0    0    0    0  0.00000000000E+00  0.00000000000E+00  0.34996269501E-01  0.35000000000E-01  0.51099999109E-03 0.  1.
       11   -1    0    0    0    0 -0.00000000000E+00 -0.00000000000E+00 -0.34996269501E-01  0.35000000000E-01  0.51099999109E-03 0. -1.
       22    1    1    2    0    0  0.12587747097E-01 -0.81259334436E-02 -0.26049016389E-01  0.30050514574E-01  0.00000000000E+00 0. -1.
       22    1    1    2    0    0 -0.12194623863E-01  0.42050132764E-02  0.31026423812E-01  0.33601041090E-01  0.00000000000E+00 0.  1.
       22    1    1    2    0    0 -0.39312323375E-03  0.39209201672E-02 -0.49774074227E-02  0.63484443359E-02  0.00000000000E+00 0. -1.
</event>
<event>
 5   0  0.4146200E+04  0.9118800E+02  0.7546771E-02  0.1180000E+00
      -11   -1    0    0    0    0  0.00000000000E+00  0.00000000000E+00  0.34996269501E-01  0.35000000000E-01  0.51099999109E-03 0. -1.
       11   -1    0    0    0    0 -0.00000000000E+00 -0.00000000000E+00 -0.34996269501E-01  0.35000000000E-01  0.51099999109E-03 0.  1.
       22    1    1    2    0    0  0.22099221276E-04 -0.10762965405E-03 -0.12101563785E-02  0.12151341401E-02  0.00000000000E+00 0. -1.
       22    1    1    2    0    0  0.11384511432E-01  0.40495621818E-02 -0.31596839994E-01  0.33828484330E-01  0.00000000000E+00 0.  1.
       22    1    1    2    0    0 -0.11406610654E-01 -0.39419325278E-02  0.32806996373E-01  0.34956381530E-01  0.00000000000E+00 0. -1.
</event>
<event>
 5   0  0.4146200E+04  0.9118800E+02  0.7546771E-02  0.1180000E+00
      -11   -1    0    0    0    0  0.00000000000E+00  0.00000000000E+00  0.34996269501E-01  0.35000000000E-01  0.51099999109E-03 0.  1.
       11   -1    0    0    0    0 -0.00000000000E+00 -0.00000000000E+00 -0.34996269501E-01  0.35000000000E-01  0.51099999109E-03 0. -1.
       22    1    1    2    0    0 -0.46463464851E-03  0.15426741241E-03  0.94604826417E-03  0.10652188082E-02  0.00000000000E+00 0. -1.
       22    1    1    2    0    0  0.13850266606E-01 -0.17775788222E-01  0.25777286418E-01  0.34238531321E-01  0.00000000000E+00 0.  1.
       22    1    1    2    0    0 -0.13385631957E-01  0.17621520810E-01 -0.26723334682E-01  0.34696249870E-01  0.00000000000E+00 0. -1.
</event>
<event>
 5   0  0.4146200E+04  0.9118800E+02  0.7546771E-02  0.1180000E+00
      -11   -1    0    0    0    0  0.00000000000E+00  0.00000000000E+00  0.34996269501E-01  0.35000000000E-01  0.51099999109E-03 0.  1.
       11   -1    0    0    0    0 -0.00000000000E+00 -0.00000000000E+00 -0.34996269501E-01  0.35000000000E-01  0.51099999109E-03 0. -1.
       22    1    1    2    0    0  0.10769229646E-01  0.63642361330E-02  0.32632915074E-01  0.34948346956E-01  0.00000000000E+00 0.  1.
       22    1    1    2    0    0 -0.10430821655E-01 -0.53571241223E-02 -0.29600691766E-01  0.31838683583E-01  0.00000000000E+00 0. -1.
       22    1    1    2    0    0 -0.33840799128E-03 -0.10071120107E-02 -0.30322233081E-02  0.32129694615E-02  0.00000000000E+00 0. -1.
</event>
<event>
 5   0  0.4146200E+04  0.9118800E+02  0.7546771E-02  0.1180000E+00
      -11   -1    0    0    0    0  0.00000000000E+00  0.00000000000E+00  0.34996269501E-01  0.35000000000E-01  0.51099999109E-03 0.  1.
       11   -1    0    0    0    0 -0.00000000000E+00 -0.00000000000E+00 -0.34996269501E-01  0.35000000000E-01  0.51099999109E-03 0. -1.
       22    1    1    2    0    0 -0.94382505579E-02  0.48978924731E-02  0.31221305897E-01  0.32982417531E-01  0.00000000000E+00 0.  1.
       22    1    1    2    0    0 -0.28552926374E-02  0.35150714803E-02 -0.11049177312E-01  0.11941220324E-01  0.00000000000E+00 0.  1.
       22    1    1    2    0    0  0.12293543195E-01 -0.84129639534E-02 -0.20172128585E-01  0.25076362145E-01  0.00000000000E+00 0. -1.
</event>
<event>
 5   0  0.4146200E+04  0.9118800E+02  0.7546771E-02  0.1180000E+00
      -11   -1    0    0    0    0  0.00000000000E+00  0.00000000000E+00  0.34996269501E-01  0.35000000000E-01  0.51099999109E-03 0.  1.
       11   -1    0    0    0    0 -0.00000000000E+00 -0.00000000000E+00 -0.34996269501E-01  0.35000000000E-01  0.51099999109E-03 0. -1.
       22    1    1    2    0    0 -0.88538159230E-02  0.12710406682E-01  0.31270878759E-01  0.34897168263E-01  0.00000000000E+00 0.  1.
       22    1    1    2    0    0  0.93791712373E-05  0.95261453669E-04 -0.15572417425E-02  0.15601809375E-02  0.00000000000E+00 0.  1.
       22    1    1    2    0    0  0.88444367518E-02 -0.12805668136E-01 -0.29713637017E-01  0.33542650799E-01  0.00000000000E+00 0. -1.
</event>
<event>
 5   0  0.4146200E+04  0.9118800E+02  0.7546771E-02  0.1180000E+00
      -11   -1    0    0    0    0  0.00000000000E+00  0.00000000000E+00  0.34996269501E-01  0.35000000000E-01  0.51099999109E-03 0.  1.
       11   -1    0    0    0    0 -0.00000000000E+00 -0.00000000000E+00 -0.34996269501E-01  0.35000000000E-01  0.51099999109E-03 0. -1.
       22    1    1    2    0    0  0.39355491558E-02 -0.46685160596E-02  0.27927378574E-01  0.28587096099E-01  0.00000000000E+00 0.  1.
       22    1    1    2    0    0  0.45602006261E-02  0.14903432601E-01 -0.21722595739E-01  0.26735349234E-01  0.00000000000E+00 0. -1.
       22    1    1    2    0    0 -0.84957497819E-02 -0.10234916542E-01 -0.62047828348E-02  0.14677554667E-01  0.00000000000E+00 0.  1.
</event>
<event>
 5   0  0.4146200E+04  0.9118800E+02  0.7546771E-02  0.1180000E+00
      -11   -1    0    0    0    0  0.00000000000E+00  0.00000000000E+00  0.34996269501E-01  0.35000000000E-01  0.51099999109E-03 0. -1.
       11   -1    0    0    0    0 -0.00000000000E+00 -0.00000000000E+00 -0.34996269501E-01  0.35000000000E-01  0.51099999109E-03 0.  1.
       22    1    1    2    0    0  0.19595576677E-02 -0.10183182439E-02 -0.32726180263E-01  0.32800605374E-01  0.00000000000E+00 0.  1.
       22    1    1    2    0    0 -0.11834547372E-02  0.40326541141E-03 -0.20542800331E-02  0.24048398204E-02  0.00000000000E+00 0. -1.
       22    1    1    2    0    0 -0.77610293041E-03  0.61505283252E-03  0.34780460296E-01  0.34794554806E-01  0.00000000000E+00 0. -1.
</event>
<event>
 5   0  0.4146200E+04  0.9118800E+02  0.7546771E-02  0.1180000E+00
      -11   -1    0    0    0    0  0.00000000000E+00  0.00000000000E+00  0.34996269501E-01  0.35000000000E-01  0.51099999109E-03 0. -1.
       11   -1    0    0    0    0 -0.00000000000E+00 -0.00000000000E+00 -0.34996269501E-01  0.35000000000E-01  0.51099999109E-03 0.  1.
       22    1    1    2    0    0  0.17429191508E-02 -0.30516392934E-01  0.15999815628E-01  0.34500465287E-01  0.00000000000E+00 0. -1.
       22    1    1    2    0    0  0.81749556599E-03  0.15298099676E-03 -0.15868319801E-02  0.17915741455E-02  0.00000000000E+00 0.  1.
       22    1    1    2    0    0 -0.25604147168E-02  0.30363411937E-01 -0.14412983648E-01  0.33707960568E-01  0.00000000000E+00 0.  1.
</event>
<event>
 5   0  0.4146200E+04  0.9118800E+02  0.7546771E-02  0.1180000E+00
      -11   -1    0    0    0    0  0.00000000000E+00  0.00000000000E+00  0.34996269501E-01  0.35000000000E-01  0.51099999109E-03 0. -1.
       11   -1    0    0    0    0 -0.00000000000E+00 -0.00000000000E+00 -0.34996269501E-01  0.35000000000E-01  0.51099999109E-03 0.  1.
       22    1    1    2    0    0 -0.94804262183E-02  0.50112483158E-02  0.73891912099E-03  0.10748818188E-01  0.00000000000E+00 0. -1.
       22    1    1    2    0    0  0.87108013225E-02 -0.50725950834E-02 -0.29142773055E-01  0.30836836769E-01  0.00000000000E+00 0.  1.
       22    1    1    2    0    0  0.76962489586E-03  0.61346767664E-04  0.28403853935E-01  0.28414345043E-01  0.00000000000E+00 0. -1.
</event>
<event>
 5   0  0.4146200E+04  0.9118800E+02  0.7546771E-02  0.1180000E+00
      -11   -1    0    0    0    0  0.00000000000E+00  0.00000000000E+00  0.34996269501E-01  0.35000000000E-01  0.51099999109E-03 0.  1.
       11   -1    0    0    0    0 -0.00000000000E+00 -0.00000000000E+00 -0.34996269501E-01  0.35000000000E-01  0.51099999109E-03 0. -1.
       22    1    1    2    0    0  0.56805249246E-02 -0.97878831362E-02 -0.28499002069E-01  0.30663726757E-01  0.00000000000E+00 0. -1.
       22    1    1    2    0    0 -0.11755273433E-01  0.10094994257E-01  0.29355278205E-01  0.33193790398E-01  0.00000000000E+00 0.  1.
       22    1    1    2    0    0  0.60747485080E-02 -0.30711112060E-03 -0.85627613576E-03  0.61424828447E-02  0.00000000000E+00 0.  1.
</event>
<event>
 5   0  0.4146200E+04  0.9118800E+02  0.7546771E-02  0.1180000E+00
      -11   -1    0    0    0    0  0.00000000000E+00  0.00000000000E+00  0.34996269501E-01  0.35000000000E-01  0.51099999109E-03 0. -1.
       11   -1    0    0    0    0 -0.00000000000E+00 -0.00000000000E+00 -0.34996269501E-01  0.35000000000E-01  0.51099999109E-03 0. -1.
       22    1    1    2    0    0  0.49608399018E-03 -0.53011786501E-03  0.34973472772E-01  0.34981008019E-01  0.00000000000E+00 0. -1.
       22    1    1    2    0    0 -0.48738484469E-03  0.67835799348E-03 -0.34680291021E-01  0.34690348785E-01  0.00000000000E+00 0. -1.
       22    1    1    2    0    0 -0.86991454919E-05 -0.14824012847E-03 -0.29318175143E-03  0.32864319588E-03  0.00000000000E+00 0.  1.
</event>
<event>
 5   0  0.4146200E+04  0.9118800E+02  0.7546771E-02  0.1180000E+00
      -11   -1    0    0    0    0  0.00000000000E+00  0.00000000000E+00  0.34996269501E-01  0.35000000000E-01  0.51099999109E-03 0. -1.
       11   -1    0    0    0    0 -0.00000000000E+00 -0.00000000000E+00 -0.34996269501E-01  0.35000000000E-01  0.51099999109E-03 0.  1.
       22    1    1    2    0    0 -0.65195894610E-02 -0.16635134612E-01  0.25142615936E-01  0.30844511447E-01  0.00000000000E+00 0. -1.
       22    1    1    2    0    0 -0.22204708518E-04 -0.11969566899E-03  0.44897694939E-02  0.44914196208E-02  0.00000000000E+00 0.  1.
       22    1    1    2    0    0  0.65417941695E-02  0.16754830281E-01 -0.29632385429E-01  0.34664068932E-01  0.00000000000E+00 0.  1.
</event>
<event>
 5   0  0.4146200E+04  0.9118800E+02  0.7546771E-02  0.1180000E+00
      -11   -1    0    0    0    0  0.00000000000E+00  0.00000000000E+00  0.34996269501E-01  0.35000000000E-01  0.51099999109E-03 0.  1.
       11   -1    0    0    0    0 -0.00000000000E+00 -0.00000000000E+00 -0.34996269501E-01  0.35000000000E-01  0.51099999109E-03 0. -1.
       22    1    1    2    0    0 -0.18233460966E-02 -0.97999692754E-02  0.37666476098E-02  0.10656060389E-01  0.00000000000E+00 0.  1.
       22    1    1    2    0    0 -0.10354303669E-01  0.62595628338E-02  0.25072668098E-01  0.27839404032E-01  0.00000000000E+00 0.  1.
       22    1    1    2    0    0  0.12177649766E-01  0.35404064416E-02 -0.28839315707E-01  0.31504535579E-01  0.00000000000E+00 0. -1.
</event>
<event>
 5   0  0.4146200E+04  0.9118800E+02  0.7546771E-02  0.1180000E+00
      -11   -1    0    0    0    0  0.00000000000E+00  0.00000000000E+00  0.34996269501E-01  0.35000000000E-01  0.51099999109E-03 0.  1.
       11   -1    0    0    0    0 -0.00000000000E+00 -0.00000000000E+00 -0.34996269501E-01  0.35000000000E-01  0.51099999109E-03 0. -1.
       22    1    1    2    0    0  0.16245357515E-01  0.13237535371E-02  0.30472775550E-01  0.34557980467E-01  0.00000000000E+00 0.  1.
       22    1    1    2    0    0 -0.17761500618E-03 -0.41397039768E-04  0.49658316221E-03  0.52901383944E-03  0.00000000000E+00 0.  1.
       22    1    1    2    0    0 -0.16067742509E-01 -0.12823564974E-02 -0.30969358712E-01  0.34913005694E-01  0.00000000000E+00 0. -1.
</event>
<event>
 5   0  0.4146200E+04  0.9118800E+02  0.7546771E-02  0.1180000E+00
      -11   -1    0    0    0    0  0.00000000000E+00  0.00000000000E+00  0.34996269501E-01  0.35000000000E-01  0.51099999109E-03 0. -1.
       11   -1    0    0    0    0 -0.00000000000E+00 -0.00000000000E+00 -0.34996269501E-01  0.35000000000E-01  0.51099999109E-03 0.  1.
       22    1    1    2    0    0  0.13544426579E-03 -0.43888427986E-03  0.34957475140E-01  0.34960492455E-01  0.00000000000E+00 0. -1.
       22    1    1    2    0    0 -0.50521011917E-03  0.48990459410E-03 -0.34063055018E-01  0.34070323757E-01  0.00000000000E+00 0.  1.
       22    1    1    2    0    0  0.36976585338E-03 -0.51020314242E-04 -0.89442012200E-03  0.96918378723E-03  0.00000000000E+00 0. -1.
</event>
<event>
 5   0  0.4146200E+04  0.9118800E+02  0.7546771E-02  0.1180000E+00
      -11   -1    0    0    0    0  0.00000000000E+00  0.00000000000E+00  0.34996269501E-01  0.35000000000E-01  0.51099999109E-03 0.  1.
       11   -1    0    0    0    0 -0.00000000000E+00 -0.00000000000E+00 -0.34996269501E-01  0.35000000000E-01  0.51099999109E-03 0. -1.
       22    1    1    2    0    0  0.79475777740E-03  0.14314168278E-02 -0.15700579452E-01  0.15785714719E-01  0.00000000000E+00 0. -1.
       22    1    1    2    0    0  0.10068664493E-02  0.10072825556E-01 -0.16842532752E-01  0.19650610785E-01  0.00000000000E+00 0. -1.
       22    1    1    2    0    0 -0.18016242267E-02 -0.11504242384E-01  0.32543112204E-01  0.34563674495E-01  0.00000000000E+00 0.  1.
</event>
<event>
 5   0  0.4146200E+04  0.9118800E+02  0.7546771E-02  0.1180000E+00
      -11   -1    0    0    0    0  0.00000000000E+00  0.00000000000E+00  0.34996269501E-01  0.35000000000E-01  0.51099999109E-03 0.  1.
       11   -1    0    0    0    0 -0.00000000000E+00 -0.00000000000E+00 -0.34996269501E-01  0.35000000000E-01  0.51099999109E-03 0. -1.
       22    1    1    2    0    0  0.21217729840E-02  0.11677854331E-01 -0.32901758020E-01  0.34977133719E-01  0.00000000000E+00 0. -1.
       22    1    1    2    0    0 -0.21749136267E-02 -0.11646162808E-01  0.32063462935E-01  0.34182290925E-01  0.00000000000E+00 0.  1.
       22    1    1    2    0    0  0.53140642638E-04 -0.31691522743E-04  0.83829508488E-03  0.84057535644E-03  0.00000000000E+00 0.  1.
</event>
<event>
 5   0  0.4146200E+04  0.9118800E+02  0.7546771E-02  0.1180000E+00
      -11   -1    0    0    0    0  0.00000000000E+00  0.00000000000E+00  0.34996269501E-01  0.35000000000E-01  0.51099999109E-03 0. -1.
       11   -1    0    0    0    0 -0.00000000000E+00 -0.00000000000E+00 -0.34996269501E-01  0.35000000000E-01  0.51099999109E-03 0.  1.
       22    1    1    2    0    0  0.15551291325E-01 -0.92149616244E-02 -0.23660083881E-01  0.29775119628E-01  0.00000000000E+00 0.  1.
       22    1    1    2    0    0 -0.14559023557E-01  0.17779361229E-01  0.21184883854E-01  0.31254922117E-01  0.00000000000E+00 0. -1.
       22    1    1    2    0    0 -0.99226776775E-03 -0.85643996047E-02  0.24752000270E-02  0.89699582544E-02  0.00000000000E+00 0. -1.
</event>
<event>
 5   0  0.4146200E+04  0.9118800E+02  0.7546771E-02  0.1180000E+00
      -11   -1    0    0    0    0  0.00000000000E+00  0.00000000000E+00  0.34996269501E-01  0.35000000000E-01  0.51099999109E-03 0. -1.
       11   -1    0    0    0    0 -0.00000000000E+00 -0.00000000000E+00 -0.34996269501E-01  0.35000000000E-01  0.51099999109E-03 0. -1.
       22    1    1    2    0    0  0.80175987269E-04 -0.26234200621E-03 -0.49223830347E-03  0.56351580684E-03  0.00000000000E+00 0. -1.
       22    1    1    2    0    0 -0.41897781520E-03  0.29812530469E-03 -0.34469375313E-01  0.34473210694E-01  0.00000000000E+00 0. -1.
       22    1    1    2    0    0  0.33880182793E-03 -0.35783298479E-04  0.34961613616E-01  0.34963273499E-01  0.00000000000E+00 0. -1.
</event>
<event>
 5   0  0.4146200E+04  0.9118800E+02  0.7546771E-02  0.1180000E+00
      -11   -1    0    0    0    0  0.00000000000E+00  0.00000000000E+00  0.34996269501E-01  0.35000000000E-01  0.51099999109E-03 0. -1.
       11   -1    0    0    0    0 -0.00000000000E+00 -0.00000000000E+00 -0.34996269501E-01  0.35000000000E-01  0.51099999109E-03 0.  1.
       22    1    1    2    0    0 -0.23144012969E-03 -0.17754080977E-02 -0.49347275749E-02  0.52494928027E-02  0.00000000000E+00 0.  1.
       22    1    1    2    0    0  0.96181125423E-03  0.18185883004E-01  0.29814873108E-01  0.34936772604E-01  0.00000000000E+00 0. -1.
       22    1    1    2    0    0 -0.73037112453E-03 -0.16410474906E-01 -0.24880145533E-01  0.29813734593E-01  0.00000000000E+00 0.  1.
</event>
<event>
 5   0  0.4146200E+04  0.9118800E+02  0.7546771E-02  0.1180000E+00
      -11   -1    0    0    0    0  0.00000000000E+00  0.00000000000E+00  0.34996269501E-01  0.35000000000E-01  0.51099999109E-03 0.  1.
       11   -1    0    0    0    0 -0.00000000000E+00 -0.00000000000E+00 -0.34996269501E-01  0.35000000000E-01  0.51099999109E-03 0. -1.
       22    1    1    2    0    0 -0.24513106525E-01  0.46166674624E-03  0.21350705406E-01  0.32510892775E-01  0.00000000000E+00 0.  1.
       22    1    1    2    0    0  0.45994604173E-03 -0.16880915925E-02  0.28513282340E-02  0.33453364978E-02  0.00000000000E+00 0. -1.
       22    1    1    2    0    0  0.24053160483E-01  0.12264248462E-02 -0.24202033640E-01  0.34143770727E-01  0.00000000000E+00 0. -1.
</event>
<event>
 5   0  0.4146200E+04  0.9118800E+02  0.7546771E-02  0.1180000E+00
      -11   -1    0    0    0    0  0.00000000000E+00  0.00000000000E+00  0.34996269501E-01  0.35000000000E-01  0.51099999109E-03 0.  1.
       11   -1    0    0    0    0 -0.00000000000E+00 -0.00000000000E+00 -0.34996269501E-01  0.35000000000E-01  0.51099999109E-03 0. -1.
       22    1    1    2    0    0 -0.31958252213E-02 -0.51129407964E-02 -0.23937586380E-02  0.64873371155E-02  0.00000000000E+00 0. -1.
       22    1    1    2    0    0 -0.72710701632E-02  0.12353779271E-01  0.29925406793E-01  0.33181535458E-01  0.00000000000E+00 0.  1.
       22    1    1    2    0    0  0.10466895384E-01 -0.72408384747E-02 -0.27531648155E-01  0.30331127426E-01  0.00000000000E+00 0. -1.
</event>
<event>
 5   0  0.4146200E+04  0.9118800E+02  0.7546771E-02  0.1180000E+00
      -11   -1    0    0    0    0  0.00000000000E+00  0.00000000000E+00  0.34996269501E-01  0.35000000000E-01  0.51099999109E-03 0.  1.
       11   -1    0    0    0    0 -0.00000000000E+00 -0.00000000000E+00 -0.34996269501E-01  0.35000000000E-01  0.51099999109E-03 0. -1.
       22    1    1    2    0    0  0.11592136383E-01 -0.47266082975E-02  0.31298674296E-01  0.33709426940E-01  0.00000000000E+00 0.  1.
       22    1    1    2    0    0 -0.21292937306E-02 -0.25041354944E-02 -0.57164246551E-03  0.33363695050E-02  0.00000000000E+00 0.  1.
       22    1    1    2    0    0 -0.94628426528E-02  0.72307437920E-02 -0.30727031830E-01  0.32954203555E-01  0.00000000000E+00 0. -1.
</event>
<event>
 5   0  0.4146200E+04  0.9118800E+02  0.7546771E-02  0.1180000E+00
      -11   -1    0    0    0    0  0.00000000000E+00  0.00000000000E+00  0.34996269501E-01  0.35000000000E-01  0.51099999109E-03 0.  1.
       11   -1    0    0    0    0 -0.00000000000E+00 -0.00000000000E+00 -0.34996269501E-01  0.35000000000E-01  0.51099999109E-03 0. -1.
       22    1    1    2    0    0  0.11672338217E-01 -0.15031275906E-01  0.28961868468E-01  0.34655051002E-01  0.00000000000E+00 0.  1.
       22    1    1    2    0    0 -0.11795423889E-01  0.15033867665E-01 -0.29302558132E-01  0.34982697363E-01  0.00000000000E+00 0. -1.
       22    1    1    2    0    0  0.12308567243E-03 -0.25917582967E-05  0.34068966386E-03  0.36225163496E-03  0.00000000000E+00 0. -1.
</event>
<event>
 5   0  0.4146200E+04  0.9118800E+02  0.7546771E-02  0.1180000E+00
      -11   -1    0    0    0    0  0.00000000000E+00  0.00000000000E+00  0.34996269501E-01  0.35000000000E-01  0.51099999109E-03 0.  1.
       11   -1    0    0    0    0 -0.00000000000E+00 -0.00000000000E+00 -0.34996269501E-01  0.35000000000E-01  0.51099999109E-03 0. -1.
       22    1    1    2    0    0 -0.22316686523E-01 -0.64290164171E-02 -0.25744230023E-01  0.34671777125E-01  0.00000000000E+00 0. -1.
       22    1    1    2    0    0  0.22527355646E-01  0.66364251549E-02  0.25926016302E-01  0.34981169400E-01  0.00000000000E+00 0.  1.
       22    1    1    2    0    0 -0.21066912286E-03 -0.20740873779E-03 -0.18178627909E-03  0.34705347586E-03  0.00000000000E+00 0.  1.
</event>
<event>
 5   0  0.4146200E+04  0.9118800E+02  0.7546771E-02  0.1180000E+00
      -11   -1    0    0    0    0  0.00000000000E+00  0.00000000000E+00  0.34996269501E-01  0.35000000000E-01  0.51099999109E-03 0.  1.
       11   -1    0    0    0    0 -0.00000000000E+00 -0.00000000000E+00 -0.34996269501E-01  0.35000000000E-01  0.51099999109E-03 0. -1.
       22    1    1    2    0    0  0.64390984739E-03  0.39924699259E-03 -0.33969446546E-01  0.33977894530E-01  0.00000000000E+00 0. -1.
       22    1    1    2    0    0  0.81479022770E-05 -0.46801548767E-03 -0.96972218950E-03  0.10767850342E-02  0.00000000000E+00 0.  1.
       22    1    1    2    0    0 -0.65205774966E-03  0.68768495077E-04  0.34939168736E-01  0.34945320436E-01  0.00000000000E+00 0.  1.
</event>
<event>
 5   0  0.4146200E+04  0.9118800E+02  0.7546771E-02  0.1180000E+00
      -11   -1    0    0    0    0  0.00000000000E+00  0.00000000000E+00  0.34996269501E-01  0.35000000000E-01  0.51099999109E-03 0.  1.
       11   -1    0    0    0    0 -0.00000000000E+00 -0.00000000000E+00 -0.34996269501E-01  0.35000000000E-01  0.51099999109E-03 0. -1.
       22    1    1    2    0    0 -0.19523846392E-02 -0.48576158079E-03  0.28404657096E-02  0.34808067370E-02  0.00000000000E+00 0.  1.
       22    1    1    2    0    0  0.20203368732E-01 -0.27584249887E-02  0.25502775011E-01  0.32652359024E-01  0.00000000000E+00 0.  1.
       22    1    1    2    0    0 -0.18250984093E-01  0.32441865695E-02 -0.28343240721E-01  0.33866834239E-01  0.00000000000E+00 0. -1.
</event>
<event>
 5   0  0.4146200E+04  0.9118800E+02  0.7546771E-02  0.1180000E+00
      -11   -1    0    0    0    0  0.00000000000E+00  0.00000000000E+00  0.34996269501E-01  0.35000000000E-01  0.51099999109E-03 0.  1.
       11   -1    0    0    0    0 -0.00000000000E+00 -0.00000000000E+00 -0.34996269501E-01  0.35000000000E-01  0.51099999109E-03 0. -1.
       22    1    1    2    0    0 -0.11951301310E-01 -0.17742978039E-01 -0.27355142877E-01  0.34726801098E-01  0.00000000000E+00 0. -1.
       22    1    1    2    0    0  0.12088882130E-01  0.17555533779E-01  0.24774106183E-01  0.32681710093E-01  0.00000000000E+00 0.  1.
       22    1    1    2    0    0 -0.13758082002E-03  0.18744426004E-03  0.25810366937E-02  0.25914888089E-02  0.00000000000E+00 0. -1.
</event>
<event>
 5   0  0.4146200E+04  0.9118800E+02  0.7546771E-02  0.1180000E+00
      -11   -1    0    0    0    0  0.00000000000E+00  0.00000000000E+00  0.34996269501E-01  0.35000000000E-01  0.51099999109E-03 0. -1.
       11   -1    0    0    0    0 -0.00000000000E+00 -0.00000000000E+00 -0.34996269501E-01  0.35000000000E-01  0.51099999109E-03 0.  1.
       22    1    1    2    0    0 -0.88921129416E-04  0.31776587099E-04 -0.15385739001E-02  0.15414688984E-02  0.00000000000E+00 0. -1.
       22    1    1    2    0    0  0.10734132570E-01 -0.71995203639E-02  0.32482182769E-01  0.34959217567E-01  0.00000000000E+00 0. -1.
       22    1    1    2    0    0 -0.10645211440E-01  0.71677437768E-02 -0.30943608869E-01  0.33499313534E-01  0.00000000000E+00 0.  1.
</event>
<event>
 5   0  0.4146200E+04  0.9118800E+02  0.7546771E-02  0.1180000E+00
      -11   -1    0    0    0    0  0.00000000000E+00  0.00000000000E+00  0.34996269501E-01  0.35000000000E-01  0.51099999109E-03 0. -1.
       11   -1    0    0    0    0 -0.00000000000E+00 -0.00000000000E+00 -0.34996269501E-01  0.35000000000E-01  0.51099999109E-03 0.  1.
       22    1    1    2    0    0  0.46614021329E-02 -0.16274424446E-01 -0.26335078545E-01  0.31306898966E-01  0.00000000000E+00 0.  1.
       22    1    1    2    0    0 -0.52565608153E-02  0.15200987213E-01  0.43340927334E-02  0.16657905141E-01  0.00000000000E+00 0. -1.
       22    1    1    2    0    0  0.59515868234E-03  0.10734372335E-02  0.22000985812E-01  0.22035195893E-01  0.00000000000E+00 0.  1.
</event>
<event>
 5   0  0.4146200E+04  0.9118800E+02  0.7546771E-02  0.1180000E+00
      -11   -1    0    0    0    0  0.00000000000E+00  0.00000000000E+00  0.34996269501E-01  0.35000000000E-01  0.51099999109E-03 0.  1.
       11   -1    0    0    0    0 -0.00000000000E+00 -0.00000000000E+00 -0.34996269501E-01  0.35000000000E-01  0.51099999109E-03 0.  1.
       22    1    1    2    0    0 -0.11213994556E-01 -0.10589682307E-01 -0.49295185847E-02  0.16192442643E-01  0.00000000000E+00 0. -1.
       22    1    1    2    0    0 -0.00000000000E+00 -0.00000000000E+00  0.26935782926E-01  0.26934323173E-01  0.00000000000E+00 0.  1.
       22    1    1    2    0    0  0.11213994556E-01  0.10589682307E-01 -0.22006264342E-01  0.26873234185E-01  0.00000000000E+00 0.  1.
</event>
<event>
 5   0  0.4146200E+04  0.9118800E+02  0.7546771E-02  0.1180000E+00
      -11   -1    0    0    0    0  0.00000000000E+00  0.00000000000E+00  0.34996269501E-01  0.35000000000E-01  0.51099999109E-03 0. -1.
       11   -1    0    0    0    0 -0.00000000000E+00 -0.00000000000E+00 -0.34996269501E-01  0.35000000000E-01  0.51099999109E-03 0.  1.
       22    1    1    2    0    0  0.17486130495E-02 -0.27336177126E-02  0.41361897630E-02  0.52572216189E-02  0.00000000000E+00 0.  1.
       22    1    1    2    0    0 -0.33150501579E-02 -0.17320784432E-01 -0.28273406524E-01  0.33322434596E-01  0.00000000000E+00 0.  1.
       22    1    1    2    0    0  0.15664371084E-02  0.20054402145E-01  0.24137216761E-01  0.31420343785E-01  0.00000000000E+00 0. -1.
</event>
<event>
 5   0  0.4146200E+04  0.9118800E+02  0.7546771E-02  0.1180000E+00
      -11   -1    0    0    0    0  0.00000000000E+00  0.00000000000E+00  0.34996269501E-01  0.35000000000E-01  0.51099999109E-03 0.  1.
       11   -1    0    0    0    0 -0.00000000000E+00 -0.00000000000E+00 -0.34996269501E-01  0.35000000000E-01  0.51099999109E-03 0.  1.
       22    1    1    2    0    0  0.17024415234E-03 -0.85691859603E-04 -0.34592601075E-01  0.34593126128E-01  0.00000000000E+00 0.  1.
       22    1    1    2    0    0 -0.00000000000E+00  0.00000000000E+00  0.34978553603E-01  0.34976425827E-01  0.00000000000E+00 0.  1.
       22    1    1    2    0    0 -0.17024415234E-03  0.85691859603E-04 -0.38595252738E-03  0.43044804518E-03  0.00000000000E+00 0. -1.
</event>
<event>
 5   0  0.4146200E+04  0.9118800E+02  0.7546771E-02  0.1180000E+00
      -11   -1    0    0    0    0  0.00000000000E+00  0.00000000000E+00  0.34996269501E-01  0.35000000000E-01  0.51099999109E-03 0.  1.
       11   -1    0    0    0    0 -0.00000000000E+00 -0.00000000000E+00 -0.34996269501E-01  0.35000000000E-01  0.51099999109E-03 0. -1.
       22    1    1    2    0    0 -0.98286346179E-02 -0.26770556251E-02  0.32801507767E-01  0.34346871722E-01  0.00000000000E+00 0.  1.
       22    1    1    2    0    0 -0.29478604516E-03  0.36970115637E-02 -0.10631618055E-01  0.11259933205E-01  0.00000000000E+00 0. -1.
       22    1    1    2    0    0  0.10123420663E-01 -0.10199559386E-02 -0.22169889713E-01  0.24393195074E-01  0.00000000000E+00 0. -1.
</event>
<event>
 5   0  0.4146200E+04  0.9118800E+02  0.7546771E-02  0.1180000E+00
      -11   -1    0    0    0    0  0.00000000000E+00  0.00000000000E+00  0.34996269501E-01  0.35000000000E-01  0.51099999109E-03 0.  1.
       11   -1    0    0    0    0 -0.00000000000E+00 -0.00000000000E+00 -0.34996269501E-01  0.35000000000E-01  0.51099999109E-03 0. -1.
       22    1    1    2    0    0  0.11837805987E-01  0.74681717877E-02  0.31707664343E-01  0.34659532866E-01  0.00000000000E+00 0.  1.
       22    1    1    2    0    0 -0.12471064329E-01 -0.73729579948E-02 -0.31492266986E-01  0.34664835713E-01  0.00000000000E+00 0. -1.
       22    1    1    2    0    0  0.63325834248E-03 -0.95213792881E-04 -0.21539735672E-03  0.67563142019E-03  0.00000000000E+00 0. -1.
</event>
<event>
 5   0  0.4146200E+04  0.9118800E+02  0.7546771E-02  0.1180000E+00
      -11   -1    0    0    0    0  0.00000000000E+00  0.00000000000E+00  0.34996269501E-01  0.35000000000E-01  0.51099999109E-03 0. -1.
       11   -1    0    0    0    0 -0.00000000000E+00 -0.00000000000E+00 -0.34996269501E-01  0.35000000000E-01  0.51099999109E-03 0.  1.
       22    1    1    2    0    0  0.32749814901E-03 -0.22422147106E-02 -0.34208905029E-02  0.41033247104E-02  0.00000000000E+00 0. -1.
       22    1    1    2    0    0  0.84372633364E-02  0.46490199899E-02  0.33300140760E-01  0.34665547365E-01  0.00000000000E+00 0. -1.
       22    1    1    2    0    0 -0.87647614854E-02 -0.24068052793E-02 -0.29879250257E-01  0.31231127925E-01  0.00000000000E+00 0.  1.
</event>
<event>
 5   0  0.4146200E+04  0.9118800E+02  0.7546771E-02  0.1180000E+00
      -11   -1    0    0    0    0  0.00000000000E+00  0.00000000000E+00  0.34996269501E-01  0.35000000000E-01  0.51099999109E-03 0. -1.
       11   -1    0    0    0    0 -0.00000000000E+00 -0.00000000000E+00 -0.34996269501E-01  0.35000000000E-01  0.51099999109E-03 0.  1.
       22    1    1    2    0    0 -0.38557765284E-02 -0.23742565404E-02 -0.33719532133E-01  0.34022212656E-01  0.00000000000E+00 0.  1.
       22    1    1    2    0    0 -0.53568515539E-03  0.86478654654E-04 -0.87558911159E-03  0.10300938966E-02  0.00000000000E+00 0. -1.
       22    1    1    2    0    0  0.43914616837E-02  0.22877778858E-02  0.34595121244E-01  0.34947693447E-01  0.00000000000E+00 0. -1.
</event>
<event>
 5   0  0.4146200E+04  0.9118800E+02  0.7546771E-02  0.1180000E+00
      -11   -1    0    0    0    0  0.00000000000E+00  0.00000000000E+00  0.34996269501E-01  0.35000000000E-01  0.51099999109E-03 0.  1.
       11   -1    0    0    0    0 -0.00000000000E+00 -0.00000000000E+00 -0.34996269501E-01  0.35000000000E-01  0.51099999109E-03 0. -1.
       22    1    1    2    0    0 -0.22369023782E-03 -0.24161079970E-03 -0.19460683060E-02  0.19737261595E-02  0.00000000000E+00 0. -1.
       22    1    1    2    0    0  0.10747260925E-01 -0.11422139424E-01  0.31144254913E-01  0.34870238033E-01  0.00000000000E+00 0.  1.
       22    1    1    2    0    0 -0.10523570687E-01  0.11663750224E-01 -0.29198186607E-01  0.33156035807E-01  0.00000000000E+00 0. -1.
</event>
<event>
 5   0  0.4146200E+04  0.9118800E+02  0.7546771E-02  0.1180000E+00
      -11   -1    0    0    0    0  0.00000000000E+00  0.00000000000E+00  0.34996269501E-01  0.35000000000E-01  0.51099999109E-03 0.  1.
       11   -1    0    0    0    0 -0.00000000000E+00 -0.00000000000E+00 -0.34996269501E-01  0.35000000000E-01  0.51099999109E-03 0. -1.
       22    1    1    2    0    0 -0.67763188672E-03  0.80139335284E-03  0.29762499591E-01  0.29780997267E-01  0.00000000000E+00 0.  1.
       22    1    1    2    0    0  0.12436014255E-01 -0.64396147996E-02 -0.14973911450E-01  0.20502222159E-01  0.00000000000E+00 0. -1.
       22    1    1    2    0    0 -0.11758382369E-01  0.56382214467E-02 -0.14788588141E-01  0.19716780574E-01  0.00000000000E+00 0.  1.
</event>
<event>
 5   0  0.4146200E+04  0.9118800E+02  0.7546771E-02  0.1180000E+00
      -11   -1    0    0    0    0  0.00000000000E+00  0.00000000000E+00  0.34996269501E-01  0.35000000000E-01  0.51099999109E-03 0.  1.
       11   -1    0    0    0    0 -0.00000000000E+00 -0.00000000000E+00 -0.34996269501E-01  0.35000000000E-01  0.51099999109E-03 0. -1.
       22    1    1    2    0    0 -0.73160420721E-03  0.58042606408E-03  0.25388703609E-01  0.25405873535E-01  0.00000000000E+00 0.  1.
       22    1    1    2    0    0  0.97307231319E-02  0.57021892680E-02  0.49607460135E-02  0.12321158068E-01  0.00000000000E+00 0.  1.
       22    1    1    2    0    0 -0.89991189247E-02 -0.62826153321E-02 -0.30349449622E-01  0.32272968398E-01  0.00000000000E+00 0. -1.
</event>
<event>
 5   0  0.4146200E+04  0.9118800E+02  0.7546771E-02  0.1180000E+00
      -11   -1    0    0    0    0  0.00000000000E+00  0.00000000000E+00  0.34996269501E-01  0.35000000000E-01  0.51099999109E-03 0.  1.
       11   -1    0    0    0    0 -0.00000000000E+00 -0.00000000000E+00 -0.34996269501E-01  0.35000000000E-01  0.51099999109E-03 0. -1.
       22    1    1    2    0    0 -0.19250600742E-04  0.54830717528E-04 -0.81319585416E-03  0.81526958145E-03  0.00000000000E+00 0.  1.
       22    1    1    2    0    0 -0.19155645768E-01  0.64838340605E-02  0.28457684915E-01  0.34911584032E-01  0.00000000000E+00 0.  1.
       22    1    1    2    0    0  0.19174896368E-01 -0.65386647781E-02 -0.27644489061E-01  0.34273146387E-01  0.00000000000E+00 0. -1.
</event>
<event>
 5   0  0.4146200E+04  0.9118800E+02  0.7546771E-02  0.1180000E+00
      -11   -1    0    0    0    0  0.00000000000E+00  0.00000000000E+00  0.34996269501E-01  0.35000000000E-01  0.51099999109E-03 0.  1.
       11   -1    0    0    0    0 -0.00000000000E+00 -0.00000000000E+00 -0.34996269501E-01  0.35000000000E-01  0.51099999109E-03 0. -1.
       22    1    1    2    0    0  0.12578717697E-02  0.24385254010E-02 -0.50370913016E-03  0.27896900201E-02  0.00000000000E+00 0.  1.
       22    1    1    2    0    0  0.80832620135E-02  0.14680195730E-01 -0.28024843850E-01  0.32653317508E-01  0.00000000000E+00 0. -1.
       22    1    1    2    0    0 -0.93411337832E-02 -0.17118721131E-01  0.28528552981E-01  0.34556992472E-01  0.00000000000E+00 0.  1.
</event>
<event>
 5   0  0.4146200E+04  0.9118800E+02  0.7546771E-02  0.1180000E+00
      -11   -1    0    0    0    0  0.00000000000E+00  0.00000000000E+00  0.34996269501E-01  0.35000000000E-01  0.51099999109E-03 0.  1.
       11   -1    0    0    0    0 -0.00000000000E+00 -0.00000000000E+00 -0.34996269501E-01  0.35000000000E-01  0.51099999109E-03 0. -1.
       22    1    1    2    0    0 -0.41702787076E-03 -0.24402934390E-03 -0.32382387149E-01  0.32385991726E-01  0.00000000000E+00 0. -1.
       22    1    1    2    0    0  0.13591685123E-03 -0.88892653093E-03 -0.25284800373E-02  0.26836309483E-02  0.00000000000E+00 0. -1.
       22    1    1    2    0    0  0.28111101952E-03  0.11329558748E-02  0.34910867187E-01  0.34930377326E-01  0.00000000000E+00 0.  1.
</event>
<event>
 5   0  0.4146200E+04  0.9118800E+02  0.7546771E-02  0.1180000E+00
      -11   -1    0    0    0    0  0.00000000000E+00  0.00000000000E+00  0.34996269501E-01  0.35000000000E-01  0.51099999109E-03 0. -1.
       11   -1    0    0    0    0 -0.00000000000E+00 -0.00000000000E+00 -0.34996269501E-01  0.35000000000E-01  0.51099999109E-03 0. -1.
       22    1    1    2    0    0  0.22212694663E-03 -0.43713803564E-03  0.34964791223E-01  0.34968229228E-01  0.00000000000E+00 0. -1.
       22    1    1    2    0    0 -0.11507212409E-03  0.71638395223E-03 -0.34240223488E-01  0.34247910185E-01  0.00000000000E+00 0. -1.
       22    1    1    2    0    0 -0.10705482254E-03 -0.27924591660E-03 -0.72456773535E-03  0.78386058714E-03  0.00000000000E+00 0.  1.
</event>
<event>
 5   0  0.4146200E+04  0.9118800E+02  0.7546771E-02  0.1180000E+00
      -11   -1    0    0    0    0  0.00000000000E+00  0.00000000000E+00  0.34996269501E-01  0.35000000000E-01  0.51099999109E-03 0.  1.
       11   -1    0    0    0    0 -0.00000000000E+00 -0.00000000000E+00 -0.34996269501E-01  0.35000000000E-01  0.51099999109E-03 0. -1.
       22    1    1    2    0    0 -0.17551159371E-01 -0.12250015459E-01 -0.26490563700E-01  0.34056659248E-01  0.00000000000E+00 0. -1.
       22    1    1    2    0    0  0.10973032041E-02  0.19563129332E-02 -0.86331803428E-03  0.24034459933E-02  0.00000000000E+00 0.  1.
       22    1    1    2    0    0  0.16453856166E-01  0.10293702526E-01  0.27353881735E-01  0.33539894758E-01  0.00000000000E+00 0.  1.
</event>
<event>
 5   0  0.4146200E+04  0.9118800E+02  0.7546771E-02  0.1180000E+00
      -11   -1    0    0    0    0  0.00000000000E+00  0.00000000000E+00  0.34996269501E-01  0.35000000000E-01  0.51099999109E-03 0. -1.
       11   -1    0    0    0    0 -0.00000000000E+00 -0.00000000000E+00 -0.34996269501E-01  0.35000000000E-01  0.51099999109E-03 0.  1.
       22    1    1    2    0    0  0.84667320374E-03  0.19154374383E-03  0.22631182952E-01  0.22647825201E-01  0.00000000000E+00 0. -1.
       22    1    1    2    0    0 -0.14845843319E-01  0.11979036675E-01 -0.13537894890E-02  0.19124045845E-01  0.00000000000E+00 0. -1.
       22    1    1    2    0    0  0.13999170115E-01 -0.12170580419E-01 -0.21277393463E-01  0.28228128954E-01  0.00000000000E+00 0.  1.
</event>
<event>
 5   0  0.4146200E+04  0.9118800E+02  0.7546771E-02  0.1180000E+00
      -11   -1    0    0    0    0  0.00000000000E+00  0.00000000000E+00  0.34996269501E-01  0.35000000000E-01  0.51099999109E-03 0.  1.
       11   -1    0    0    0    0 -0.00000000000E+00 -0.00000000000E+00 -0.34996269501E-01  0.35000000000E-01  0.51099999109E-03 0. -1.
       22    1    1    2    0    0  0.38125097093E-02  0.31905765972E-02 -0.30807213511E-01  0.31205759302E-01  0.00000000000E+00 0. -1.
       22    1    1    2    0    0 -0.14490118119E-02 -0.15040193776E-02 -0.36551751820E-02  0.42097523835E-02  0.00000000000E+00 0.  1.
       22    1    1    2    0    0 -0.23634978974E-02 -0.16865572196E-02  0.34462388693E-01  0.34584488315E-01  0.00000000000E+00 0.  1.
</event>
<event>
 5   0  0.4146200E+04  0.9118800E+02  0.7546771E-02  0.1180000E+00
      -11   -1    0    0    0    0  0.00000000000E+00  0.00000000000E+00  0.34996269501E-01  0.35000000000E-01  0.51099999109E-03 0.  1.
       11   -1    0    0    0    0 -0.00000000000E+00 -0.00000000000E+00 -0.34996269501E-01  0.35000000000E-01  0.51099999109E-03 0. -1.
       22    1    1    2    0    0 -0.19091542714E-02  0.88191613153E-03 -0.39699526175E-02  0.44925682944E-02  0.00000000000E+00 0. -1.
       22    1    1    2    0    0  0.16075980481E-02  0.19979076768E-02  0.34623045384E-01  0.34717881246E-01  0.00000000000E+00 0.  1.
       22    1    1    2    0    0  0.30155622332E-03 -0.28798238083E-02 -0.30653092767E-01  0.30789550459E-01  0.00000000000E+00 0. -1.
</event>
<event>
 5   0  0.4146200E+04  0.9118800E+02  0.7546771E-02  0.1180000E+00
      -11   -1    0    0    0    0  0.00000000000E+00  0.00000000000E+00  0.34996269501E-01  0.35000000000E-01  0.51099999109E-03 0. -1.
       11   -1    0    0    0    0 -0.00000000000E+00 -0.00000000000E+00 -0.34996269501E-01  0.35000000000E-01  0.51099999109E-03 0.  1.
       22    1    1    2    0    0 -0.13388730618E-01  0.85101688037E-03 -0.31255682816E-01  0.34013233389E-01  0.00000000000E+00 0.  1.
       22    1    1    2    0    0 -0.68628259003E-04 -0.11353749949E-03  0.14421532869E-01  0.14422143076E-01  0.00000000000E+00 0. -1.
       22    1    1    2    0    0  0.13457358877E-01 -0.73747938088E-03  0.16834149947E-01  0.21564623535E-01  0.00000000000E+00 0. -1.
</event>
<event>
 5   0  0.4146200E+04  0.9118800E+02  0.7546771E-02  0.1180000E+00
      -11   -1    0    0    0    0  0.00000000000E+00  0.00000000000E+00  0.34996269501E-01  0.35000000000E-01  0.51099999109E-03 0. -1.
       11   -1    0    0    0    0 -0.00000000000E+00 -0.00000000000E+00 -0.34996269501E-01  0.35000000000E-01  0.51099999109E-03 0.  1.
       22    1    1    2    0    0 -0.10251061352E-02 -0.20974615406E-01 -0.37549344085E-03  0.21003007626E-01  0.00000000000E+00 0. -1.
       22    1    1    2    0    0 -0.99076491821E-02  0.24805248459E-01  0.14768096077E-01  0.30521443694E-01  0.00000000000E+00 0.  1.
       22    1    1    2    0    0  0.10932755317E-01 -0.38306330528E-02 -0.14392602636E-01  0.18475548681E-01  0.00000000000E+00 0. -1.
</event>
<event>
 5   0  0.4146200E+04  0.9118800E+02  0.7546771E-02  0.1180000E+00
      -11   -1    0    0    0    0  0.00000000000E+00  0.00000000000E+00  0.34996269501E-01  0.35000000000E-01  0.51099999109E-03 0. -1.
       11   -1    0    0    0    0 -0.00000000000E+00 -0.00000000000E+00 -0.34996269501E-01  0.35000000000E-01  0.51099999109E-03 0.  1.
       22    1    1    2    0    0  0.23159716651E-02  0.10752959144E-01  0.24013496215E-01  0.26412835054E-01  0.00000000000E+00 0. -1.
       22    1    1    2    0    0 -0.56904572843E-02 -0.11679556216E-01 -0.32179350777E-01  0.34703082773E-01  0.00000000000E+00 0.  1.
       22    1    1    2    0    0  0.33744856193E-02  0.92659707203E-03  0.81658545618E-02  0.88840821728E-02  0.00000000000E+00 0.  1.
</event>
<event>
 5   0  0.4146200E+04  0.9118800E+02  0.7546771E-02  0.1180000E+00
      -11   -1    0    0    0    0  0.00000000000E+00  0.00000000000E+00  0.34996269501E-01  0.35000000000E-01  0.51099999109E-03 0.  1.
       11   -1    0    0    0    0 -0.00000000000E+00 -0.00000000000E+00 -0.34996269501E-01  0.35000000000E-01  0.51099999109E-03 0. -1.
       22    1    1    2    0    0  0.50510691187E-02 -0.41075786620E-02 -0.33877155201E-01  0.34497059965E-01  0.00000000000E+00 0. -1.
       22    1    1    2    0    0 -0.48246880137E-02  0.40762901493E-02  0.34377478548E-01  0.34952893831E-01  0.00000000000E+00 0.  1.
       22    1    1    2    0    0 -0.22638110491E-03  0.31288512711E-04 -0.50032334674E-03  0.55004620441E-03  0.00000000000E+00 0. -1.
</event>
<event>
 5   0  0.4146200E+04  0.9118800E+02  0.7546771E-02  0.1180000E+00
      -11   -1    0    0    0    0  0.00000000000E+00  0.00000000000E+00  0.34996269501E-01  0.35000000000E-01  0.51099999109E-03 0. -1.
       11   -1    0    0    0    0 -0.00000000000E+00 -0.00000000000E+00 -0.34996269501E-01  0.35000000000E-01  0.51099999109E-03 0.  1.
       22    1    1    2    0    0 -0.82128968248E-05 -0.12846963766E-05  0.42022111406E-03  0.42030332716E-03  0.00000000000E+00 0. -1.
       22    1    1    2    0    0  0.12732015412E-01 -0.87629236064E-02 -0.31379415510E-01  0.34979433448E-01  0.00000000000E+00 0.  1.
       22    1    1    2    0    0 -0.12723802515E-01  0.87642083028E-02  0.30959194396E-01  0.34600263225E-01  0.00000000000E+00 0. -1.
</event>
<event>
 5   0  0.4146200E+04  0.9118800E+02  0.7546771E-02  0.1180000E+00
      -11   -1    0    0    0    0  0.00000000000E+00  0.00000000000E+00  0.34996269501E-01  0.35000000000E-01  0.51099999109E-03 0. -1.
       11   -1    0    0    0    0 -0.00000000000E+00 -0.00000000000E+00 -0.34996269501E-01  0.35000000000E-01  0.51099999109E-03 0.  1.
       22    1    1    2    0    0  0.18254723430E-04 -0.30705210829E-04  0.40936463838E-03  0.41092025023E-03  0.00000000000E+00 0. -1.
       22    1    1    2    0    0 -0.19283941078E-01 -0.62063069042E-02  0.28086963708E-01  0.34630422452E-01  0.00000000000E+00 0. -1.
       22    1    1    2    0    0  0.19265686355E-01  0.62370121151E-02 -0.28496328346E-01  0.34958657298E-01  0.00000000000E+00 0.  1.
</event>
<event>
 5   0  0.4146200E+04  0.9118800E+02  0.7546771E-02  0.1180000E+00
      -11   -1    0    0    0    0  0.00000000000E+00  0.00000000000E+00  0.34996269501E-01  0.35000000000E-01  0.51099999109E-03 0. -1.
       11   -1    0    0    0    0 -0.00000000000E+00 -0.00000000000E+00 -0.34996269501E-01  0.35000000000E-01  0.51099999109E-03 0.  1.
       22    1    1    2    0    0  0.72116606088E-02 -0.51496304966E-02  0.33500020626E-01  0.34652245597E-01  0.00000000000E+00 0. -1.
       22    1    1    2    0    0  0.48823989876E-03  0.10691921609E-02 -0.13253540444E-01  0.13305558402E-01  0.00000000000E+00 0.  1.
       22    1    1    2    0    0 -0.76999005075E-02  0.40804383356E-02 -0.20246480181E-01  0.22042196001E-01  0.00000000000E+00 0.  1.
</event>
<event>
 5   0  0.4146200E+04  0.9118800E+02  0.7546771E-02  0.1180000E+00
      -11   -1    0    0    0    0  0.00000000000E+00  0.00000000000E+00  0.34996269501E-01  0.35000000000E-01  0.51099999109E-03 0. -1.
       11   -1    0    0    0    0 -0.00000000000E+00 -0.00000000000E+00 -0.34996269501E-01  0.35000000000E-01  0.51099999109E-03 0.  1.
       22    1    1    2    0    0 -0.11033717867E-01  0.11859506696E-01  0.25464814223E-01  0.30180251697E-01  0.00000000000E+00 0. -1.
       22    1    1    2    0    0  0.10262151613E-01 -0.11948505246E-01 -0.30712052582E-01  0.34515340172E-01  0.00000000000E+00 0.  1.
       22    1    1    2    0    0  0.77156625447E-03  0.88998549678E-04  0.52472383592E-02  0.53044081315E-02  0.00000000000E+00 0. -1.
</event>
<event>
 5   0  0.4146200E+04  0.9118800E+02  0.7546771E-02  0.1180000E+00
      -11   -1    0    0    0    0  0.00000000000E+00  0.00000000000E+00  0.34996269501E-01  0.35000000000E-01  0.51099999109E-03 0. -1.
       11   -1    0    0    0    0 -0.00000000000E+00 -0.00000000000E+00 -0.34996269501E-01  0.35000000000E-01  0.51099999109E-03 0.  1.
       22    1    1    2    0    0  0.14969035675E-01  0.15094650046E-02  0.29659604743E-01  0.33257219775E-01  0.00000000000E+00 0. -1.
       22    1    1    2    0    0  0.42965514280E-04  0.16646004897E-04  0.18268167498E-02  0.18273977570E-02  0.00000000000E+00 0. -1.
       22    1    1    2    0    0 -0.15012001190E-01 -0.15261110095E-02 -0.31486421492E-01  0.34915382468E-01  0.00000000000E+00 0.  1.
</event>
<event>
 5   0  0.4146200E+04  0.9118800E+02  0.7546771E-02  0.1180000E+00
      -11   -1    0    0    0    0  0.00000000000E+00  0.00000000000E+00  0.34996269501E-01  0.35000000000E-01  0.51099999109E-03 0. -1.
       11   -1    0    0    0    0 -0.00000000000E+00 -0.00000000000E+00 -0.34996269501E-01  0.35000000000E-01  0.51099999109E-03 0.  1.
       22    1    1    2    0    0 -0.17885531954E-04  0.41011147681E-04 -0.31133467417E-03  0.31453312358E-03  0.00000000000E+00 0.  1.
       22    1    1    2    0    0  0.97980732525E-02  0.80497452196E-02 -0.32295172256E-01  0.34695515396E-01  0.00000000000E+00 0.  1.
       22    1    1    2    0    0 -0.97801877205E-02 -0.80907563673E-02  0.32606506930E-01  0.34989951481E-01  0.00000000000E+00 0. -1.
</event>
<event>
 5   0  0.4146200E+04  0.9118800E+02  0.7546771E-02  0.1180000E+00
      -11   -1    0    0    0    0  0.00000000000E+00  0.00000000000E+00  0.34996269501E-01  0.35000000000E-01  0.51099999109E-03 0. -1.
       11   -1    0    0    0    0 -0.00000000000E+00 -0.00000000000E+00 -0.34996269501E-01  0.35000000000E-01  0.51099999109E-03 0.  1.
       22    1    1    2    0    0 -0.37623917928E-02  0.28141968609E-02  0.34280163659E-01  0.34600649076E-01  0.00000000000E+00 0. -1.
       22    1    1    2    0    0  0.58027039586E-03 -0.31965011812E-02 -0.29283322990E-01  0.29462982518E-01  0.00000000000E+00 0.  1.
       22    1    1    2    0    0  0.31821213969E-02  0.38230432030E-03 -0.49968406696E-02  0.59363684063E-02  0.00000000000E+00 0. -1.
</event>
<event>
 5   0  0.4146200E+04  0.9118800E+02  0.7546771E-02  0.1180000E+00
      -11   -1    0    0    0    0  0.00000000000E+00  0.00000000000E+00  0.34996269501E-01  0.35000000000E-01  0.51099999109E-03 0.  1.
       11   -1    0    0    0    0 -0.00000000000E+00 -0.00000000000E+00 -0.34996269501E-01  0.35000000000E-01  0.51099999109E-03 0. -1.
       22    1    1    2    0    0 -0.14433238759E-02 -0.14243186885E-02  0.35785465549E-02  0.41131329887E-02  0.00000000000E+00 0.  1.
       22    1    1    2    0    0 -0.14449565199E-01 -0.11119795034E-01 -0.28465479354E-01  0.33804190434E-01  0.00000000000E+00 0. -1.
       22    1    1    2    0    0  0.15892889075E-01  0.12544113722E-01  0.24886932799E-01  0.32082676577E-01  0.00000000000E+00 0.  1.
</event>
<event>
 5   0  0.4146200E+04  0.9118800E+02  0.7546771E-02  0.1180000E+00
      -11   -1    0    0    0    0  0.00000000000E+00  0.00000000000E+00  0.34996269501E-01  0.35000000000E-01  0.51099999109E-03 0.  1.
       11   -1    0    0    0    0 -0.00000000000E+00 -0.00000000000E+00 -0.34996269501E-01  0.35000000000E-01  0.51099999109E-03 0.  1.
       22    1    1    2    0    0 -0.00000000000E+00  0.00000000000E+00  0.27683474176E-01  0.27681758147E-01  0.00000000000E+00 0.  1.
       22    1    1    2    0    0 -0.45095260407E-02 -0.15114565412E-01 -0.10262447859E-01  0.18817644613E-01  0.00000000000E+00 0. -1.
       22    1    1    2    0    0  0.45095260407E-02  0.15114565412E-01 -0.17421026316E-01  0.23500597240E-01  0.00000000000E+00 0.  1.
</event>
<event>
 5   0  0.4146200E+04  0.9118800E+02  0.7546771E-02  0.1180000E+00
      -11   -1    0    0    0    0  0.00000000000E+00  0.00000000000E+00  0.34996269501E-01  0.35000000000E-01  0.51099999109E-03 0. -1.
       11   -1    0    0    0    0 -0.00000000000E+00 -0.00000000000E+00 -0.34996269501E-01  0.35000000000E-01  0.51099999109E-03 0.  1.
       22    1    1    2    0    0  0.47143786949E-02  0.24688199268E-02 -0.16341213183E-01  0.17185915355E-01  0.00000000000E+00 0.  1.
       22    1    1    2    0    0 -0.76320021248E-02 -0.53697696940E-03 -0.17339327092E-01  0.18952257510E-01  0.00000000000E+00 0.  1.
       22    1    1    2    0    0  0.29176234298E-02 -0.19318429574E-02  0.33680540275E-01  0.33861827135E-01  0.00000000000E+00 0. -1.
</event>
<event>
 5   0  0.4146200E+04  0.9118800E+02  0.7546771E-02  0.1180000E+00
      -11   -1    0    0    0    0  0.00000000000E+00  0.00000000000E+00  0.34996269501E-01  0.35000000000E-01  0.51099999109E-03 0.  1.
       11   -1    0    0    0    0 -0.00000000000E+00 -0.00000000000E+00 -0.34996269501E-01  0.35000000000E-01  0.51099999109E-03 0. -1.
       22    1    1    2    0    0  0.54981173658E-03  0.11789442350E-02 -0.84892778959E-03  0.15533450508E-02  0.00000000000E+00 0. -1.
       22    1    1    2    0    0  0.87464058759E-02 -0.16664789498E-01 -0.28400116997E-01  0.34070243177E-01  0.00000000000E+00 0. -1.
       22    1    1    2    0    0 -0.92962176125E-02  0.15485845263E-01  0.29249044786E-01  0.34376411772E-01  0.00000000000E+00 0.  1.
</event>
<event>
 5   0  0.4146200E+04  0.9118800E+02  0.7546771E-02  0.1180000E+00
      -11   -1    0    0    0    0  0.00000000000E+00  0.00000000000E+00  0.34996269501E-01  0.35000000000E-01  0.51099999109E-03 0. -1.
       11   -1    0    0    0    0 -0.00000000000E+00 -0.00000000000E+00 -0.34996269501E-01  0.35000000000E-01  0.51099999109E-03 0.  1.
       22    1    1    2    0    0 -0.16655654443E-01  0.84467929735E-04  0.30753172001E-01  0.34973926687E-01  0.00000000000E+00 0. -1.
       22    1    1    2    0    0  0.13130924167E-02 -0.24193014581E-03 -0.16186042736E-02  0.20982425228E-02  0.00000000000E+00 0. -1.
       22    1    1    2    0    0  0.15342562027E-01  0.15746221608E-03 -0.29134567728E-01  0.32927830790E-01  0.00000000000E+00 0.  1.
</event>
<event>
 5   0  0.4146200E+04  0.9118800E+02  0.7546771E-02  0.1180000E+00
      -11   -1    0    0    0    0  0.00000000000E+00  0.00000000000E+00  0.34996269501E-01  0.35000000000E-01  0.51099999109E-03 0.  1.
       11   -1    0    0    0    0 -0.00000000000E+00 -0.00000000000E+00 -0.34996269501E-01  0.35000000000E-01  0.51099999109E-03 0. -1.
       22    1    1    2    0    0 -0.12181703518E-01  0.36336990375E-02  0.29590517361E-01  0.32205533484E-01  0.00000000000E+00 0.  1.
       22    1    1    2    0    0  0.12214170484E-01 -0.37663598168E-02 -0.32478595844E-01  0.34903160529E-01  0.00000000000E+00 0. -1.
       22    1    1    2    0    0 -0.32466966025E-04  0.13266077929E-03  0.28880784832E-02  0.28913059872E-02  0.00000000000E+00 0. -1.
</event>
<event>
 5   0  0.4146200E+04  0.9118800E+02  0.7546771E-02  0.1180000E+00
      -11   -1    0    0    0    0  0.00000000000E+00  0.00000000000E+00  0.34996269501E-01  0.35000000000E-01  0.51099999109E-03 0. -1.
       11   -1    0    0    0    0 -0.00000000000E+00 -0.00000000000E+00 -0.34996269501E-01  0.35000000000E-01  0.51099999109E-03 0.  1.
       22    1    1    2    0    0  0.29780685479E-02 -0.19088823919E-01 -0.28780442974E-01  0.34663611882E-01  0.00000000000E+00 0.  1.
       22    1    1    2    0    0 -0.27780081262E-02  0.19123725670E-01  0.25230746162E-01  0.31780886780E-01  0.00000000000E+00 0. -1.
       22    1    1    2    0    0 -0.20006042172E-03 -0.34901750601E-04  0.35496968122E-02  0.35555013378E-02  0.00000000000E+00 0. -1.
</event>
<event>
 5   0  0.4146200E+04  0.9118800E+02  0.7546771E-02  0.1180000E+00
      -11   -1    0    0    0    0  0.00000000000E+00  0.00000000000E+00  0.34996269501E-01  0.35000000000E-01  0.51099999109E-03 0.  1.
       11   -1    0    0    0    0 -0.00000000000E+00 -0.00000000000E+00 -0.34996269501E-01  0.35000000000E-01  0.51099999109E-03 0. -1.
       22    1    1    2    0    0  0.10382175644E-01 -0.14771753915E-01 -0.29956135971E-01  0.34976626012E-01  0.00000000000E+00 0. -1.
       22    1    1    2    0    0 -0.59803810512E-05 -0.29192027479E-05  0.32616768953E-03  0.32623557193E-03  0.00000000000E+00 0.  1.
       22    1    1    2    0    0 -0.10376195263E-01  0.14774673118E-01  0.29629968282E-01  0.34697138416E-01  0.00000000000E+00 0.  1.
</event>
<event>
 5   0  0.4146200E+04  0.9118800E+02  0.7546771E-02  0.1180000E+00
      -11   -1    0    0    0    0  0.00000000000E+00  0.00000000000E+00  0.34996269501E-01  0.35000000000E-01  0.51099999109E-03 0. -1.
       11   -1    0    0    0    0 -0.00000000000E+00 -0.00000000000E+00 -0.34996269501E-01  0.35000000000E-01  0.51099999109E-03 0.  1.
       22    1    1    2    0    0  0.97190788348E-02 -0.57357181050E-02  0.31413286107E-01  0.33378937964E-01  0.00000000000E+00 0. -1.
       22    1    1    2    0    0 -0.10873332340E-01  0.53288788756E-02 -0.32685107967E-01  0.34856026581E-01  0.00000000000E+00 0.  1.
       22    1    1    2    0    0  0.11542535049E-02  0.40683922947E-03  0.12718218596E-02  0.17650354543E-02  0.00000000000E+00 0. -1.
</event>
<event>
 5   0  0.4146200E+04  0.9118800E+02  0.7546771E-02  0.1180000E+00
      -11   -1    0    0    0    0  0.00000000000E+00  0.00000000000E+00  0.34996269501E-01  0.35000000000E-01  0.51099999109E-03 0. -1.
       11   -1    0    0    0    0 -0.00000000000E+00 -0.00000000000E+00 -0.34996269501E-01  0.35000000000E-01  0.51099999109E-03 0.  1.
       22    1    1    2    0    0 -0.22535641885E-02 -0.14150522348E-01  0.31551694585E-01  0.34652925785E-01  0.00000000000E+00 0. -1.
       22    1    1    2    0    0  0.13356148557E-02  0.14583687097E-01 -0.30729947620E-01  0.34041114510E-01  0.00000000000E+00 0.  1.
       22    1    1    2    0    0  0.91794933273E-03 -0.43316474895E-03 -0.82174696462E-03  0.13059597050E-02  0.00000000000E+00 0.  1.
</event>
<event>
 5   0  0.4146200E+04  0.9118800E+02  0.7546771E-02  0.1180000E+00
      -11   -1    0    0    0    0  0.00000000000E+00  0.00000000000E+00  0.34996269501E-01  0.35000000000E-01  0.51099999109E-03 0. -1.
       11   -1    0    0    0    0 -0.00000000000E+00 -0.00000000000E+00 -0.34996269501E-01  0.35000000000E-01  0.51099999109E-03 0.  1.
       22    1    1    2    0    0  0.33379658593E-04  0.12585967859E-02  0.34940439298E-01  0.34963115971E-01  0.00000000000E+00 0. -1.
       22    1    1    2    0    0  0.24350374086E-03 -0.11922387522E-02 -0.34437120530E-01  0.34458612824E-01  0.00000000000E+00 0.  1.
       22    1    1    2    0    0 -0.27688339945E-03 -0.66358033640E-04 -0.50331876750E-03  0.57827120561E-03  0.00000000000E+00 0.  1.
</event>
<event>
 5   0  0.4146200E+04  0.9118800E+02  0.7546771E-02  0.1180000E+00
      -11   -1    0    0    0    0  0.00000000000E+00  0.00000000000E+00  0.34996269501E-01  0.35000000000E-01  0.51099999109E-03 0.  1.
       11   -1    0    0    0    0 -0.00000000000E+00 -0.00000000000E+00 -0.34996269501E-01  0.35000000000E-01  0.51099999109E-03 0. -1.
       22    1    1    2    0    0 -0.88856709697E-05  0.20764185737E-03  0.37608894937E-03  0.42969407015E-03  0.00000000000E+00 0.  1.
       22    1    1    2    0    0  0.16963693859E-01 -0.67789117186E-02  0.29439759023E-01  0.34647077290E-01  0.00000000000E+00 0.  1.
       22    1    1    2    0    0 -0.16954808188E-01  0.65712698612E-02 -0.29815847972E-01  0.34923228639E-01  0.00000000000E+00 0. -1.
</event>
<event>
 5   0  0.4146200E+04  0.9118800E+02  0.7546771E-02  0.1180000E+00
      -11   -1    0    0    0    0  0.00000000000E+00  0.00000000000E+00  0.34996269501E-01  0.35000000000E-01  0.51099999109E-03 0. -1.
       11   -1    0    0    0    0 -0.00000000000E+00 -0.00000000000E+00 -0.34996269501E-01  0.35000000000E-01  0.51099999109E-03 0.  1.
       22    1    1    2    0    0  0.49718844144E-03 -0.36566343804E-03  0.32585672395E-03  0.69791740254E-03  0.00000000000E+00 0. -1.
       22    1    1    2    0    0  0.14870748926E-01  0.17175937246E-01  0.25975793878E-01  0.34509330064E-01  0.00000000000E+00 0. -1.
       22    1    1    2    0    0 -0.15367937368E-01 -0.16810273808E-01 -0.26301650602E-01  0.34792752533E-01  0.00000000000E+00 0.  1.
</event>
<event>
 5   0  0.4146200E+04  0.9118800E+02  0.7546771E-02  0.1180000E+00
      -11   -1    0    0    0    0  0.00000000000E+00  0.00000000000E+00  0.34996269501E-01  0.35000000000E-01  0.51099999109E-03 0. -1.
       11   -1    0    0    0    0 -0.00000000000E+00 -0.00000000000E+00 -0.34996269501E-01  0.35000000000E-01  0.51099999109E-03 0.  1.
       22    1    1    2    0    0  0.15447618384E-01 -0.11280658829E-03 -0.30156812187E-01  0.33883254866E-01  0.00000000000E+00 0.  1.
       22    1    1    2    0    0  0.35447771680E-03  0.46332757287E-04  0.12166563046E-01  0.12171814061E-01  0.00000000000E+00 0.  1.
       22    1    1    2    0    0 -0.15802096101E-01  0.66473831001E-04  0.17990249140E-01  0.23944931073E-01  0.00000000000E+00 0. -1.
</event>
<event>
 5   0  0.4146200E+04  0.9118800E+02  0.7546771E-02  0.1180000E+00
      -11   -1    0    0    0    0  0.00000000000E+00  0.00000000000E+00  0.34996269501E-01  0.35000000000E-01  0.51099999109E-03 0. -1.
       11   -1    0    0    0    0 -0.00000000000E+00 -0.00000000000E+00 -0.34996269501E-01  0.35000000000E-01  0.51099999109E-03 0.  1.
       22    1    1    2    0    0 -0.18143051035E-01  0.46184782940E-02 -0.27717645925E-01  0.33447997522E-01  0.00000000000E+00 0.  1.
       22    1    1    2    0    0  0.17805351239E-01 -0.43396406902E-02  0.29493131295E-01  0.34723303525E-01  0.00000000000E+00 0. -1.
       22    1    1    2    0    0  0.33769979605E-03 -0.27883760380E-03 -0.17754853703E-02  0.18286989533E-02  0.00000000000E+00 0.  1.
</event>
<event>
 5   0  0.4146200E+04  0.9118800E+02  0.7546771E-02  0.1180000E+00
      -11   -1    0    0    0    0  0.00000000000E+00  0.00000000000E+00  0.34996269501E-01  0.35000000000E-01  0.51099999109E-03 0.  1.
       11   -1    0    0    0    0 -0.00000000000E+00 -0.00000000000E+00 -0.34996269501E-01  0.35000000000E-01  0.51099999109E-03 0.  1.
       22    1    1    2    0    0 -0.25896250349E-03 -0.59540484313E-03  0.34591009938E-01  0.34597103015E-01  0.00000000000E+00 0.  1.
       22    1    1    2    0    0  0.27433815187E-03 -0.29016503479E-02 -0.68772188146E-02  0.74693356322E-02  0.00000000000E+00 0. -1.
       22    1    1    2    0    0 -0.15375648382E-04  0.34970551910E-02 -0.27713791123E-01  0.27933561353E-01  0.00000000000E+00 0.  1.
</event>
<event>
 5   0  0.4146200E+04  0.9118800E+02  0.7546771E-02  0.1180000E+00
      -11   -1    0    0    0    0  0.00000000000E+00  0.00000000000E+00  0.34996269501E-01  0.35000000000E-01  0.51099999109E-03 0. -1.
       11   -1    0    0    0    0 -0.00000000000E+00 -0.00000000000E+00 -0.34996269501E-01  0.35000000000E-01  0.51099999109E-03 0.  1.
       22    1    1    2    0    0  0.47168555152E-06  0.10267524247E-03  0.60547784095E-03  0.61412201050E-03  0.00000000000E+00 0. -1.
       22    1    1    2    0    0  0.16691966657E-01  0.10312693117E-01  0.28289798103E-01  0.34427983777E-01  0.00000000000E+00 0. -1.
       22    1    1    2    0    0 -0.16692438342E-01 -0.10415368360E-01 -0.28895275944E-01  0.34957894213E-01  0.00000000000E+00 0.  1.
</event>
<event>
 5   0  0.4146200E+04  0.9118800E+02  0.7546771E-02  0.1180000E+00
      -11   -1    0    0    0    0  0.00000000000E+00  0.00000000000E+00  0.34996269501E-01  0.35000000000E-01  0.51099999109E-03 0.  1.
       11   -1    0    0    0    0 -0.00000000000E+00 -0.00000000000E+00 -0.34996269501E-01  0.35000000000E-01  0.51099999109E-03 0. -1.
       22    1    1    2    0    0 -0.86777899959E-03 -0.24014074408E-03  0.34977946938E-01  0.34989533863E-01  0.00000000000E+00 0.  1.
       22    1    1    2    0    0  0.91368463409E-03  0.13911568537E-03 -0.34683377247E-01  0.34695688926E-01  0.00000000000E+00 0. -1.
       22    1    1    2    0    0 -0.45905634498E-04  0.10102505871E-03 -0.29456969117E-03  0.31477721125E-03  0.00000000000E+00 0. -1.
</event>
<event>
 5   0  0.4146200E+04  0.9118800E+02  0.7546771E-02  0.1180000E+00
      -11   -1    0    0    0    0  0.00000000000E+00  0.00000000000E+00  0.34996269501E-01  0.35000000000E-01  0.51099999109E-03 0.  1.
       11   -1    0    0    0    0 -0.00000000000E+00 -0.00000000000E+00 -0.34996269501E-01  0.35000000000E-01  0.51099999109E-03 0. -1.
       22    1    1    2    0    0 -0.16332436244E-01  0.74174549854E-02 -0.30030151490E-01  0.34979667104E-01  0.00000000000E+00 0. -1.
       22    1    1    2    0    0  0.70934796347E-04 -0.19429600426E-03  0.53567281231E-03  0.57421950894E-03  0.00000000000E+00 0. -1.
       22    1    1    2    0    0  0.16261501448E-01 -0.72231589811E-02  0.29494478678E-01  0.34446113388E-01  0.00000000000E+00 0.  1.
</event>
<event>
 5   0  0.4146200E+04  0.9118800E+02  0.7546771E-02  0.1180000E+00
      -11   -1    0    0    0    0  0.00000000000E+00  0.00000000000E+00  0.34996269501E-01  0.35000000000E-01  0.51099999109E-03 0. -1.
       11   -1    0    0    0    0 -0.00000000000E+00 -0.00000000000E+00 -0.34996269501E-01  0.35000000000E-01  0.51099999109E-03 0.  1.
       22    1    1    2    0    0  0.59715703033E-04  0.56143123264E-05 -0.45585185562E-03  0.45978081731E-03  0.00000000000E+00 0. -1.
       22    1    1    2    0    0  0.22938112903E-01 -0.34729038270E-02 -0.25644340239E-01  0.34581068098E-01  0.00000000000E+00 0.  1.
       22    1    1    2    0    0 -0.22997828606E-01  0.34672895147E-02  0.26100192095E-01  0.34959151084E-01  0.00000000000E+00 0. -1.
</event>
<event>
 5   0  0.4146200E+04  0.9118800E+02  0.7546771E-02  0.1180000E+00
      -11   -1    0    0    0    0  0.00000000000E+00  0.00000000000E+00  0.34996269501E-01  0.35000000000E-01  0.51099999109E-03 0. -1.
       11   -1    0    0    0    0 -0.00000000000E+00 -0.00000000000E+00 -0.34996269501E-01  0.35000000000E-01  0.51099999109E-03 0.  1.
       22    1    1    2    0    0 -0.14912593051E-01  0.27347013650E-02 -0.29240977810E-01  0.32937802087E-01  0.00000000000E+00 0.  1.
       22    1    1    2    0    0 -0.27071155732E-02  0.87986214212E-03  0.13833053091E-03  0.28498714798E-02  0.00000000000E+00 0. -1.
       22    1    1    2    0    0  0.17619708624E-01 -0.36145635071E-02  0.29102647279E-01  0.34212326433E-01  0.00000000000E+00 0. -1.
</event>
<event>
 5   0  0.4146200E+04  0.9118800E+02  0.7546771E-02  0.1180000E+00
      -11   -1    0    0    0    0  0.00000000000E+00  0.00000000000E+00  0.34996269501E-01  0.35000000000E-01  0.51099999109E-03 0. -1.
       11   -1    0    0    0    0 -0.00000000000E+00 -0.00000000000E+00 -0.34996269501E-01  0.35000000000E-01  0.51099999109E-03 0.  1.
       22    1    1    2    0    0  0.49883237552E-02  0.81261343289E-02 -0.32448722687E-01  0.33820659914E-01  0.00000000000E+00 0.  1.
       22    1    1    2    0    0  0.53420305821E-03  0.14132831552E-04 -0.10974696497E-02  0.12206605901E-02  0.00000000000E+00 0.  1.
       22    1    1    2    0    0 -0.55225268134E-02 -0.81402671605E-02  0.33546192336E-01  0.34958679496E-01  0.00000000000E+00 0. -1.
</event>
<event>
 5   0  0.4146200E+04  0.9118800E+02  0.7546771E-02  0.1180000E+00
      -11   -1    0    0    0    0  0.00000000000E+00  0.00000000000E+00  0.34996269501E-01  0.35000000000E-01  0.51099999109E-03 0. -1.
       11   -1    0    0    0    0 -0.00000000000E+00 -0.00000000000E+00 -0.34996269501E-01  0.35000000000E-01  0.51099999109E-03 0.  1.
       22    1    1    2    0    0 -0.90884499931E-02 -0.13265659654E-01 -0.30949267590E-01  0.34877425560E-01  0.00000000000E+00 0.  1.
       22    1    1    2    0    0  0.34017992825E-03 -0.71089583550E-06  0.93723102693E-05  0.34030975472E-03  0.00000000000E+00 0.  1.
       22    1    1    2    0    0  0.87482700649E-02  0.13266370550E-01  0.30939895280E-01  0.34782264685E-01  0.00000000000E+00 0. -1.
</event>
<event>
 5   0  0.4146200E+04  0.9118800E+02  0.7546771E-02  0.1180000E+00
      -11   -1    0    0    0    0  0.00000000000E+00  0.00000000000E+00  0.34996269501E-01  0.35000000000E-01  0.51099999109E-03 0. -1.
       11   -1    0    0    0    0 -0.00000000000E+00 -0.00000000000E+00 -0.34996269501E-01  0.35000000000E-01  0.51099999109E-03 0. -1.
       22    1    1    2    0    0  0.16872001204E-02  0.23156089918E-02 -0.31546016828E-01  0.31675856215E-01  0.00000000000E+00 0. -1.
       22    1    1    2    0    0  0.52937372834E-05 -0.50229430179E-03  0.34479145392E-01  0.34482804331E-01  0.00000000000E+00 0. -1.
       22    1    1    2    0    0 -0.16924938577E-02 -0.18133146900E-02 -0.29331285637E-02  0.38413394532E-02  0.00000000000E+00 0.  1.
</event>
<event>
 5   0  0.4146200E+04  0.9118800E+02  0.7546771E-02  0.1180000E+00
      -11   -1    0    0    0    0  0.00000000000E+00  0.00000000000E+00  0.34996269501E-01  0.35000000000E-01  0.51099999109E-03 0.  1.
       11   -1    0    0    0    0 -0.00000000000E+00 -0.00000000000E+00 -0.34996269501E-01  0.35000000000E-01  0.51099999109E-03 0. -1.
       22    1    1    2    0    0  0.47195037594E-02 -0.15609729396E-02  0.34625349458E-01  0.34980354163E-01  0.00000000000E+00 0.  1.
       22    1    1    2    0    0 -0.29919343610E-03 -0.65240140122E-04 -0.64012322229E-03  0.70959899084E-03  0.00000000000E+00 0.  1.
       22    1    1    2    0    0 -0.44203103233E-02  0.16262130797E-02 -0.33985226236E-01  0.34310046847E-01  0.00000000000E+00 0. -1.
</event>
<event>
 5   0  0.4146200E+04  0.9118800E+02  0.7546771E-02  0.1180000E+00
      -11   -1    0    0    0    0  0.00000000000E+00  0.00000000000E+00  0.34996269501E-01  0.35000000000E-01  0.51099999109E-03 0. -1.
       11   -1    0    0    0    0 -0.00000000000E+00 -0.00000000000E+00 -0.34996269501E-01  0.35000000000E-01  0.51099999109E-03 0.  1.
       22    1    1    2    0    0  0.64455314964E-04 -0.31419570520E-03  0.27992119999E-01  0.27993957482E-01  0.00000000000E+00 0. -1.
       22    1    1    2    0    0 -0.11292428677E-01 -0.10479616851E-02 -0.28511070541E-01  0.30683844487E-01  0.00000000000E+00 0.  1.
       22    1    1    2    0    0  0.11227973363E-01  0.13621573903E-02  0.51895054147E-03  0.11322198031E-01  0.00000000000E+00 0. -1.
</event>
<event>
 5   0  0.4146200E+04  0.9118800E+02  0.7546771E-02  0.1180000E+00
      -11   -1    0    0    0    0  0.00000000000E+00  0.00000000000E+00  0.34996269501E-01  0.35000000000E-01  0.51099999109E-03 0. -1.
       11   -1    0    0    0    0 -0.00000000000E+00 -0.00000000000E+00 -0.34996269501E-01  0.35000000000E-01  0.51099999109E-03 0.  1.
       22    1    1    2    0    0  0.69031632834E-02 -0.77156348189E-03 -0.30900301345E-02  0.76024509045E-02  0.00000000000E+00 0.  1.
       22    1    1    2    0    0 -0.14577805488E-02 -0.11195173277E-01 -0.27160521757E-01  0.29413448811E-01  0.00000000000E+00 0.  1.
       22    1    1    2    0    0 -0.54453827346E-02  0.11966736759E-01  0.30250551892E-01  0.32984100284E-01  0.00000000000E+00 0. -1.
</event>
<event>
 5   0  0.4146200E+04  0.9118800E+02  0.7546771E-02  0.1180000E+00
      -11   -1    0    0    0    0  0.00000000000E+00  0.00000000000E+00  0.34996269501E-01  0.35000000000E-01  0.51099999109E-03 0.  1.
       11   -1    0    0    0    0 -0.00000000000E+00 -0.00000000000E+00 -0.34996269501E-01  0.35000000000E-01  0.51099999109E-03 0. -1.
       22    1    1    2    0    0  0.37670395694E-02  0.29763710720E-02 -0.11725722871E-01  0.12670514935E-01  0.00000000000E+00 0. -1.
       22    1    1    2    0    0 -0.78506605245E-02 -0.25476694521E-02  0.33842675352E-01  0.34834611599E-01  0.00000000000E+00 0.  1.
       22    1    1    2    0    0  0.40836209551E-02 -0.42870161996E-03 -0.22116952481E-01  0.22494873465E-01  0.00000000000E+00 0. -1.
</event>
<event>
 5   0  0.4146200E+04  0.9118800E+02  0.7546771E-02  0.1180000E+00
      -11   -1    0    0    0    0  0.00000000000E+00  0.00000000000E+00  0.34996269501E-01  0.35000000000E-01  0.51099999109E-03 0. -1.
       11   -1    0    0    0    0 -0.00000000000E+00 -0.00000000000E+00 -0.34996269501E-01  0.35000000000E-01  0.51099999109E-03 0. -1.
       22    1    1    2    0    0 -0.26555804675E-03 -0.64917565076E-03 -0.33379497869E-01  0.33386866101E-01  0.00000000000E+00 0. -1.
       22    1    1    2    0    0 -0.85354517760E-03 -0.44653309104E-03 -0.14541622444E-02  0.17442818019E-02  0.00000000000E+00 0.  1.
       22    1    1    2    0    0  0.11191032243E-02  0.10957087418E-02  0.34833660113E-01  0.34868852097E-01  0.00000000000E+00 0. -1.
</event>
<event>
 5   0  0.4146200E+04  0.9118800E+02  0.7546771E-02  0.1180000E+00
      -11   -1    0    0    0    0  0.00000000000E+00  0.00000000000E+00  0.34996269501E-01  0.35000000000E-01  0.51099999109E-03 0. -1.
       11   -1    0    0    0    0 -0.00000000000E+00 -0.00000000000E+00 -0.34996269501E-01  0.35000000000E-01  0.51099999109E-03 0.  1.
       22    1    1    2    0    0 -0.75761741703E-04 -0.65339372609E-03  0.21521345971E-01  0.21531395580E-01  0.00000000000E+00 0. -1.
       22    1    1    2    0    0 -0.68266672179E-02 -0.11159495017E-01 -0.29752673749E-01  0.32501681642E-01  0.00000000000E+00 0.  1.
       22    1    1    2    0    0  0.69024289596E-02  0.11812888743E-01  0.82313277780E-02  0.15966922778E-01  0.00000000000E+00 0. -1.
</event>
<event>
 5   0  0.4146200E+04  0.9118800E+02  0.7546771E-02  0.1180000E+00
      -11   -1    0    0    0    0  0.00000000000E+00  0.00000000000E+00  0.34996269501E-01  0.35000000000E-01  0.51099999109E-03 0.  1.
       11   -1    0    0    0    0 -0.00000000000E+00 -0.00000000000E+00 -0.34996269501E-01  0.35000000000E-01  0.51099999109E-03 0. -1.
       22    1    1    2    0    0 -0.10174447341E-01  0.27790584367E-01  0.13909476903E-01  0.32700298254E-01  0.00000000000E+00 0.  1.
       22    1    1    2    0    0  0.11792192743E-01 -0.23935137192E-01 -0.45751394025E-02  0.27071728845E-01  0.00000000000E+00 0. -1.
       22    1    1    2    0    0 -0.16177454018E-02 -0.38554471754E-02 -0.93343375001E-02  0.10227972901E-01  0.00000000000E+00 0.  1.
</event>
<event>
 5   0  0.4146200E+04  0.9118800E+02  0.7546771E-02  0.1180000E+00
      -11   -1    0    0    0    0  0.00000000000E+00  0.00000000000E+00  0.34996269501E-01  0.35000000000E-01  0.51099999109E-03 0. -1.
       11   -1    0    0    0    0 -0.00000000000E+00 -0.00000000000E+00 -0.34996269501E-01  0.35000000000E-01  0.51099999109E-03 0.  1.
       22    1    1    2    0    0 -0.44930849373E-02 -0.45717052013E-02 -0.33401731187E-01  0.34011232659E-01  0.00000000000E+00 0.  1.
       22    1    1    2    0    0 -0.41889834293E-03  0.60171092960E-03 -0.87126982028E-03  0.11387023159E-02  0.00000000000E+00 0.  1.
       22    1    1    2    0    0  0.49119832803E-02  0.39699942717E-02  0.34273001007E-01  0.34850065025E-01  0.00000000000E+00 0. -1.
</event>
<event>
 5   0  0.4146200E+04  0.9118800E+02  0.7546771E-02  0.1180000E+00
      -11   -1    0    0    0    0  0.00000000000E+00  0.00000000000E+00  0.34996269501E-01  0.35000000000E-01  0.51099999109E-03 0. -1.
       11   -1    0    0    0    0 -0.00000000000E+00 -0.00000000000E+00 -0.34996269501E-01  0.35000000000E-01  0.51099999109E-03 0.  1.
       22    1    1    2    0    0 -0.19908868362E-04 -0.71271706811E-04  0.11085326458E-02  0.11109998407E-02  0.00000000000E+00 0. -1.
       22    1    1    2    0    0 -0.13404011121E-01 -0.65623701976E-02 -0.31584664393E-01  0.34933125276E-01  0.00000000000E+00 0.  1.
       22    1    1    2    0    0  0.13423919990E-01  0.66336419044E-02  0.30476131747E-01  0.33955874883E-01  0.00000000000E+00 0. -1.
</event>
<event>
 5   0  0.4146200E+04  0.9118800E+02  0.7546771E-02  0.1180000E+00
      -11   -1    0    0    0    0  0.00000000000E+00  0.00000000000E+00  0.34996269501E-01  0.35000000000E-01  0.51099999109E-03 0. -1.
       11   -1    0    0    0    0 -0.00000000000E+00 -0.00000000000E+00 -0.34996269501E-01  0.35000000000E-01  0.51099999109E-03 0.  1.
       22    1    1    2    0    0 -0.27299855921E-02  0.11508528150E-02 -0.34525781338E-01  0.34652660223E-01  0.00000000000E+00 0.  1.
       22    1    1    2    0    0  0.27957419887E-02 -0.98360662583E-03  0.34850456090E-01  0.34976248297E-01  0.00000000000E+00 0. -1.
       22    1    1    2    0    0 -0.65756396636E-04 -0.16724618920E-03 -0.32467475176E-03  0.37109147919E-03  0.00000000000E+00 0.  1.
</event>
<event>
 5   0  0.4146200E+04  0.9118800E+02  0.7546771E-02  0.1180000E+00
      -11   -1    0    0    0    0  0.00000000000E+00  0.00000000000E+00  0.34996269501E-01  0.35000000000E-01  0.51099999109E-03 0.  1.
       11   -1    0    0    0    0 -0.00000000000E+00 -0.00000000000E+00 -0.34996269501E-01  0.35000000000E-01  0.51099999109E-03 0. -1.
       22    1    1    2    0    0  0.24676234362E-02 -0.84400839925E-02  0.24428381059E-01  0.25962857785E-01  0.00000000000E+00 0.  1.
       22    1    1    2    0    0  0.55681351579E-02  0.18908614637E-01 -0.23691806201E-01  0.30819498985E-01  0.00000000000E+00 0. -1.
       22    1    1    2    0    0 -0.80357585941E-02 -0.10468530644E-01 -0.73657485806E-03  0.13217643230E-01  0.00000000000E+00 0. -1.
</event>
<event>
 5   0  0.4146200E+04  0.9118800E+02  0.7546771E-02  0.1180000E+00
      -11   -1    0    0    0    0  0.00000000000E+00  0.00000000000E+00  0.34996269501E-01  0.35000000000E-01  0.51099999109E-03 0.  1.
       11   -1    0    0    0    0 -0.00000000000E+00 -0.00000000000E+00 -0.34996269501E-01  0.35000000000E-01  0.51099999109E-03 0. -1.
       22    1    1    2    0    0 -0.21461258910E-01 -0.11778240708E-01  0.24972793101E-01  0.34970744679E-01  0.00000000000E+00 0.  1.
       22    1    1    2    0    0  0.28613195184E-04  0.61775502533E-04 -0.31143506604E-03  0.31878947286E-03  0.00000000000E+00 0.  1.
       22    1    1    2    0    0  0.21432645715E-01  0.11716465206E-01 -0.24661358035E-01  0.34710465848E-01  0.00000000000E+00 0. -1.
</event>
<event>
 5   0  0.4146200E+04  0.9118800E+02  0.7546771E-02  0.1180000E+00
      -11   -1    0    0    0    0  0.00000000000E+00  0.00000000000E+00  0.34996269501E-01  0.35000000000E-01  0.51099999109E-03 0. -1.
       11   -1    0    0    0    0 -0.00000000000E+00 -0.00000000000E+00 -0.34996269501E-01  0.35000000000E-01  0.51099999109E-03 0.  1.
       22    1    1    2    0    0 -0.51201448742E-02 -0.10127546145E-01  0.33097869187E-01  0.34989312928E-01  0.00000000000E+00 0. -1.
       22    1    1    2    0    0  0.50648564909E-02  0.10147599546E-01 -0.32757188426E-01  0.34664967062E-01  0.00000000000E+00 0.  1.
       22    1    1    2    0    0  0.55288383287E-04 -0.20053400772E-04 -0.34068076136E-03  0.34572001008E-03  0.00000000000E+00 0. -1.
</event>
<event>
 5   0  0.4146200E+04  0.9118800E+02  0.7546771E-02  0.1180000E+00
      -11   -1    0    0    0    0  0.00000000000E+00  0.00000000000E+00  0.34996269501E-01  0.35000000000E-01  0.51099999109E-03 0. -1.
       11   -1    0    0    0    0 -0.00000000000E+00 -0.00000000000E+00 -0.34996269501E-01  0.35000000000E-01  0.51099999109E-03 0.  1.
       22    1    1    2    0    0  0.40805591910E-04  0.15113792361E-04  0.14575467490E-02  0.14581961626E-02  0.00000000000E+00 0. -1.
       22    1    1    2    0    0 -0.13183749872E-01 -0.27638971442E-02  0.30791538256E-01  0.33609064496E-01  0.00000000000E+00 0. -1.
       22    1    1    2    0    0  0.13142944280E-01  0.27487833519E-02 -0.32249085005E-01  0.34932739342E-01  0.00000000000E+00 0.  1.
</event>
<event>
 5   0  0.4146200E+04  0.9118800E+02  0.7546771E-02  0.1180000E+00
      -11   -1    0    0    0    0  0.00000000000E+00  0.00000000000E+00  0.34996269501E-01  0.35000000000E-01  0.51099999109E-03 0.  1.
       11   -1    0    0    0    0 -0.00000000000E+00 -0.00000000000E+00 -0.34996269501E-01  0.35000000000E-01  0.51099999109E-03 0. -1.
       22    1    1    2    0    0  0.61306530480E-02 -0.15875938545E-01  0.27188101066E-01  0.32075273515E-01  0.00000000000E+00 0.  1.
       22    1    1    2    0    0 -0.27880133759E-02  0.15930883680E-01 -0.29649234266E-01  0.33773409155E-01  0.00000000000E+00 0. -1.
       22    1    1    2    0    0 -0.33426396721E-02 -0.54945135659E-04  0.24611331998E-02  0.41513173298E-02  0.00000000000E+00 0. -1.
</event>
<event>
 5   0  0.4146200E+04  0.9118800E+02  0.7546771E-02  0.1180000E+00
      -11   -1    0    0    0    0  0.00000000000E+00  0.00000000000E+00  0.34996269501E-01  0.35000000000E-01  0.51099999109E-03 0. -1.
       11   -1    0    0    0    0 -0.00000000000E+00 -0.00000000000E+00 -0.34996269501E-01  0.35000000000E-01  0.51099999109E-03 0.  1.
       22    1    1    2    0    0  0.89250010624E-02  0.90329358308E-02 -0.29055678517E-01  0.31709336603E-01  0.00000000000E+00 0.  1.
       22    1    1    2    0    0 -0.41470239768E-02 -0.14643911290E-01  0.26369795979E-01  0.30446807480E-01  0.00000000000E+00 0. -1.
       22    1    1    2    0    0 -0.47779770856E-02  0.56109754597E-02  0.26858825381E-02  0.78438559171E-02  0.00000000000E+00 0. -1.
</event>
<event>
 5   0  0.4146200E+04  0.9118800E+02  0.7546771E-02  0.1180000E+00
      -11   -1    0    0    0    0  0.00000000000E+00  0.00000000000E+00  0.34996269501E-01  0.35000000000E-01  0.51099999109E-03 0. -1.
       11   -1    0    0    0    0 -0.00000000000E+00 -0.00000000000E+00 -0.34996269501E-01  0.35000000000E-01  0.51099999109E-03 0.  1.
       22    1    1    2    0    0 -0.10188319205E-02  0.75779636082E-03 -0.26089003301E-02  0.29014883662E-02  0.00000000000E+00 0.  1.
       22    1    1    2    0    0  0.10212843077E-01  0.89198818957E-02 -0.29422608298E-01  0.32396856881E-01  0.00000000000E+00 0.  1.
       22    1    1    2    0    0 -0.91940111568E-02 -0.96776782565E-02  0.32031508628E-01  0.34701654752E-01  0.00000000000E+00 0. -1.
</event>
<event>
 5   0  0.4146200E+04  0.9118800E+02  0.7546771E-02  0.1180000E+00
      -11   -1    0    0    0    0  0.00000000000E+00  0.00000000000E+00  0.34996269501E-01  0.35000000000E-01  0.51099999109E-03 0. -1.
       11   -1    0    0    0    0 -0.00000000000E+00 -0.00000000000E+00 -0.34996269501E-01  0.35000000000E-01  0.51099999109E-03 0.  1.
       22    1    1    2    0    0 -0.35739968739E-02 -0.19635577271E-01 -0.28530915906E-01  0.34818709207E-01  0.00000000000E+00 0.  1.
       22    1    1    2    0    0  0.35895290646E-02  0.19663165740E-01  0.26713962040E-01  0.33364061109E-01  0.00000000000E+00 0. -1.
       22    1    1    2    0    0 -0.15532190754E-04 -0.27588468944E-04  0.18169538658E-02  0.18172296836E-02  0.00000000000E+00 0.  1.
</event>
<event>
 5   0  0.4146200E+04  0.9118800E+02  0.7546771E-02  0.1180000E+00
      -11   -1    0    0    0    0  0.00000000000E+00  0.00000000000E+00  0.34996269501E-01  0.35000000000E-01  0.51099999109E-03 0. -1.
       11   -1    0    0    0    0 -0.00000000000E+00 -0.00000000000E+00 -0.34996269501E-01  0.35000000000E-01  0.51099999109E-03 0.  1.
       22    1    1    2    0    0 -0.80704008239E-02  0.74827720936E-02  0.33178642279E-01  0.34956337782E-01  0.00000000000E+00 0. -1.
       22    1    1    2    0    0  0.81998937605E-02 -0.75329040746E-02 -0.32882262992E-01  0.34716366759E-01  0.00000000000E+00 0.  1.
       22    1    1    2    0    0 -0.12949293651E-03  0.50131980976E-04 -0.29637928672E-03  0.32729545936E-03  0.00000000000E+00 0.  1.
</event>
<event>
 5   0  0.4146200E+04  0.9118800E+02  0.7546771E-02  0.1180000E+00
      -11   -1    0    0    0    0  0.00000000000E+00  0.00000000000E+00  0.34996269501E-01  0.35000000000E-01  0.51099999109E-03 0.  1.
       11   -1    0    0    0    0 -0.00000000000E+00 -0.00000000000E+00 -0.34996269501E-01  0.35000000000E-01  0.51099999109E-03 0. -1.
       22    1    1    2    0    0  0.52914298447E-03  0.29601302239E-04  0.34776480514E-01  0.34780518476E-01  0.00000000000E+00 0.  1.
       22    1    1    2    0    0 -0.11941840442E-02  0.17302432741E-02 -0.30176682362E-01  0.30249826044E-01  0.00000000000E+00 0. -1.
       22    1    1    2    0    0  0.66504105972E-03 -0.17598445763E-02 -0.45997981522E-02  0.49696554795E-02  0.00000000000E+00 0.  1.
</event>
<event>
 5   0  0.4146200E+04  0.9118800E+02  0.7546771E-02  0.1180000E+00
      -11   -1    0    0    0    0  0.00000000000E+00  0.00000000000E+00  0.34996269501E-01  0.35000000000E-01  0.51099999109E-03 0.  1.
       11   -1    0    0    0    0 -0.00000000000E+00 -0.00000000000E+00 -0.34996269501E-01  0.35000000000E-01  0.51099999109E-03 0. -1.
       22    1    1    2    0    0  0.25419921823E-02 -0.15754115112E-01  0.30660902584E-01  0.34565080855E-01  0.00000000000E+00 0.  1.
       22    1    1    2    0    0  0.11942910255E-02  0.14451350722E-02 -0.66090620533E-03  0.19878489486E-02  0.00000000000E+00 0.  1.
       22    1    1    2    0    0 -0.37362832077E-02  0.14308980040E-01 -0.29999996379E-01  0.33447070196E-01  0.00000000000E+00 0. -1.
</event>
<event>
 5   0  0.4146200E+04  0.9118800E+02  0.7546771E-02  0.1180000E+00
      -11   -1    0    0    0    0  0.00000000000E+00  0.00000000000E+00  0.34996269501E-01  0.35000000000E-01  0.51099999109E-03 0.  1.
       11   -1    0    0    0    0 -0.00000000000E+00 -0.00000000000E+00 -0.34996269501E-01  0.35000000000E-01  0.51099999109E-03 0. -1.
       22    1    1    2    0    0  0.13655678226E-01  0.24191970873E-02  0.31938809653E-01  0.34819787829E-01  0.00000000000E+00 0.  1.
       22    1    1    2    0    0 -0.13641263209E-01 -0.26460269949E-02 -0.28231125303E-01  0.31465567795E-01  0.00000000000E+00 0. -1.
       22    1    1    2    0    0 -0.14415016949E-04  0.22682990769E-03 -0.37076843500E-02  0.37146443758E-02  0.00000000000E+00 0. -1.
</event>
<event>
 5   0  0.4146200E+04  0.9118800E+02  0.7546771E-02  0.1180000E+00
      -11   -1    0    0    0    0  0.00000000000E+00  0.00000000000E+00  0.34996269501E-01  0.35000000000E-01  0.51099999109E-03 0.  1.
       11   -1    0    0    0    0 -0.00000000000E+00 -0.00000000000E+00 -0.34996269501E-01  0.35000000000E-01  0.51099999109E-03 0. -1.
       22    1    1    2    0    0  0.10521796932E-03 -0.50101717678E-04 -0.28372930817E-03  0.30673004988E-03  0.00000000000E+00 0. -1.
       22    1    1    2    0    0 -0.88186720044E-02 -0.31674624258E-01  0.11655012679E-01  0.34883952161E-01  0.00000000000E+00 0.  1.
       22    1    1    2    0    0  0.87134540351E-02  0.31724725976E-01 -0.11371283371E-01  0.34809317789E-01  0.00000000000E+00 0. -1.
</event>
<event>
 5   0  0.4146200E+04  0.9118800E+02  0.7546771E-02  0.1180000E+00
      -11   -1    0    0    0    0  0.00000000000E+00  0.00000000000E+00  0.34996269501E-01  0.35000000000E-01  0.51099999109E-03 0. -1.
       11   -1    0    0    0    0 -0.00000000000E+00 -0.00000000000E+00 -0.34996269501E-01  0.35000000000E-01  0.51099999109E-03 0.  1.
       22    1    1    2    0    0  0.48887721573E-02  0.19009053063E-01 -0.28953452721E-01  0.34979231209E-01  0.00000000000E+00 0.  1.
       22    1    1    2    0    0 -0.46335058154E-02 -0.18767936755E-01  0.28616071395E-01  0.34533814852E-01  0.00000000000E+00 0. -1.
       22    1    1    2    0    0 -0.25526634186E-03 -0.24111630790E-03  0.33738132625E-03  0.48695393881E-03  0.00000000000E+00 0.  1.
</event>
<event>
 5   0  0.4146200E+04  0.9118800E+02  0.7546771E-02  0.1180000E+00
      -11   -1    0    0    0    0  0.00000000000E+00  0.00000000000E+00  0.34996269501E-01  0.35000000000E-01  0.51099999109E-03 0. -1.
       11   -1    0    0    0    0 -0.00000000000E+00 -0.00000000000E+00 -0.34996269501E-01  0.35000000000E-01  0.51099999109E-03 0.  1.
       22    1    1    2    0    0 -0.19820584776E-02 -0.22933940919E-02 -0.34255891633E-01  0.34389741549E-01  0.00000000000E+00 0.  1.
       22    1    1    2    0    0  0.18163960931E-02  0.20956778699E-02  0.34851252375E-01  0.34961420918E-01  0.00000000000E+00 0. -1.
       22    1    1    2    0    0  0.16566238453E-03  0.19771622195E-03 -0.59536074238E-03  0.64883753254E-03  0.00000000000E+00 0.  1.
</event>
<event>
 5   0  0.4146200E+04  0.9118800E+02  0.7546771E-02  0.1180000E+00
      -11   -1    0    0    0    0  0.00000000000E+00  0.00000000000E+00  0.34996269501E-01  0.35000000000E-01  0.51099999109E-03 0.  1.
       11   -1    0    0    0    0 -0.00000000000E+00 -0.00000000000E+00 -0.34996269501E-01  0.35000000000E-01  0.51099999109E-03 0. -1.
       22    1    1    2    0    0 -0.18875226679E-03  0.21302972973E-04  0.29950288689E-03  0.35465929303E-03  0.00000000000E+00 0.  1.
       22    1    1    2    0    0  0.20577345191E-01 -0.51338565531E-03  0.28006712133E-01  0.34757252832E-01  0.00000000000E+00 0.  1.
       22    1    1    2    0    0 -0.20388592924E-01  0.49208268233E-03 -0.28306215020E-01  0.34888087875E-01  0.00000000000E+00 0. -1.
</event>
<event>
 5   0  0.4146200E+04  0.9118800E+02  0.7546771E-02  0.1180000E+00
      -11   -1    0    0    0    0  0.00000000000E+00  0.00000000000E+00  0.34996269501E-01  0.35000000000E-01  0.51099999109E-03 0.  1.
       11   -1    0    0    0    0 -0.00000000000E+00 -0.00000000000E+00 -0.34996269501E-01  0.35000000000E-01  0.51099999109E-03 0. -1.
       22    1    1    2    0    0  0.12999012242E-01 -0.11875159278E-01  0.90524170950E-02  0.19797474142E-01  0.00000000000E+00 0. -1.
       22    1    1    2    0    0  0.37563284175E-03  0.22764125046E-01  0.96800927648E-02  0.24739658143E-01  0.00000000000E+00 0.  1.
       22    1    1    2    0    0 -0.13374645084E-01 -0.10888965768E-01 -0.18732509860E-01  0.25462867715E-01  0.00000000000E+00 0. -1.
</event>
<event>
 5   0  0.4146200E+04  0.9118800E+02  0.7546771E-02  0.1180000E+00
      -11   -1    0    0    0    0  0.00000000000E+00  0.00000000000E+00  0.34996269501E-01  0.35000000000E-01  0.51099999109E-03 0. -1.
       11   -1    0    0    0    0 -0.00000000000E+00 -0.00000000000E+00 -0.34996269501E-01  0.35000000000E-01  0.51099999109E-03 0.  1.
       22    1    1    2    0    0  0.89978121253E-02 -0.87428267723E-02 -0.29252610986E-01  0.31829434373E-01  0.00000000000E+00 0.  1.
       22    1    1    2    0    0 -0.94680079993E-02  0.12528597788E-02  0.29139832318E-01  0.30665007103E-01  0.00000000000E+00 0. -1.
       22    1    1    2    0    0  0.47019587402E-03  0.74899669935E-02  0.11277866835E-03  0.75055585236E-02  0.00000000000E+00 0.  1.
</event>
<event>
 5   0  0.4146200E+04  0.9118800E+02  0.7546771E-02  0.1180000E+00
      -11   -1    0    0    0    0  0.00000000000E+00  0.00000000000E+00  0.34996269501E-01  0.35000000000E-01  0.51099999109E-03 0. -1.
       11   -1    0    0    0    0 -0.00000000000E+00 -0.00000000000E+00 -0.34996269501E-01  0.35000000000E-01  0.51099999109E-03 0.  1.
       22    1    1    2    0    0 -0.51874451823E-03 -0.25730634593E-03  0.11057019750E-01  0.11072171792E-01  0.00000000000E+00 0. -1.
       22    1    1    2    0    0 -0.20753148536E-01 -0.72671622715E-02 -0.24294592858E-01  0.32767851070E-01  0.00000000000E+00 0.  1.
       22    1    1    2    0    0  0.21271893054E-01  0.75244686174E-02  0.13237573108E-01  0.26159977138E-01  0.00000000000E+00 0. -1.
</event>
<event>
 5   0  0.4146200E+04  0.9118800E+02  0.7546771E-02  0.1180000E+00
      -11   -1    0    0    0    0  0.00000000000E+00  0.00000000000E+00  0.34996269501E-01  0.35000000000E-01  0.51099999109E-03 0.  1.
       11   -1    0    0    0    0 -0.00000000000E+00 -0.00000000000E+00 -0.34996269501E-01  0.35000000000E-01  0.51099999109E-03 0. -1.
       22    1    1    2    0    0  0.80300955512E-04  0.12431452378E-01  0.32395026248E-01  0.34698489623E-01  0.00000000000E+00 0.  1.
       22    1    1    2    0    0 -0.12630567281E-03 -0.12781011485E-01 -0.32508625084E-01  0.34931088052E-01  0.00000000000E+00 0. -1.
       22    1    1    2    0    0  0.46004717302E-04  0.34955910723E-03  0.11359883521E-03  0.37042232495E-03  0.00000000000E+00 0. -1.
</event>
<event>
 5   0  0.4146200E+04  0.9118800E+02  0.7546771E-02  0.1180000E+00
      -11   -1    0    0    0    0  0.00000000000E+00  0.00000000000E+00  0.34996269501E-01  0.35000000000E-01  0.51099999109E-03 0.  1.
       11   -1    0    0    0    0 -0.00000000000E+00 -0.00000000000E+00 -0.34996269501E-01  0.35000000000E-01  0.51099999109E-03 0. -1.
       22    1    1    2    0    0  0.72732241871E-03 -0.19974464178E-02 -0.10668481443E-02  0.23784354218E-02  0.00000000000E+00 0. -1.
       22    1    1    2    0    0 -0.23420908678E-02 -0.10154288640E-01  0.32368759396E-01  0.34004875419E-01  0.00000000000E+00 0.  1.
       22    1    1    2    0    0  0.16147684490E-02  0.12151735058E-01 -0.31301911251E-01  0.33616689160E-01  0.00000000000E+00 0. -1.
</event>
<event>
 5   0  0.4146200E+04  0.9118800E+02  0.7546771E-02  0.1180000E+00
      -11   -1    0    0    0    0  0.00000000000E+00  0.00000000000E+00  0.34996269501E-01  0.35000000000E-01  0.51099999109E-03 0. -1.
       11   -1    0    0    0    0 -0.00000000000E+00 -0.00000000000E+00 -0.34996269501E-01  0.35000000000E-01  0.51099999109E-03 0. -1.
       22    1    1    2    0    0  0.20232634653E-04  0.34475797206E-03 -0.41114160425E-03  0.53694025510E-03  0.00000000000E+00 0.  1.
       22    1    1    2    0    0 -0.34018712146E-03 -0.75413813693E-03  0.34930247599E-01  0.34940043630E-01  0.00000000000E+00 0. -1.
       22    1    1    2    0    0  0.31995448681E-03  0.40938016487E-03 -0.34519105994E-01  0.34523016114E-01  0.00000000000E+00 0. -1.
</event>
<event>
 5   0  0.4146200E+04  0.9118800E+02  0.7546771E-02  0.1180000E+00
      -11   -1    0    0    0    0  0.00000000000E+00  0.00000000000E+00  0.34996269501E-01  0.35000000000E-01  0.51099999109E-03 0.  1.
       11   -1    0    0    0    0 -0.00000000000E+00 -0.00000000000E+00 -0.34996269501E-01  0.35000000000E-01  0.51099999109E-03 0.  1.
       22    1    1    2    0    0 -0.12306192839E-02  0.12265130872E-02 -0.37783439268E-02  0.41586826044E-02  0.00000000000E+00 0. -1.
       22    1    1    2    0    0 -0.00000000000E+00  0.00000000000E+00  0.34787304303E-01  0.34783719585E-01  0.00000000000E+00 0.  1.
       22    1    1    2    0    0  0.12306192839E-02 -0.12265130872E-02 -0.31008960376E-01  0.31057597811E-01  0.00000000000E+00 0.  1.
</event>
<event>
 5   0  0.4146200E+04  0.9118800E+02  0.7546771E-02  0.1180000E+00
      -11   -1    0    0    0    0  0.00000000000E+00  0.00000000000E+00  0.34996269501E-01  0.35000000000E-01  0.51099999109E-03 0.  1.
       11   -1    0    0    0    0 -0.00000000000E+00 -0.00000000000E+00 -0.34996269501E-01  0.35000000000E-01  0.51099999109E-03 0.  1.
       22    1    1    2    0    0  0.66903906426E-03 -0.16562961907E-03 -0.33793848195E-01  0.33800876058E-01  0.00000000000E+00 0.  1.
       22    1    1    2    0    0 -0.78479266018E-03 -0.70565518187E-03  0.34826825699E-01  0.34842813276E-01  0.00000000000E+00 0.  1.
       22    1    1    2    0    0  0.11575359592E-03  0.87128480093E-03 -0.10329775039E-02  0.13563106661E-02  0.00000000000E+00 0.  1.
</event>
<event>
 5   0  0.4146200E+04  0.9118800E+02  0.7546771E-02  0.1180000E+00
      -11   -1    0    0    0    0  0.00000000000E+00  0.00000000000E+00  0.34996269501E-01  0.35000000000E-01  0.51099999109E-03 0.  1.
       11   -1    0    0    0    0 -0.00000000000E+00 -0.00000000000E+00 -0.34996269501E-01  0.35000000000E-01  0.51099999109E-03 0. -1.
       22    1    1    2    0    0  0.99322040640E-02 -0.31772006544E-02  0.32960993019E-01  0.34571235765E-01  0.00000000000E+00 0.  1.
       22    1    1    2    0    0 -0.10917652807E-01  0.18898057836E-02 -0.30762939253E-01  0.32697476052E-01  0.00000000000E+00 0. -1.
       22    1    1    2    0    0  0.98544874307E-03  0.12873948708E-02 -0.21980537660E-02  0.27312881827E-02  0.00000000000E+00 0.  1.
</event>
<event>
 5   0  0.4146200E+04  0.9118800E+02  0.7546771E-02  0.1180000E+00
      -11   -1    0    0    0    0  0.00000000000E+00  0.00000000000E+00  0.34996269501E-01  0.35000000000E-01  0.51099999109E-03 0.  1.
       11   -1    0    0    0    0 -0.00000000000E+00 -0.00000000000E+00 -0.34996269501E-01  0.35000000000E-01  0.51099999109E-03 0. -1.
       22    1    1    2    0    0  0.13934885959E-02 -0.18463425831E-01  0.29684668279E-01  0.34985989120E-01  0.00000000000E+00 0.  1.
       22    1    1    2    0    0  0.24405867242E-03  0.33889166974E-02 -0.58381698237E-02  0.67548906659E-02  0.00000000000E+00 0.  1.
       22    1    1    2    0    0 -0.16375472683E-02  0.15074509134E-01 -0.23846498455E-01  0.28259120214E-01  0.00000000000E+00 0. -1.
</event>
<event>
 5   0  0.4146200E+04  0.9118800E+02  0.7546771E-02  0.1180000E+00
      -11   -1    0    0    0    0  0.00000000000E+00  0.00000000000E+00  0.34996269501E-01  0.35000000000E-01  0.51099999109E-03 0. -1.
       11   -1    0    0    0    0 -0.00000000000E+00 -0.00000000000E+00 -0.34996269501E-01  0.35000000000E-01  0.51099999109E-03 0.  1.
       22    1    1    2    0    0  0.22440501057E-02  0.22419351008E-01  0.25025395067E-01  0.33673928472E-01  0.00000000000E+00 0. -1.
       22    1    1    2    0    0 -0.25259744181E-02 -0.19899363276E-01 -0.26619349004E-01  0.33330990788E-01  0.00000000000E+00 0.  1.
       22    1    1    2    0    0  0.28192431242E-03 -0.25199877316E-02  0.15939539369E-02  0.29950807399E-02  0.00000000000E+00 0. -1.
</event>
<event>
 5   0  0.4146200E+04  0.9118800E+02  0.7546771E-02  0.1180000E+00
      -11   -1    0    0    0    0  0.00000000000E+00  0.00000000000E+00  0.34996269501E-01  0.35000000000E-01  0.51099999109E-03 0. -1.
       11   -1    0    0    0    0 -0.00000000000E+00 -0.00000000000E+00 -0.34996269501E-01  0.35000000000E-01  0.51099999109E-03 0.  1.
       22    1    1    2    0    0 -0.84116095326E-03  0.20978975253E-02  0.40756024471E-02  0.46603928035E-02  0.00000000000E+00 0. -1.
       22    1    1    2    0    0 -0.92948306989E-02 -0.12199987790E-01  0.27042272780E-01  0.31088874166E-01  0.00000000000E+00 0. -1.
       22    1    1    2    0    0  0.10135991652E-01  0.10102090265E-01 -0.31117875227E-01  0.34250733031E-01  0.00000000000E+00 0.  1.
</event>
<event>
 5   0  0.4146200E+04  0.9118800E+02  0.7546771E-02  0.1180000E+00
      -11   -1    0    0    0    0  0.00000000000E+00  0.00000000000E+00  0.34996269501E-01  0.35000000000E-01  0.51099999109E-03 0. -1.
       11   -1    0    0    0    0 -0.00000000000E+00 -0.00000000000E+00 -0.34996269501E-01  0.35000000000E-01  0.51099999109E-03 0.  1.
       22    1    1    2    0    0  0.13131221295E-01  0.14625596236E-02 -0.32330699919E-01  0.34926239572E-01  0.00000000000E+00 0.  1.
       22    1    1    2    0    0 -0.13249376741E-01 -0.16740300048E-02  0.31708241817E-01  0.34405827408E-01  0.00000000000E+00 0. -1.
       22    1    1    2    0    0  0.11815544552E-03  0.21147038114E-03  0.62245810199E-03  0.66793302070E-03  0.00000000000E+00 0. -1.
</event>
<event>
 5   0  0.4146200E+04  0.9118800E+02  0.7546771E-02  0.1180000E+00
      -11   -1    0    0    0    0  0.00000000000E+00  0.00000000000E+00  0.34996269501E-01  0.35000000000E-01  0.51099999109E-03 0.  1.
       11   -1    0    0    0    0 -0.00000000000E+00 -0.00000000000E+00 -0.34996269501E-01  0.35000000000E-01  0.51099999109E-03 0.  1.
       22    1    1    2    0    0  0.00000000000E+00  0.00000000000E+00  0.34984670888E-01  0.34983802623E-01  0.00000000000E+00 0.  1.
       22    1    1    2    0    0  0.33268294315E-04  0.14135159770E-03 -0.34662590011E-01  0.34662894186E-01  0.00000000000E+00 0.  1.
       22    1    1    2    0    0 -0.33268294315E-04 -0.14135159770E-03 -0.32208087699E-03  0.35330319118E-03  0.00000000000E+00 0.  1.
</event>
<event>
 5   0  0.4146200E+04  0.9118800E+02  0.7546771E-02  0.1180000E+00
      -11   -1    0    0    0    0  0.00000000000E+00  0.00000000000E+00  0.34996269501E-01  0.35000000000E-01  0.51099999109E-03 0. -1.
       11   -1    0    0    0    0 -0.00000000000E+00 -0.00000000000E+00 -0.34996269501E-01  0.35000000000E-01  0.51099999109E-03 0.  1.
       22    1    1    2    0    0  0.35590088026E-03 -0.48305573644E-03 -0.69328532960E-03  0.91687121741E-03  0.00000000000E+00 0. -1.
       22    1    1    2    0    0 -0.29716036588E-01  0.12201304032E-01 -0.12971959407E-01  0.34643706232E-01  0.00000000000E+00 0.  1.
       22    1    1    2    0    0  0.29360135708E-01 -0.11718248296E-01  0.13665244737E-01  0.34439422551E-01  0.00000000000E+00 0. -1.
</event>
<event>
 5   0  0.4146200E+04  0.9118800E+02  0.7546771E-02  0.1180000E+00
      -11   -1    0    0    0    0  0.00000000000E+00  0.00000000000E+00  0.34996269501E-01  0.35000000000E-01  0.51099999109E-03 0.  1.
       11   -1    0    0    0    0 -0.00000000000E+00 -0.00000000000E+00 -0.34996269501E-01  0.35000000000E-01  0.51099999109E-03 0. -1.
       22    1    1    2    0    0 -0.21245740678E-03  0.21633233973E-03 -0.39420341071E-03  0.49732701508E-03  0.00000000000E+00 0. -1.
       22    1    1    2    0    0  0.17293659291E-03  0.23437530167E-02  0.34861391485E-01  0.34940516618E-01  0.00000000000E+00 0.  1.
       22    1    1    2    0    0  0.39520813875E-04 -0.25600853564E-02 -0.34467188075E-01  0.34562156366E-01  0.00000000000E+00 0. -1.
</event>
<event>
 5   0  0.4146200E+04  0.9118800E+02  0.7546771E-02  0.1180000E+00
      -11   -1    0    0    0    0  0.00000000000E+00  0.00000000000E+00  0.34996269501E-01  0.35000000000E-01  0.51099999109E-03 0.  1.
       11   -1    0    0    0    0 -0.00000000000E+00 -0.00000000000E+00 -0.34996269501E-01  0.35000000000E-01  0.51099999109E-03 0. -1.
       22    1    1    2    0    0  0.85852478852E-02 -0.12086847055E-01  0.30083204569E-01  0.33538001582E-01  0.00000000000E+00 0.  1.
       22    1    1    2    0    0 -0.38803381231E-03  0.50493419774E-04  0.15708300465E-02  0.16188350317E-02  0.00000000000E+00 0.  1.
       22    1    1    2    0    0 -0.81972140728E-02  0.12036353635E-01 -0.31654034615E-01  0.34843163387E-01  0.00000000000E+00 0. -1.
</event>
<event>
 5   0  0.4146200E+04  0.9118800E+02  0.7546771E-02  0.1180000E+00
      -11   -1    0    0    0    0  0.00000000000E+00  0.00000000000E+00  0.34996269501E-01  0.35000000000E-01  0.51099999109E-03 0. -1.
       11   -1    0    0    0    0 -0.00000000000E+00 -0.00000000000E+00 -0.34996269501E-01  0.35000000000E-01  0.51099999109E-03 0.  1.
       22    1    1    2    0    0  0.20322420638E-02  0.10660072596E-02  0.34500024377E-01  0.34576264420E-01  0.00000000000E+00 0. -1.
       22    1    1    2    0    0  0.11951241703E-03  0.17768285600E-02 -0.18076418356E-02  0.25375129468E-02  0.00000000000E+00 0. -1.
       22    1    1    2    0    0 -0.21517544808E-02 -0.28428358196E-02 -0.32692382541E-01  0.32886222633E-01  0.00000000000E+00 0.  1.
</event>
<event>
 5   0  0.4146200E+04  0.9118800E+02  0.7546771E-02  0.1180000E+00
      -11   -1    0    0    0    0  0.00000000000E+00  0.00000000000E+00  0.34996269501E-01  0.35000000000E-01  0.51099999109E-03 0.  1.
       11   -1    0    0    0    0 -0.00000000000E+00 -0.00000000000E+00 -0.34996269501E-01  0.35000000000E-01  0.51099999109E-03 0. -1.
       22    1    1    2    0    0 -0.32313269291E-03 -0.18835667563E-03 -0.31736604420E-02  0.31956241293E-02  0.00000000000E+00 0.  1.
       22    1    1    2    0    0  0.59719585659E-02 -0.15799161561E-01  0.30372572087E-01  0.34752998868E-01  0.00000000000E+00 0.  1.
       22    1    1    2    0    0 -0.56488258730E-02  0.15987518236E-01 -0.27198911645E-01  0.32051377003E-01  0.00000000000E+00 0. -1.
</event>
<event>
 5   0  0.4146200E+04  0.9118800E+02  0.7546771E-02  0.1180000E+00
      -11   -1    0    0    0    0  0.00000000000E+00  0.00000000000E+00  0.34996269501E-01  0.35000000000E-01  0.51099999109E-03 0. -1.
       11   -1    0    0    0    0 -0.00000000000E+00 -0.00000000000E+00 -0.34996269501E-01  0.35000000000E-01  0.51099999109E-03 0.  1.
       22    1    1    2    0    0 -0.53868564719E-03 -0.55106660034E-03  0.26415873813E-02  0.27516977518E-02  0.00000000000E+00 0. -1.
       22    1    1    2    0    0  0.46965978377E-02  0.20714819970E-01 -0.27642942456E-01  0.34861068045E-01  0.00000000000E+00 0. -1.
       22    1    1    2    0    0 -0.41579121905E-02 -0.20163753369E-01  0.25001355075E-01  0.32387234203E-01  0.00000000000E+00 0.  1.
</event>
<event>
 5   0  0.4146200E+04  0.9118800E+02  0.7546771E-02  0.1180000E+00
      -11   -1    0    0    0    0  0.00000000000E+00  0.00000000000E+00  0.34996269501E-01  0.35000000000E-01  0.51099999109E-03 0. -1.
       11   -1    0    0    0    0 -0.00000000000E+00 -0.00000000000E+00 -0.34996269501E-01  0.35000000000E-01  0.51099999109E-03 0.  1.
       22    1    1    2    0    0  0.11679912201E-01  0.36267531743E-02 -0.32166430512E-01  0.34412976324E-01  0.00000000000E+00 0.  1.
       22    1    1    2    0    0  0.30867564085E-04  0.36157589349E-04  0.11868293516E-01  0.11868388735E-01  0.00000000000E+00 0.  1.
       22    1    1    2    0    0 -0.11710779765E-01 -0.36629107636E-02  0.20298136995E-01  0.23718634941E-01  0.00000000000E+00 0. -1.
</event>
<event>
 5   0  0.4146200E+04  0.9118800E+02  0.7546771E-02  0.1180000E+00
      -11   -1    0    0    0    0  0.00000000000E+00  0.00000000000E+00  0.34996269501E-01  0.35000000000E-01  0.51099999109E-03 0.  1.
       11   -1    0    0    0    0 -0.00000000000E+00 -0.00000000000E+00 -0.34996269501E-01  0.35000000000E-01  0.51099999109E-03 0.  1.
       22    1    1    2    0    0 -0.15909567014E-03  0.12044135921E-04 -0.18758662052E-01  0.18759340566E-01  0.00000000000E+00 0.  1.
       22    1    1    2    0    0  0.50016946581E-02  0.22481072682E-02 -0.15565378476E-01  0.16503088888E-01  0.00000000000E+00 0. -1.
       22    1    1    2    0    0 -0.48425989879E-02 -0.22601514041E-02  0.34324040528E-01  0.34737570546E-01  0.00000000000E+00 0.  1.
</event>
<event>
 5   0  0.4146200E+04  0.9118800E+02  0.7546771E-02  0.1180000E+00
      -11   -1    0    0    0    0  0.00000000000E+00  0.00000000000E+00  0.34996269501E-01  0.35000000000E-01  0.51099999109E-03 0. -1.
       11   -1    0    0    0    0 -0.00000000000E+00 -0.00000000000E+00 -0.34996269501E-01  0.35000000000E-01  0.51099999109E-03 0.  1.
       22    1    1    2    0    0 -0.55988284280E-04 -0.13118176200E-03 -0.74499952913E-03  0.75852992100E-03  0.00000000000E+00 0. -1.
       22    1    1    2    0    0  0.17485550289E-01  0.95106556864E-02  0.28737789189E-01  0.34957939985E-01  0.00000000000E+00 0. -1.
       22    1    1    2    0    0 -0.17429562004E-01 -0.93794739244E-02 -0.27992789660E-01  0.34283530094E-01  0.00000000000E+00 0.  1.
</event>
<event>
 5   0  0.4146200E+04  0.9118800E+02  0.7546771E-02  0.1180000E+00
      -11   -1    0    0    0    0  0.00000000000E+00  0.00000000000E+00  0.34996269501E-01  0.35000000000E-01  0.51099999109E-03 0. -1.
       11   -1    0    0    0    0 -0.00000000000E+00 -0.00000000000E+00 -0.34996269501E-01  0.35000000000E-01  0.51099999109E-03 0.  1.
       22    1    1    2    0    0 -0.12653406593E-01  0.64026857417E-02  0.31522006528E-01  0.34565010902E-01  0.00000000000E+00 0. -1.
       22    1    1    2    0    0  0.13400683147E-01 -0.67202124388E-02 -0.31089209730E-01  0.34514902950E-01  0.00000000000E+00 0.  1.
       22    1    1    2    0    0 -0.74727655418E-03  0.31752669704E-03 -0.43279679737E-03  0.92008614791E-03  0.00000000000E+00 0. -1.
</event>
<event>
 5   0  0.4146200E+04  0.9118800E+02  0.7546771E-02  0.1180000E+00
      -11   -1    0    0    0    0  0.00000000000E+00  0.00000000000E+00  0.34996269501E-01  0.35000000000E-01  0.51099999109E-03 0. -1.
       11   -1    0    0    0    0 -0.00000000000E+00 -0.00000000000E+00 -0.34996269501E-01  0.35000000000E-01  0.51099999109E-03 0.  1.
       22    1    1    2    0    0 -0.97976834918E-02 -0.55967927624E-02 -0.32421120551E-01  0.34328526750E-01  0.00000000000E+00 0.  1.
       22    1    1    2    0    0  0.11174182650E-01  0.66077328443E-02  0.30181758037E-01  0.32855182383E-01  0.00000000000E+00 0. -1.
       22    1    1    2    0    0 -0.13764991578E-02 -0.10109400819E-02  0.22393625135E-02  0.28162908670E-02  0.00000000000E+00 0. -1.
</event>
<event>
 5   0  0.4146200E+04  0.9118800E+02  0.7546771E-02  0.1180000E+00
      -11   -1    0    0    0    0  0.00000000000E+00  0.00000000000E+00  0.34996269501E-01  0.35000000000E-01  0.51099999109E-03 0.  1.
       11   -1    0    0    0    0 -0.00000000000E+00 -0.00000000000E+00 -0.34996269501E-01  0.35000000000E-01  0.51099999109E-03 0. -1.
       22    1    1    2    0    0 -0.12607133398E-02 -0.11460534370E-02  0.34486186216E-03  0.17383228439E-02  0.00000000000E+00 0. -1.
       22    1    1    2    0    0  0.15013914218E-01  0.49799003130E-02 -0.30800781208E-01  0.34625209751E-01  0.00000000000E+00 0. -1.
       22    1    1    2    0    0 -0.13753200878E-01 -0.38338468760E-02  0.30455919346E-01  0.33636467405E-01  0.00000000000E+00 0.  1.
</event>
<event>
 5   0  0.4146200E+04  0.9118800E+02  0.7546771E-02  0.1180000E+00
      -11   -1    0    0    0    0  0.00000000000E+00  0.00000000000E+00  0.34996269501E-01  0.35000000000E-01  0.51099999109E-03 0.  1.
       11   -1    0    0    0    0 -0.00000000000E+00 -0.00000000000E+00 -0.34996269501E-01  0.35000000000E-01  0.51099999109E-03 0. -1.
       22    1    1    2    0    0 -0.42032085285E-03  0.72279211646E-03  0.19980563533E-01  0.19998050334E-01  0.00000000000E+00 0.  1.
       22    1    1    2    0    0  0.14708715027E-01 -0.51278832930E-02 -0.28727833483E-01  0.32679196769E-01  0.00000000000E+00 0. -1.
       22    1    1    2    0    0 -0.14288394174E-01  0.44050911766E-02  0.87472699506E-02  0.17322752898E-01  0.00000000000E+00 0.  1.
</event>
<event>
 5   0  0.4146200E+04  0.9118800E+02  0.7546771E-02  0.1180000E+00
      -11   -1    0    0    0    0  0.00000000000E+00  0.00000000000E+00  0.34996269501E-01  0.35000000000E-01  0.51099999109E-03 0. -1.
       11   -1    0    0    0    0 -0.00000000000E+00 -0.00000000000E+00 -0.34996269501E-01  0.35000000000E-01  0.51099999109E-03 0.  1.
       22    1    1    2    0    0 -0.20926043521E-03 -0.34857055991E-03 -0.29158844293E-02  0.29440912639E-02  0.00000000000E+00 0.  1.
       22    1    1    2    0    0 -0.17076654789E-01  0.22213611559E-02  0.30163733001E-01  0.34733231533E-01  0.00000000000E+00 0. -1.
       22    1    1    2    0    0  0.17285915225E-01 -0.18727905960E-02 -0.27247848572E-01  0.32322677203E-01  0.00000000000E+00 0.  1.
</event>
<event>
 5   0  0.4146200E+04  0.9118800E+02  0.7546771E-02  0.1180000E+00
      -11   -1    0    0    0    0  0.00000000000E+00  0.00000000000E+00  0.34996269501E-01  0.35000000000E-01  0.51099999109E-03 0.  1.
       11   -1    0    0    0    0 -0.00000000000E+00 -0.00000000000E+00 -0.34996269501E-01  0.35000000000E-01  0.51099999109E-03 0. -1.
       22    1    1    2    0    0  0.54233828955E-02  0.10175947782E-02 -0.32163651817E-01  0.32633557565E-01  0.00000000000E+00 0. -1.
       22    1    1    2    0    0 -0.45435664640E-02 -0.53911290221E-03  0.34511726797E-01  0.34813703127E-01  0.00000000000E+00 0.  1.
       22    1    1    2    0    0 -0.87981643153E-03 -0.47848187597E-03 -0.23480749801E-02  0.25527393072E-02  0.00000000000E+00 0. -1.
</event>
<event>
 5   0  0.4146200E+04  0.9118800E+02  0.7546771E-02  0.1180000E+00
      -11   -1    0    0    0    0  0.00000000000E+00  0.00000000000E+00  0.34996269501E-01  0.35000000000E-01  0.51099999109E-03 0. -1.
       11   -1    0    0    0    0 -0.00000000000E+00 -0.00000000000E+00 -0.34996269501E-01  0.35000000000E-01  0.51099999109E-03 0.  1.
       22    1    1    2    0    0 -0.66138195991E-04  0.46271160782E-06  0.46739656097E-03  0.47205298461E-03  0.00000000000E+00 0.  1.
       22    1    1    2    0    0 -0.44067828581E-02 -0.19733922284E-01 -0.28507040647E-01  0.34949946929E-01  0.00000000000E+00 0.  1.
       22    1    1    2    0    0  0.44729210541E-02  0.19733459573E-01  0.28039644086E-01  0.34578000086E-01  0.00000000000E+00 0. -1.
</event>
<event>
 5   0  0.4146200E+04  0.9118800E+02  0.7546771E-02  0.1180000E+00
      -11   -1    0    0    0    0  0.00000000000E+00  0.00000000000E+00  0.34996269501E-01  0.35000000000E-01  0.51099999109E-03 0. -1.
       11   -1    0    0    0    0 -0.00000000000E+00 -0.00000000000E+00 -0.34996269501E-01  0.35000000000E-01  0.51099999109E-03 0.  1.
       22    1    1    2    0    0  0.11286884495E-02 -0.13850984497E-02  0.32948882562E-01  0.32997292274E-01  0.00000000000E+00 0. -1.
       22    1    1    2    0    0  0.52486874241E-02 -0.49731515048E-02 -0.99186542222E-02  0.12274390296E-01  0.00000000000E+00 0.  1.
       22    1    1    2    0    0 -0.63773758736E-02  0.63582499545E-02 -0.23030228340E-01  0.24728317430E-01  0.00000000000E+00 0.  1.
</event>
<event>
 5   0  0.4146200E+04  0.9118800E+02  0.7546771E-02  0.1180000E+00
      -11   -1    0    0    0    0  0.00000000000E+00  0.00000000000E+00  0.34996269501E-01  0.35000000000E-01  0.51099999109E-03 0.  1.
       11   -1    0    0    0    0 -0.00000000000E+00 -0.00000000000E+00 -0.34996269501E-01  0.35000000000E-01  0.51099999109E-03 0. -1.
       22    1    1    2    0    0  0.65415873509E-03  0.10547799929E-02 -0.92256176760E-03  0.15464813931E-02  0.00000000000E+00 0. -1.
       22    1    1    2    0    0  0.32390929199E-02  0.14466369216E-01  0.31012291523E-01  0.34373387769E-01  0.00000000000E+00 0.  1.
       22    1    1    2    0    0 -0.38932516550E-02 -0.15521149209E-01 -0.30089729755E-01  0.34080130838E-01  0.00000000000E+00 0. -1.
</event>
<event>
 5   0  0.4146200E+04  0.9118800E+02  0.7546771E-02  0.1180000E+00
      -11   -1    0    0    0    0  0.00000000000E+00  0.00000000000E+00  0.34996269501E-01  0.35000000000E-01  0.51099999109E-03 0. -1.
       11   -1    0    0    0    0 -0.00000000000E+00 -0.00000000000E+00 -0.34996269501E-01  0.35000000000E-01  0.51099999109E-03 0.  1.
       22    1    1    2    0    0 -0.93641097317E-02  0.13910711473E-01  0.71577145010E-02  0.18232589548E-01  0.00000000000E+00 0. -1.
       22    1    1    2    0    0  0.11454016434E-02  0.97247257029E-04  0.20048952923E-01  0.20081880272E-01  0.00000000000E+00 0.  1.
       22    1    1    2    0    0  0.82187080883E-02 -0.14007958730E-01 -0.27206667424E-01  0.31685530180E-01  0.00000000000E+00 0.  1.
</event>
<event>
 5   0  0.4146200E+04  0.9118800E+02  0.7546771E-02  0.1180000E+00
      -11   -1    0    0    0    0  0.00000000000E+00  0.00000000000E+00  0.34996269501E-01  0.35000000000E-01  0.51099999109E-03 0. -1.
       11   -1    0    0    0    0 -0.00000000000E+00 -0.00000000000E+00 -0.34996269501E-01  0.35000000000E-01  0.51099999109E-03 0.  1.
       22    1    1    2    0    0  0.86555910299E-02  0.95927854123E-02 -0.27243167206E-01  0.30151798411E-01  0.00000000000E+00 0.  1.
       22    1    1    2    0    0 -0.43175378738E-02  0.11530197488E-02 -0.43257426140E-02  0.62195367187E-02  0.00000000000E+00 0. -1.
       22    1    1    2    0    0 -0.43380531561E-02 -0.10745805161E-01  0.31568909820E-01  0.33628664870E-01  0.00000000000E+00 0. -1.
</event>
<event>
 5   0  0.4146200E+04  0.9118800E+02  0.7546771E-02  0.1180000E+00
      -11   -1    0    0    0    0  0.00000000000E+00  0.00000000000E+00  0.34996269501E-01  0.35000000000E-01  0.51099999109E-03 0.  1.
       11   -1    0    0    0    0 -0.00000000000E+00 -0.00000000000E+00 -0.34996269501E-01  0.35000000000E-01  0.51099999109E-03 0. -1.
       22    1    1    2    0    0  0.15534001891E-01  0.16799703528E-01 -0.26376624620E-01  0.34917926338E-01  0.00000000000E+00 0. -1.
       22    1    1    2    0    0 -0.15546199635E-01 -0.16805792785E-01  0.25750790155E-01  0.34456090722E-01  0.00000000000E+00 0.  1.
       22    1    1    2    0    0  0.12197744298E-04  0.60892566800E-05  0.62583446504E-03  0.62598294038E-03  0.00000000000E+00 0.  1.
</event>
<event>
 5   0  0.4146200E+04  0.9118800E+02  0.7546771E-02  0.1180000E+00
      -11   -1    0    0    0    0  0.00000000000E+00  0.00000000000E+00  0.34996269501E-01  0.35000000000E-01  0.51099999109E-03 0. -1.
       11   -1    0    0    0    0 -0.00000000000E+00 -0.00000000000E+00 -0.34996269501E-01  0.35000000000E-01  0.51099999109E-03 0. -1.
       22    1    1    2    0    0  0.23473872556E-03  0.85236513158E-03 -0.15418500302E-02  0.17773379258E-02  0.00000000000E+00 0.  1.
       22    1    1    2    0    0 -0.43779248601E-05 -0.73301910209E-03 -0.33335894336E-01  0.33343952785E-01  0.00000000000E+00 0. -1.
       22    1    1    2    0    0 -0.23036080070E-03 -0.11934602949E-03  0.34877744366E-01  0.34878709289E-01  0.00000000000E+00 0. -1.
</event>
<event>
 5   0  0.4146200E+04  0.9118800E+02  0.7546771E-02  0.1180000E+00
      -11   -1    0    0    0    0  0.00000000000E+00  0.00000000000E+00  0.34996269501E-01  0.35000000000E-01  0.51099999109E-03 0. -1.
       11   -1    0    0    0    0 -0.00000000000E+00 -0.00000000000E+00 -0.34996269501E-01  0.35000000000E-01  0.51099999109E-03 0.  1.
       22    1    1    2    0    0 -0.52292730755E-02  0.12567725670E-01 -0.31696770980E-01  0.34496062325E-01  0.00000000000E+00 0.  1.
       22    1    1    2    0    0 -0.11165511098E-03  0.23290483117E-04 -0.50516697320E-03  0.51788317334E-03  0.00000000000E+00 0. -1.
       22    1    1    2    0    0  0.53409281865E-02 -0.12591016153E-01  0.32201937953E-01  0.34986054501E-01  0.00000000000E+00 0. -1.
</event>
<event>
 5   0  0.4146200E+04  0.9118800E+02  0.7546771E-02  0.1180000E+00
      -11   -1    0    0    0    0  0.00000000000E+00  0.00000000000E+00  0.34996269501E-01  0.35000000000E-01  0.51099999109E-03 0.  1.
       11   -1    0    0    0    0 -0.00000000000E+00 -0.00000000000E+00 -0.34996269501E-01  0.35000000000E-01  0.51099999109E-03 0. -1.
       22    1    1    2    0    0 -0.29989018774E-02 -0.19344548757E-01  0.21769529522E-01  0.29276567331E-01  0.00000000000E+00 0.  1.
       22    1    1    2    0    0  0.35737246937E-02 -0.16986677121E-03  0.58759342697E-02  0.68794597497E-02  0.00000000000E+00 0. -1.
       22    1    1    2    0    0 -0.57482281629E-03  0.19514415529E-01 -0.27645463792E-01  0.33843972919E-01  0.00000000000E+00 0. -1.
</event>
<event>
 5   0  0.4146200E+04  0.9118800E+02  0.7546771E-02  0.1180000E+00
      -11   -1    0    0    0    0  0.00000000000E+00  0.00000000000E+00  0.34996269501E-01  0.35000000000E-01  0.51099999109E-03 0.  1.
       11   -1    0    0    0    0 -0.00000000000E+00 -0.00000000000E+00 -0.34996269501E-01  0.35000000000E-01  0.51099999109E-03 0. -1.
       22    1    1    2    0    0  0.59034887448E-02  0.19502214019E-02 -0.14163366907E-01  0.15467886250E-01  0.00000000000E+00 0. -1.
       22    1    1    2    0    0 -0.76260474924E-02 -0.17487223674E-02  0.33863598906E-01  0.34755689622E-01  0.00000000000E+00 0.  1.
       22    1    1    2    0    0  0.17225587476E-02 -0.20149903452E-03 -0.19700231998E-01  0.19776424128E-01  0.00000000000E+00 0. -1.
</event>
<event>
 5   0  0.4146200E+04  0.9118800E+02  0.7546771E-02  0.1180000E+00
      -11   -1    0    0    0    0  0.00000000000E+00  0.00000000000E+00  0.34996269501E-01  0.35000000000E-01  0.51099999109E-03 0.  1.
       11   -1    0    0    0    0 -0.00000000000E+00 -0.00000000000E+00 -0.34996269501E-01  0.35000000000E-01  0.51099999109E-03 0. -1.
       22    1    1    2    0    0  0.16182674424E-01 -0.10229956384E-01  0.66787732662E-02  0.20276512804E-01  0.00000000000E+00 0.  1.
       22    1    1    2    0    0  0.12110479803E-02  0.51820664433E-03  0.17977131720E-01  0.18025327742E-01  0.00000000000E+00 0. -1.
       22    1    1    2    0    0 -0.17393722404E-01  0.97117497401E-02 -0.24655904986E-01  0.31698159454E-01  0.00000000000E+00 0. -1.
</event>
<event>
 5   0  0.4146200E+04  0.9118800E+02  0.7546771E-02  0.1180000E+00
      -11   -1    0    0    0    0  0.00000000000E+00  0.00000000000E+00  0.34996269501E-01  0.35000000000E-01  0.51099999109E-03 0. -1.
       11   -1    0    0    0    0 -0.00000000000E+00 -0.00000000000E+00 -0.34996269501E-01  0.35000000000E-01  0.51099999109E-03 0.  1.
       22    1    1    2    0    0 -0.10288224461E-02 -0.79219029341E-03  0.34360412934E-01  0.34384938827E-01  0.00000000000E+00 0. -1.
       22    1    1    2    0    0 -0.17866839550E-02 -0.26612040973E-02 -0.51446850520E-02  0.60615205259E-02  0.00000000000E+00 0. -1.
       22    1    1    2    0    0  0.28155064010E-02  0.34533943907E-02 -0.29215727882E-01  0.29553540648E-01  0.00000000000E+00 0.  1.
</event>
<event>
 5   0  0.4146200E+04  0.9118800E+02  0.7546771E-02  0.1180000E+00
      -11   -1    0    0    0    0  0.00000000000E+00  0.00000000000E+00  0.34996269501E-01  0.35000000000E-01  0.51099999109E-03 0.  1.
       11   -1    0    0    0    0 -0.00000000000E+00 -0.00000000000E+00 -0.34996269501E-01  0.35000000000E-01  0.51099999109E-03 0. -1.
       22    1    1    2    0    0 -0.90370145879E-02 -0.20850395318E-02 -0.24529627668E-01  0.26224371414E-01  0.00000000000E+00 0. -1.
       22    1    1    2    0    0  0.12881945592E-01  0.53018817507E-02  0.31930370228E-01  0.34836805469E-01  0.00000000000E+00 0.  1.
       22    1    1    2    0    0 -0.38449310038E-02 -0.32168422189E-02 -0.74007425604E-02  0.89388231178E-02  0.00000000000E+00 0. -1.
</event>
<event>
 5   0  0.4146200E+04  0.9118800E+02  0.7546771E-02  0.1180000E+00
      -11   -1    0    0    0    0  0.00000000000E+00  0.00000000000E+00  0.34996269501E-01  0.35000000000E-01  0.51099999109E-03 0. -1.
       11   -1    0    0    0    0 -0.00000000000E+00 -0.00000000000E+00 -0.34996269501E-01  0.35000000000E-01  0.51099999109E-03 0.  1.
       22    1    1    2    0    0  0.15728967068E-01  0.10376527897E-02 -0.31196798995E-01  0.34953074197E-01  0.00000000000E+00 0. -1.
       22    1    1    2    0    0 -0.11064041432E-03  0.29666465363E-04  0.12494768349E-02  0.12547166060E-02  0.00000000000E+00 0. -1.
       22    1    1    2    0    0 -0.15618326653E-01 -0.10673192551E-02  0.29947322160E-01  0.33792209197E-01  0.00000000000E+00 0.  1.
</event>
<event>
 5   0  0.4146200E+04  0.9118800E+02  0.7546771E-02  0.1180000E+00
      -11   -1    0    0    0    0  0.00000000000E+00  0.00000000000E+00  0.34996269501E-01  0.35000000000E-01  0.51099999109E-03 0.  1.
       11   -1    0    0    0    0 -0.00000000000E+00 -0.00000000000E+00 -0.34996269501E-01  0.35000000000E-01  0.51099999109E-03 0. -1.
       22    1    1    2    0    0 -0.11586105156E-02 -0.38711069771E-03 -0.19648983701E-01  0.19686919350E-01  0.00000000000E+00 0.  1.
       22    1    1    2    0    0 -0.57976484042E-02 -0.19317644889E-02 -0.14315929958E-01  0.15565676716E-01  0.00000000000E+00 0. -1.
       22    1    1    2    0    0  0.69562589198E-02  0.23188751867E-02  0.33964913659E-01  0.34747403934E-01  0.00000000000E+00 0.  1.
</event>
<event>
 5   0  0.4146200E+04  0.9118800E+02  0.7546771E-02  0.1180000E+00
      -11   -1    0    0    0    0  0.00000000000E+00  0.00000000000E+00  0.34996269501E-01  0.35000000000E-01  0.51099999109E-03 0. -1.
       11   -1    0    0    0    0 -0.00000000000E+00 -0.00000000000E+00 -0.34996269501E-01  0.35000000000E-01  0.51099999109E-03 0.  1.
       22    1    1    2    0    0 -0.13802067556E-01  0.11431747638E-01  0.19122749352E-01  0.26208042003E-01  0.00000000000E+00 0. -1.
       22    1    1    2    0    0  0.13485574474E-01 -0.11381841228E-01 -0.28979710939E-01  0.33929790373E-01  0.00000000000E+00 0.  1.
       22    1    1    2    0    0  0.31649308211E-03 -0.49906409891E-04  0.98569615867E-02  0.98621676240E-02  0.00000000000E+00 0. -1.
</event>
<event>
 5   0  0.4146200E+04  0.9118800E+02  0.7546771E-02  0.1180000E+00
      -11   -1    0    0    0    0  0.00000000000E+00  0.00000000000E+00  0.34996269501E-01  0.35000000000E-01  0.51099999109E-03 0. -1.
       11   -1    0    0    0    0 -0.00000000000E+00 -0.00000000000E+00 -0.34996269501E-01  0.35000000000E-01  0.51099999109E-03 0.  1.
       22    1    1    2    0    0 -0.13692593957E-01 -0.11319773557E-01  0.13959157609E-01  0.22593859427E-01  0.00000000000E+00 0. -1.
       22    1    1    2    0    0  0.22729694759E-01  0.53243441051E-02 -0.23380821987E-01  0.33040134696E-01  0.00000000000E+00 0.  1.
       22    1    1    2    0    0 -0.90371008021E-02  0.59954294517E-02  0.94216643776E-02  0.14366005877E-01  0.00000000000E+00 0.  1.
</event>
<event>
 5   0  0.4146200E+04  0.9118800E+02  0.7546771E-02  0.1180000E+00
      -11   -1    0    0    0    0  0.00000000000E+00  0.00000000000E+00  0.34996269501E-01  0.35000000000E-01  0.51099999109E-03 0. -1.
       11   -1    0    0    0    0 -0.00000000000E+00 -0.00000000000E+00 -0.34996269501E-01  0.35000000000E-01  0.51099999109E-03 0.  1.
       22    1    1    2    0    0  0.49308776695E-02  0.17307921646E-01 -0.18612720121E-01  0.25890366096E-01  0.00000000000E+00 0.  1.
       22    1    1    2    0    0 -0.50448021507E-02 -0.17927937578E-01  0.28585296229E-01  0.34117153091E-01  0.00000000000E+00 0. -1.
       22    1    1    2    0    0  0.11392448117E-03  0.62001593180E-03 -0.99725761088E-02  0.99924808125E-02  0.00000000000E+00 0.  1.
</event>
<event>
 5   0  0.4146200E+04  0.9118800E+02  0.7546771E-02  0.1180000E+00
      -11   -1    0    0    0    0  0.00000000000E+00  0.00000000000E+00  0.34996269501E-01  0.35000000000E-01  0.51099999109E-03 0. -1.
       11   -1    0    0    0    0 -0.00000000000E+00 -0.00000000000E+00 -0.34996269501E-01  0.35000000000E-01  0.51099999109E-03 0. -1.
       22    1    1    2    0    0  0.18353223141E-02  0.10973860426E-02 -0.29340284786E-02  0.36305904804E-02  0.00000000000E+00 0.  1.
       22    1    1    2    0    0 -0.18353223141E-02 -0.10973860426E-02 -0.31681958637E-01  0.31754041746E-01  0.00000000000E+00 0. -1.
       22    1    1    2    0    0 -0.00000000000E+00 -0.00000000000E+00  0.34615987116E-01  0.34615367774E-01  0.00000000000E+00 0. -1.
</event>
<event>
 5   0  0.4146200E+04  0.9118800E+02  0.7546771E-02  0.1180000E+00
      -11   -1    0    0    0    0  0.00000000000E+00  0.00000000000E+00  0.34996269501E-01  0.35000000000E-01  0.51099999109E-03 0.  1.
       11   -1    0    0    0    0 -0.00000000000E+00 -0.00000000000E+00 -0.34996269501E-01  0.35000000000E-01  0.51099999109E-03 0. -1.
       22    1    1    2    0    0  0.51939009051E-02  0.14757150592E-01  0.23672944799E-01  0.28375313490E-01  0.00000000000E+00 0.  1.
       22    1    1    2    0    0 -0.62413920153E-02 -0.15226614255E-01 -0.30524414435E-01  0.34677725309E-01  0.00000000000E+00 0. -1.
       22    1    1    2    0    0  0.10474911102E-02  0.46946366301E-03  0.68514696361E-02  0.69469612012E-02  0.00000000000E+00 0.  1.
</event>
<event>
 5   0  0.4146200E+04  0.9118800E+02  0.7546771E-02  0.1180000E+00
      -11   -1    0    0    0    0  0.00000000000E+00  0.00000000000E+00  0.34996269501E-01  0.35000000000E-01  0.51099999109E-03 0. -1.
       11   -1    0    0    0    0 -0.00000000000E+00 -0.00000000000E+00 -0.34996269501E-01  0.35000000000E-01  0.51099999109E-03 0.  1.
       22    1    1    2    0    0  0.97296696955E-03  0.17471227258E-03 -0.29906816260E-01  0.29923149031E-01  0.00000000000E+00 0.  1.
       22    1    1    2    0    0 -0.21647050162E-02  0.22084687552E-02  0.34568952882E-01  0.34706999084E-01  0.00000000000E+00 0. -1.
       22    1    1    2    0    0  0.11917380466E-02 -0.23831810277E-02 -0.46621366221E-02  0.53698518849E-02  0.00000000000E+00 0.  1.
</event>
<event>
 5   0  0.4146200E+04  0.9118800E+02  0.7546771E-02  0.1180000E+00
      -11   -1    0    0    0    0  0.00000000000E+00  0.00000000000E+00  0.34996269501E-01  0.35000000000E-01  0.51099999109E-03 0. -1.
       11   -1    0    0    0    0 -0.00000000000E+00 -0.00000000000E+00 -0.34996269501E-01  0.35000000000E-01  0.51099999109E-03 0.  1.
       22    1    1    2    0    0  0.99561933513E-02 -0.19409427701E-02 -0.88121629382E-02  0.13436787582E-01  0.00000000000E+00 0. -1.
       22    1    1    2    0    0  0.31218139934E-03  0.41206625195E-03  0.31556940494E-01  0.31561174711E-01  0.00000000000E+00 0. -1.
       22    1    1    2    0    0 -0.10268374751E-01  0.15288765181E-02 -0.22744777555E-01  0.25002037706E-01  0.00000000000E+00 0.  1.
</event>
<event>
 5   0  0.4146200E+04  0.9118800E+02  0.7546771E-02  0.1180000E+00
      -11   -1    0    0    0    0  0.00000000000E+00  0.00000000000E+00  0.34996269501E-01  0.35000000000E-01  0.51099999109E-03 0.  1.
       11   -1    0    0    0    0 -0.00000000000E+00 -0.00000000000E+00 -0.34996269501E-01  0.35000000000E-01  0.51099999109E-03 0. -1.
       22    1    1    2    0    0 -0.57290919734E-02  0.86729733017E-02  0.32846066465E-01  0.34451517281E-01  0.00000000000E+00 0.  1.
       22    1    1    2    0    0  0.40169539347E-02 -0.15921128762E-02 -0.22400839634E-01  0.22813775633E-01  0.00000000000E+00 0. -1.
       22    1    1    2    0    0  0.17121380387E-02 -0.70808604255E-02 -0.10445226831E-01  0.12734707086E-01  0.00000000000E+00 0. -1.
</event>
<event>
 5   0  0.4146200E+04  0.9118800E+02  0.7546771E-02  0.1180000E+00
      -11   -1    0    0    0    0  0.00000000000E+00  0.00000000000E+00  0.34996269501E-01  0.35000000000E-01  0.51099999109E-03 0. -1.
       11   -1    0    0    0    0 -0.00000000000E+00 -0.00000000000E+00 -0.34996269501E-01  0.35000000000E-01  0.51099999109E-03 0.  1.
       22    1    1    2    0    0  0.83061387804E-03 -0.24773842341E-02  0.27096769735E-02  0.37642663772E-02  0.00000000000E+00 0.  1.
       22    1    1    2    0    0  0.14441829239E-01  0.90862948018E-02 -0.29860149040E-01  0.34391215240E-01  0.00000000000E+00 0.  1.
       22    1    1    2    0    0 -0.15272443117E-01 -0.66089105677E-02  0.27150472066E-01  0.31844518383E-01  0.00000000000E+00 0. -1.
</event>
<event>
 5   0  0.4146200E+04  0.9118800E+02  0.7546771E-02  0.1180000E+00
      -11   -1    0    0    0    0  0.00000000000E+00  0.00000000000E+00  0.34996269501E-01  0.35000000000E-01  0.51099999109E-03 0. -1.
       11   -1    0    0    0    0 -0.00000000000E+00 -0.00000000000E+00 -0.34996269501E-01  0.35000000000E-01  0.51099999109E-03 0.  1.
       22    1    1    2    0    0  0.97905885791E-02  0.19082180325E-02 -0.33124309403E-01  0.34593594699E-01  0.00000000000E+00 0.  1.
       22    1    1    2    0    0 -0.97970152627E-02 -0.17136095118E-02  0.33520546241E-01  0.34964910781E-01  0.00000000000E+00 0. -1.
       22    1    1    2    0    0  0.64266835605E-05 -0.19460852069E-03 -0.39623683874E-03  0.44149451974E-03  0.00000000000E+00 0. -1.
</event>
<event>
 5   0  0.4146200E+04  0.9118800E+02  0.7546771E-02  0.1180000E+00
      -11   -1    0    0    0    0  0.00000000000E+00  0.00000000000E+00  0.34996269501E-01  0.35000000000E-01  0.51099999109E-03 0.  1.
       11   -1    0    0    0    0 -0.00000000000E+00 -0.00000000000E+00 -0.34996269501E-01  0.35000000000E-01  0.51099999109E-03 0. -1.
       22    1    1    2    0    0  0.85752054314E-02 -0.12974500113E-01  0.30194334596E-01  0.33964240652E-01  0.00000000000E+00 0.  1.
       22    1    1    2    0    0 -0.77113007296E-03  0.85321536960E-02 -0.22953984748E-01  0.24500565383E-01  0.00000000000E+00 0. -1.
       22    1    1    2    0    0 -0.78040753585E-02  0.44423464173E-02 -0.72403498479E-02  0.11535193965E-01  0.00000000000E+00 0. -1.
</event>
<event>
 5   0  0.4146200E+04  0.9118800E+02  0.7546771E-02  0.1180000E+00
      -11   -1    0    0    0    0  0.00000000000E+00  0.00000000000E+00  0.34996269501E-01  0.35000000000E-01  0.51099999109E-03 0.  1.
       11   -1    0    0    0    0 -0.00000000000E+00 -0.00000000000E+00 -0.34996269501E-01  0.35000000000E-01  0.51099999109E-03 0. -1.
       22    1    1    2    0    0  0.25272160894E-03  0.36681081601E-03  0.31314057583E-03  0.54449555242E-03  0.00000000000E+00 0.  1.
       22    1    1    2    0    0  0.10064658317E-01  0.15230924673E-01  0.29246613899E-01  0.34476699929E-01  0.00000000000E+00 0.  1.
       22    1    1    2    0    0 -0.10317379926E-01 -0.15597735489E-01 -0.29559754475E-01  0.34978804519E-01  0.00000000000E+00 0. -1.
</event>
<event>
 5   0  0.4146200E+04  0.9118800E+02  0.7546771E-02  0.1180000E+00
      -11   -1    0    0    0    0  0.00000000000E+00  0.00000000000E+00  0.34996269501E-01  0.35000000000E-01  0.51099999109E-03 0.  1.
       11   -1    0    0    0    0 -0.00000000000E+00 -0.00000000000E+00 -0.34996269501E-01  0.35000000000E-01  0.51099999109E-03 0. -1.
       22    1    1    2    0    0 -0.16369879773E-03 -0.20760210053E-03 -0.34561235513E-03  0.43513656309E-03  0.00000000000E+00 0.  1.
       22    1    1    2    0    0  0.44456694428E-02 -0.30726111944E-01  0.15672605597E-01  0.34777701163E-01  0.00000000000E+00 0.  1.
       22    1    1    2    0    0 -0.42819706451E-02  0.30933714045E-01 -0.15326993242E-01  0.34787162274E-01  0.00000000000E+00 0. -1.
</event>
<event>
 5   0  0.4146200E+04  0.9118800E+02  0.7546771E-02  0.1180000E+00
      -11   -1    0    0    0    0  0.00000000000E+00  0.00000000000E+00  0.34996269501E-01  0.35000000000E-01  0.51099999109E-03 0.  1.
       11   -1    0    0    0    0 -0.00000000000E+00 -0.00000000000E+00 -0.34996269501E-01  0.35000000000E-01  0.51099999109E-03 0. -1.
       22    1    1    2    0    0 -0.17754331972E-01  0.19585510006E-02  0.29841812133E-01  0.34779102593E-01  0.00000000000E+00 0.  1.
       22    1    1    2    0    0  0.25020572101E-02  0.14941504487E-02 -0.31969245171E-02  0.43258643314E-02  0.00000000000E+00 0. -1.
       22    1    1    2    0    0  0.15252274762E-01 -0.34527014493E-02 -0.26644887616E-01  0.30895033076E-01  0.00000000000E+00 0. -1.
</event>
<event>
 5   0  0.4146200E+04  0.9118800E+02  0.7546771E-02  0.1180000E+00
      -11   -1    0    0    0    0  0.00000000000E+00  0.00000000000E+00  0.34996269501E-01  0.35000000000E-01  0.51099999109E-03 0.  1.
       11   -1    0    0    0    0 -0.00000000000E+00 -0.00000000000E+00 -0.34996269501E-01  0.35000000000E-01  0.51099999109E-03 0. -1.
       22    1    1    2    0    0 -0.66002526241E-03 -0.24509818643E-03 -0.16708852452E-02  0.18131640771E-02  0.00000000000E+00 0. -1.
       22    1    1    2    0    0  0.11353404806E-01 -0.30139562463E-01  0.11984532135E-01  0.34364546216E-01  0.00000000000E+00 0.  1.
       22    1    1    2    0    0 -0.10693379543E-01  0.30384660649E-01 -0.10313646890E-01  0.33822289707E-01  0.00000000000E+00 0. -1.
</event>
<event>
 5   0  0.4146200E+04  0.9118800E+02  0.7546771E-02  0.1180000E+00
      -11   -1    0    0    0    0  0.00000000000E+00  0.00000000000E+00  0.34996269501E-01  0.35000000000E-01  0.51099999109E-03 0. -1.
       11   -1    0    0    0    0 -0.00000000000E+00 -0.00000000000E+00 -0.34996269501E-01  0.35000000000E-01  0.51099999109E-03 0.  1.
       22    1    1    2    0    0  0.75907171501E-04  0.13504597431E-03  0.89532806271E-02  0.89546207793E-02  0.00000000000E+00 0.  1.
       22    1    1    2    0    0 -0.13416560061E-01 -0.99139292325E-02  0.21005342923E-01  0.26823767595E-01  0.00000000000E+00 0. -1.
       22    1    1    2    0    0  0.13340652889E-01  0.97788832582E-02 -0.29958623550E-01  0.34221611626E-01  0.00000000000E+00 0.  1.
</event>
<event>
 5   0  0.4146200E+04  0.9118800E+02  0.7546771E-02  0.1180000E+00
      -11   -1    0    0    0    0  0.00000000000E+00  0.00000000000E+00  0.34996269501E-01  0.35000000000E-01  0.51099999109E-03 0. -1.
       11   -1    0    0    0    0 -0.00000000000E+00 -0.00000000000E+00 -0.34996269501E-01  0.35000000000E-01  0.51099999109E-03 0.  1.
       22    1    1    2    0    0 -0.45065108921E-03  0.12235098502E-02  0.34914534901E-01  0.34938872479E-01  0.00000000000E+00 0. -1.
       22    1    1    2    0    0 -0.21014209408E-04 -0.34131166722E-03 -0.37651999952E-03  0.50862811682E-03  0.00000000000E+00 0. -1.
       22    1    1    2    0    0  0.47166529862E-03 -0.88219818302E-03 -0.34538014901E-01  0.34552499404E-01  0.00000000000E+00 0.  1.
</event>
<event>
 5   0  0.4146200E+04  0.9118800E+02  0.7546771E-02  0.1180000E+00
      -11   -1    0    0    0    0  0.00000000000E+00  0.00000000000E+00  0.34996269501E-01  0.35000000000E-01  0.51099999109E-03 0. -1.
       11   -1    0    0    0    0 -0.00000000000E+00 -0.00000000000E+00 -0.34996269501E-01  0.35000000000E-01  0.51099999109E-03 0.  1.
       22    1    1    2    0    0  0.18373193003E-01  0.94320934187E-02  0.17680116284E-01  0.27186855633E-01  0.00000000000E+00 0. -1.
       22    1    1    2    0    0 -0.83958685066E-03 -0.10816742324E-02  0.93944118484E-02  0.94936768010E-02  0.00000000000E+00 0. -1.
       22    1    1    2    0    0 -0.17533606152E-01 -0.83504191863E-02 -0.27074528133E-01  0.33319467566E-01  0.00000000000E+00 0.  1.
</event>
<event>
 5   0  0.4146200E+04  0.9118800E+02  0.7546771E-02  0.1180000E+00
      -11   -1    0    0    0    0  0.00000000000E+00  0.00000000000E+00  0.34996269501E-01  0.35000000000E-01  0.51099999109E-03 0. -1.
       11   -1    0    0    0    0 -0.00000000000E+00 -0.00000000000E+00 -0.34996269501E-01  0.35000000000E-01  0.51099999109E-03 0.  1.
       22    1    1    2    0    0  0.14486658158E-01 -0.32275872302E-02  0.19000771064E-01  0.24110368827E-01  0.00000000000E+00 0. -1.
       22    1    1    2    0    0 -0.14429695947E-01  0.32833865365E-02 -0.30757623265E-01  0.34132508569E-01  0.00000000000E+00 0.  1.
       22    1    1    2    0    0 -0.56962210942E-04 -0.55799306274E-04  0.11756852201E-01  0.11757122604E-01  0.00000000000E+00 0. -1.
</event>
<event>
 5   0  0.4146200E+04  0.9118800E+02  0.7546771E-02  0.1180000E+00
      -11   -1    0    0    0    0  0.00000000000E+00  0.00000000000E+00  0.34996269501E-01  0.35000000000E-01  0.51099999109E-03 0. -1.
       11   -1    0    0    0    0 -0.00000000000E+00 -0.00000000000E+00 -0.34996269501E-01  0.35000000000E-01  0.51099999109E-03 0.  1.
       22    1    1    2    0    0 -0.55103483090E-02  0.19504966657E-01 -0.28116152586E-01  0.34660145686E-01  0.00000000000E+00 0.  1.
       22    1    1    2    0    0  0.10393512063E-03 -0.22024818513E-02  0.42897618224E-03  0.22462745557E-02  0.00000000000E+00 0. -1.
       22    1    1    2    0    0  0.54064131884E-02 -0.17302484805E-01  0.27687176404E-01  0.33093579758E-01  0.00000000000E+00 0. -1.
</event>
<event>
 5   0  0.4146200E+04  0.9118800E+02  0.7546771E-02  0.1180000E+00
      -11   -1    0    0    0    0  0.00000000000E+00  0.00000000000E+00  0.34996269501E-01  0.35000000000E-01  0.51099999109E-03 0. -1.
       11   -1    0    0    0    0 -0.00000000000E+00 -0.00000000000E+00 -0.34996269501E-01  0.35000000000E-01  0.51099999109E-03 0.  1.
       22    1    1    2    0    0  0.10065880628E-01 -0.78283228133E-02 -0.32180916211E-01  0.34615256161E-01  0.00000000000E+00 0.  1.
       22    1    1    2    0    0 -0.10143036388E-01  0.81076035116E-02  0.32473204722E-01  0.34973181823E-01  0.00000000000E+00 0. -1.
       22    1    1    2    0    0  0.77155760013E-04 -0.27928069835E-03 -0.29228851120E-03  0.41156201665E-03  0.00000000000E+00 0.  1.
</event>
<event>
 5   0  0.4146200E+04  0.9118800E+02  0.7546771E-02  0.1180000E+00
      -11   -1    0    0    0    0  0.00000000000E+00  0.00000000000E+00  0.34996269501E-01  0.35000000000E-01  0.51099999109E-03 0.  1.
       11   -1    0    0    0    0 -0.00000000000E+00 -0.00000000000E+00 -0.34996269501E-01  0.35000000000E-01  0.51099999109E-03 0.  1.
       22    1    1    2    0    0  0.53804466338E-04 -0.13152338138E-04  0.34272859022E-01  0.34272903779E-01  0.00000000000E+00 0.  1.
       22    1    1    2    0    0  0.45306796342E-02  0.18428645972E-02 -0.13016306493E-01  0.13904943099E-01  0.00000000000E+00 0. -1.
       22    1    1    2    0    0 -0.45844841005E-02 -0.18297122591E-02 -0.21256552530E-01  0.21822153122E-01  0.00000000000E+00 0.  1.
</event>
<event>
 5   0  0.4146200E+04  0.9118800E+02  0.7546771E-02  0.1180000E+00
      -11   -1    0    0    0    0  0.00000000000E+00  0.00000000000E+00  0.34996269501E-01  0.35000000000E-01  0.51099999109E-03 0.  1.
       11   -1    0    0    0    0 -0.00000000000E+00 -0.00000000000E+00 -0.34996269501E-01  0.35000000000E-01  0.51099999109E-03 0. -1.
       22    1    1    2    0    0 -0.14099093856E-03 -0.14306397726E-03 -0.45062392205E-03  0.49336362398E-03  0.00000000000E+00 0.  1.
       22    1    1    2    0    0 -0.13650749377E-02  0.24987748313E-02  0.34863892678E-01  0.34979970239E-01  0.00000000000E+00 0.  1.
       22    1    1    2    0    0  0.15060658763E-02 -0.23557108540E-02 -0.34413268756E-01  0.34526666137E-01  0.00000000000E+00 0. -1.
</event>
<event>
 5   0  0.4146200E+04  0.9118800E+02  0.7546771E-02  0.1180000E+00
      -11   -1    0    0    0    0  0.00000000000E+00  0.00000000000E+00  0.34996269501E-01  0.35000000000E-01  0.51099999109E-03 0. -1.
       11   -1    0    0    0    0 -0.00000000000E+00 -0.00000000000E+00 -0.34996269501E-01  0.35000000000E-01  0.51099999109E-03 0.  1.
       22    1    1    2    0    0  0.23326801680E-02  0.28970006659E-02 -0.88736132223E-02  0.96215914091E-02  0.00000000000E+00 0. -1.
       22    1    1    2    0    0 -0.15352977343E-03 -0.18941209271E-02  0.34543975281E-01  0.34596206349E-01  0.00000000000E+00 0. -1.
       22    1    1    2    0    0 -0.21791503946E-02 -0.10028797388E-02 -0.25670362059E-01  0.25782202242E-01  0.00000000000E+00 0.  1.
</event>
<event>
 5   0  0.4146200E+04  0.9118800E+02  0.7546771E-02  0.1180000E+00
      -11   -1    0    0    0    0  0.00000000000E+00  0.00000000000E+00  0.34996269501E-01  0.35000000000E-01  0.51099999109E-03 0.  1.
       11   -1    0    0    0    0 -0.00000000000E+00 -0.00000000000E+00 -0.34996269501E-01  0.35000000000E-01  0.51099999109E-03 0. -1.
       22    1    1    2    0    0 -0.39578118311E-02 -0.98815654265E-02  0.30280136263E-01  0.32096670573E-01  0.00000000000E+00 0.  1.
       22    1    1    2    0    0  0.10381073475E-01  0.11991133983E-01 -0.18972896262E-01  0.24729026938E-01  0.00000000000E+00 0. -1.
       22    1    1    2    0    0 -0.64232616440E-02 -0.21095685568E-02 -0.11307240001E-01  0.13174302489E-01  0.00000000000E+00 0.  1.
</event>
<event>
 5   0  0.4146200E+04  0.9118800E+02  0.7546771E-02  0.1180000E+00
      -11   -1    0    0    0    0  0.00000000000E+00  0.00000000000E+00  0.34996269501E-01  0.35000000000E-01  0.51099999109E-03 0. -1.
       11   -1    0    0    0    0 -0.00000000000E+00 -0.00000000000E+00 -0.34996269501E-01  0.35000000000E-01  0.51099999109E-03 0.  1.
       22    1    1    2    0    0 -0.13415315728E-01  0.55050379964E-02 -0.29877200329E-01  0.33210288149E-01  0.00000000000E+00 0.  1.
       22    1    1    2    0    0  0.37352537557E-02 -0.19905541055E-02 -0.90699156995E-03  0.43286325756E-02  0.00000000000E+00 0. -1.
       22    1    1    2    0    0  0.96800619726E-02 -0.35144838909E-02  0.30784191899E-01  0.32461079275E-01  0.00000000000E+00 0. -1.
</event>
<event>
 5   0  0.4146200E+04  0.9118800E+02  0.7546771E-02  0.1180000E+00
      -11   -1    0    0    0    0  0.00000000000E+00  0.00000000000E+00  0.34996269501E-01  0.35000000000E-01  0.51099999109E-03 0.  1.
       11   -1    0    0    0    0 -0.00000000000E+00 -0.00000000000E+00 -0.34996269501E-01  0.35000000000E-01  0.51099999109E-03 0.  1.
       22    1    1    2    0    0  0.21092460512E-04  0.14760809980E-03 -0.34644774822E-01  0.34645095692E-01  0.00000000000E+00 0.  1.
       22    1    1    2    0    0 -0.00000000000E+00 -0.00000000000E+00  0.34985739828E-01  0.34982761622E-01  0.00000000000E+00 0.  1.
       22    1    1    2    0    0 -0.21092460512E-04 -0.14760809980E-03 -0.34096500591E-03  0.37214268537E-03  0.00000000000E+00 0.  1.
</event>
<event>
 5   0  0.4146200E+04  0.9118800E+02  0.7546771E-02  0.1180000E+00
      -11   -1    0    0    0    0  0.00000000000E+00  0.00000000000E+00  0.34996269501E-01  0.35000000000E-01  0.51099999109E-03 0.  1.
       11   -1    0    0    0    0 -0.00000000000E+00 -0.00000000000E+00 -0.34996269501E-01  0.35000000000E-01  0.51099999109E-03 0. -1.
       22    1    1    2    0    0 -0.63415677279E-02  0.16379154972E-02 -0.17124355013E-01  0.18334169822E-01  0.00000000000E+00 0. -1.
       22    1    1    2    0    0  0.20643299551E-02 -0.19068252548E-02 -0.17021576402E-01  0.17251999998E-01  0.00000000000E+00 0.  1.
       22    1    1    2    0    0  0.42772377728E-02  0.26890975759E-03  0.34145931416E-01  0.34413830180E-01  0.00000000000E+00 0.  1.
</event>
<event>
 5   0  0.4146200E+04  0.9118800E+02  0.7546771E-02  0.1180000E+00
      -11   -1    0    0    0    0  0.00000000000E+00  0.00000000000E+00  0.34996269501E-01  0.35000000000E-01  0.51099999109E-03 0. -1.
       11   -1    0    0    0    0 -0.00000000000E+00 -0.00000000000E+00 -0.34996269501E-01  0.35000000000E-01  0.51099999109E-03 0. -1.
       22    1    1    2    0    0 -0.25952238427E-03 -0.21775827788E-02 -0.41539392034E-02  0.46972789498E-02  0.00000000000E+00 0.  1.
       22    1    1    2    0    0  0.16608795799E-03 -0.34832646990E-04 -0.30538855855E-01  0.30539327358E-01  0.00000000000E+00 0. -1.
       22    1    1    2    0    0  0.93434426285E-04  0.22124154258E-02  0.34692795059E-01  0.34763393692E-01  0.00000000000E+00 0. -1.
</event>
<event>
 5   0  0.4146200E+04  0.9118800E+02  0.7546771E-02  0.1180000E+00
      -11   -1    0    0    0    0  0.00000000000E+00  0.00000000000E+00  0.34996269501E-01  0.35000000000E-01  0.51099999109E-03 0. -1.
       11   -1    0    0    0    0 -0.00000000000E+00 -0.00000000000E+00 -0.34996269501E-01  0.35000000000E-01  0.51099999109E-03 0.  1.
       22    1    1    2    0    0  0.16067005199E-02 -0.15883676538E-02  0.13486507665E-01  0.13674439198E-01  0.00000000000E+00 0. -1.
       22    1    1    2    0    0  0.10669974946E-01  0.14694005501E-01  0.14387296840E-01  0.23168005382E-01  0.00000000000E+00 0. -1.
       22    1    1    2    0    0 -0.12276675466E-01 -0.13105637847E-01 -0.27873804505E-01  0.33157555421E-01  0.00000000000E+00 0.  1.
</event>
<event>
 5   0  0.4146200E+04  0.9118800E+02  0.7546771E-02  0.1180000E+00
      -11   -1    0    0    0    0  0.00000000000E+00  0.00000000000E+00  0.34996269501E-01  0.35000000000E-01  0.51099999109E-03 0. -1.
       11   -1    0    0    0    0 -0.00000000000E+00 -0.00000000000E+00 -0.34996269501E-01  0.35000000000E-01  0.51099999109E-03 0.  1.
       22    1    1    2    0    0 -0.46265898746E-02  0.29388360505E-02 -0.55382671895E-02  0.77919506327E-02  0.00000000000E+00 0.  1.
       22    1    1    2    0    0  0.13559591257E-01 -0.58774852839E-02 -0.25666449172E-01  0.29617122774E-01  0.00000000000E+00 0.  1.
       22    1    1    2    0    0 -0.89330013825E-02  0.29386492335E-02  0.31204716361E-01  0.32590926593E-01  0.00000000000E+00 0. -1.
</event>
<event>
 5   0  0.4146200E+04  0.9118800E+02  0.7546771E-02  0.1180000E+00
      -11   -1    0    0    0    0  0.00000000000E+00  0.00000000000E+00  0.34996269501E-01  0.35000000000E-01  0.51099999109E-03 0.  1.
       11   -1    0    0    0    0 -0.00000000000E+00 -0.00000000000E+00 -0.34996269501E-01  0.35000000000E-01  0.51099999109E-03 0.  1.
       22    1    1    2    0    0  0.29306006405E-03 -0.50880832992E-04 -0.34016307235E-01  0.34017607661E-01  0.00000000000E+00 0.  1.
       22    1    1    2    0    0 -0.18750540528E-03  0.51884737306E-03  0.34938516082E-01  0.34942871475E-01  0.00000000000E+00 0.  1.
       22    1    1    2    0    0 -0.10555465877E-03 -0.46796654006E-03 -0.92220884733E-03  0.10395208640E-02  0.00000000000E+00 0.  1.
</event>
<event>
 5   0  0.4146200E+04  0.9118800E+02  0.7546771E-02  0.1180000E+00
      -11   -1    0    0    0    0  0.00000000000E+00  0.00000000000E+00  0.34996269501E-01  0.35000000000E-01  0.51099999109E-03 0.  1.
       11   -1    0    0    0    0 -0.00000000000E+00 -0.00000000000E+00 -0.34996269501E-01  0.35000000000E-01  0.51099999109E-03 0. -1.
       22    1    1    2    0    0 -0.17984248056E-02 -0.11313398184E-01  0.31778648238E-01  0.33780316667E-01  0.00000000000E+00 0.  1.
       22    1    1    2    0    0  0.13358016307E-03  0.21530737954E-04  0.12588402843E-02  0.12660908712E-02  0.00000000000E+00 0.  1.
       22    1    1    2    0    0  0.16648446425E-02  0.11291867446E-01 -0.33037488523E-01  0.34953592462E-01  0.00000000000E+00 0. -1.
</event>
<event>
 5   0  0.4146200E+04  0.9118800E+02  0.7546771E-02  0.1180000E+00
      -11   -1    0    0    0    0  0.00000000000E+00  0.00000000000E+00  0.34996269501E-01  0.35000000000E-01  0.51099999109E-03 0. -1.
       11   -1    0    0    0    0 -0.00000000000E+00 -0.00000000000E+00 -0.34996269501E-01  0.35000000000E-01  0.51099999109E-03 0.  1.
       22    1    1    2    0    0 -0.68490367473E-02 -0.21813991341E-01 -0.25918176209E-01  0.34561703959E-01  0.00000000000E+00 0.  1.
       22    1    1    2    0    0  0.76832947585E-03 -0.40785084243E-03  0.16778656899E-03  0.88590339534E-03  0.00000000000E+00 0. -1.
       22    1    1    2    0    0  0.60807072714E-02  0.22221842183E-01  0.25750389640E-01  0.34552392645E-01  0.00000000000E+00 0. -1.
</event>
<event>
 5   0  0.4146200E+04  0.9118800E+02  0.7546771E-02  0.1180000E+00
      -11   -1    0    0    0    0  0.00000000000E+00  0.00000000000E+00  0.34996269501E-01  0.35000000000E-01  0.51099999109E-03 0. -1.
       11   -1    0    0    0    0 -0.00000000000E+00 -0.00000000000E+00 -0.34996269501E-01  0.35000000000E-01  0.51099999109E-03 0.  1.
       22    1    1    2    0    0  0.81018415902E-02  0.24987369830E-01 -0.20313049497E-01  0.33205849907E-01  0.00000000000E+00 0.  1.
       22    1    1    2    0    0  0.41930038829E-03  0.51066667992E-03 -0.18422390962E-02  0.19571505208E-02  0.00000000000E+00 0.  1.
       22    1    1    2    0    0 -0.85211419784E-02 -0.25498036510E-01  0.22155288594E-01  0.34836999572E-01  0.00000000000E+00 0. -1.
</event>
<event>
 5   0  0.4146200E+04  0.9118800E+02  0.7546771E-02  0.1180000E+00
      -11   -1    0    0    0    0  0.00000000000E+00  0.00000000000E+00  0.34996269501E-01  0.35000000000E-01  0.51099999109E-03 0.  1.
       11   -1    0    0    0    0 -0.00000000000E+00 -0.00000000000E+00 -0.34996269501E-01  0.35000000000E-01  0.51099999109E-03 0. -1.
       22    1    1    2    0    0  0.17694967075E-02 -0.30836095792E-03 -0.37425020649E-02  0.41512078705E-02  0.00000000000E+00 0. -1.
       22    1    1    2    0    0 -0.62447898988E-03 -0.67133392156E-03 -0.31030054613E-01  0.31043597610E-01  0.00000000000E+00 0. -1.
       22    1    1    2    0    0 -0.11450177176E-02  0.97969487947E-03  0.34772556678E-01  0.34805194520E-01  0.00000000000E+00 0.  1.
</event>
<event>
 5   0  0.4146200E+04  0.9118800E+02  0.7546771E-02  0.1180000E+00
      -11   -1    0    0    0    0  0.00000000000E+00  0.00000000000E+00  0.34996269501E-01  0.35000000000E-01  0.51099999109E-03 0.  1.
       11   -1    0    0    0    0 -0.00000000000E+00 -0.00000000000E+00 -0.34996269501E-01  0.35000000000E-01  0.51099999109E-03 0. -1.
       22    1    1    2    0    0 -0.14845649774E-03 -0.70742343663E-02 -0.33903759212E-01  0.34634256451E-01  0.00000000000E+00 0. -1.
       22    1    1    2    0    0  0.10411445056E-03 -0.13399817258E-03 -0.33547403150E-03  0.37594967068E-03  0.00000000000E+00 0. -1.
       22    1    1    2    0    0  0.44342047185E-04  0.72082325389E-02  0.34239233244E-01  0.34989793878E-01  0.00000000000E+00 0.  1.
</event>
<event>
 5   0  0.4146200E+04  0.9118800E+02  0.7546771E-02  0.1180000E+00
      -11   -1    0    0    0    0  0.00000000000E+00  0.00000000000E+00  0.34996269501E-01  0.35000000000E-01  0.51099999109E-03 0. -1.
       11   -1    0    0    0    0 -0.00000000000E+00 -0.00000000000E+00 -0.34996269501E-01  0.35000000000E-01  0.51099999109E-03 0.  1.
       22    1    1    2    0    0  0.14566445787E-03 -0.23699227262E-03  0.27060307396E-03  0.38808439186E-03  0.00000000000E+00 0. -1.
       22    1    1    2    0    0  0.51333700166E-03 -0.12025623800E-01  0.32477924030E-01  0.34636609129E-01  0.00000000000E+00 0. -1.
       22    1    1    2    0    0 -0.65900145953E-03  0.12262616073E-01 -0.32748527104E-01  0.34975306479E-01  0.00000000000E+00 0.  1.
</event>
<event>
 5   0  0.4146200E+04  0.9118800E+02  0.7546771E-02  0.1180000E+00
      -11   -1    0    0    0    0  0.00000000000E+00  0.00000000000E+00  0.34996269501E-01  0.35000000000E-01  0.51099999109E-03 0.  1.
       11   -1    0    0    0    0 -0.00000000000E+00 -0.00000000000E+00 -0.34996269501E-01  0.35000000000E-01  0.51099999109E-03 0. -1.
       22    1    1    2    0    0  0.16044035234E-01 -0.64070107989E-02  0.30400441342E-01  0.34966379392E-01  0.00000000000E+00 0.  1.
       22    1    1    2    0    0 -0.15733025577E-01  0.65677984122E-02 -0.29957034389E-01  0.34468652123E-01  0.00000000000E+00 0. -1.
       22    1    1    2    0    0 -0.31100965713E-03 -0.16078761334E-03 -0.44340695241E-03  0.56496848486E-03  0.00000000000E+00 0. -1.
</event>
<event>
 5   0  0.4146200E+04  0.9118800E+02  0.7546771E-02  0.1180000E+00
      -11   -1    0    0    0    0  0.00000000000E+00  0.00000000000E+00  0.34996269501E-01  0.35000000000E-01  0.51099999109E-03 0.  1.
       11   -1    0    0    0    0 -0.00000000000E+00 -0.00000000000E+00 -0.34996269501E-01  0.35000000000E-01  0.51099999109E-03 0. -1.
       22    1    1    2    0    0 -0.76361183071E-02 -0.13483839505E-01  0.30907345732E-01  0.34574387208E-01  0.00000000000E+00 0.  1.
       22    1    1    2    0    0  0.17981558592E-05 -0.15604338836E-04  0.44602902564E-03  0.44630552368E-03  0.00000000000E+00 0.  1.
       22    1    1    2    0    0  0.76343201513E-02  0.13499443844E-01 -0.31353374758E-01  0.34979307268E-01  0.00000000000E+00 0. -1.
</event>
<event>
 5   0  0.4146200E+04  0.9118800E+02  0.7546771E-02  0.1180000E+00
      -11   -1    0    0    0    0  0.00000000000E+00  0.00000000000E+00  0.34996269501E-01  0.35000000000E-01  0.51099999109E-03 0. -1.
       11   -1    0    0    0    0 -0.00000000000E+00 -0.00000000000E+00 -0.34996269501E-01  0.35000000000E-01  0.51099999109E-03 0.  1.
       22    1    1    2    0    0 -0.28450907853E-02 -0.25519080454E-02 -0.72671263332E-02  0.82108404802E-02  0.00000000000E+00 0.  1.
       22    1    1    2    0    0  0.21497192704E-02 -0.14485103577E-01 -0.22873627336E-01  0.27159571906E-01  0.00000000000E+00 0.  1.
       22    1    1    2    0    0  0.69537151492E-03  0.17037011622E-01  0.30140753670E-01  0.34629587614E-01  0.00000000000E+00 0. -1.
</event>
<event>
 5   0  0.4146200E+04  0.9118800E+02  0.7546771E-02  0.1180000E+00
      -11   -1    0    0    0    0  0.00000000000E+00  0.00000000000E+00  0.34996269501E-01  0.35000000000E-01  0.51099999109E-03 0. -1.
       11   -1    0    0    0    0 -0.00000000000E+00 -0.00000000000E+00 -0.34996269501E-01  0.35000000000E-01  0.51099999109E-03 0.  1.
       22    1    1    2    0    0  0.18224213156E-01  0.15503950022E-01  0.20183821624E-01  0.31303052036E-01  0.00000000000E+00 0. -1.
       22    1    1    2    0    0 -0.17540136156E-01 -0.16649417316E-01 -0.24352119659E-01  0.34320332242E-01  0.00000000000E+00 0.  1.
       22    1    1    2    0    0 -0.68407700027E-03  0.11454672933E-02  0.41682980354E-02  0.43766157216E-02  0.00000000000E+00 0.  1.
</event>
<event>
 5   0  0.4146200E+04  0.9118800E+02  0.7546771E-02  0.1180000E+00
      -11   -1    0    0    0    0  0.00000000000E+00  0.00000000000E+00  0.34996269501E-01  0.35000000000E-01  0.51099999109E-03 0.  1.
       11   -1    0    0    0    0 -0.00000000000E+00 -0.00000000000E+00 -0.34996269501E-01  0.35000000000E-01  0.51099999109E-03 0. -1.
       22    1    1    2    0    0  0.77282434875E-02 -0.94999329705E-04 -0.20078009695E-02  0.79853639246E-02  0.00000000000E+00 0. -1.
       22    1    1    2    0    0 -0.13862714929E-01  0.36381322447E-02 -0.27853479653E-01  0.31324546289E-01  0.00000000000E+00 0. -1.
       22    1    1    2    0    0  0.61344714418E-02 -0.35431329150E-02  0.29861280622E-01  0.30690089787E-01  0.00000000000E+00 0.  1.
</event>
<event>
 5   0  0.4146200E+04  0.9118800E+02  0.7546771E-02  0.1180000E+00
      -11   -1    0    0    0    0  0.00000000000E+00  0.00000000000E+00  0.34996269501E-01  0.35000000000E-01  0.51099999109E-03 0. -1.
       11   -1    0    0    0    0 -0.00000000000E+00 -0.00000000000E+00 -0.34996269501E-01  0.35000000000E-01  0.51099999109E-03 0.  1.
       22    1    1    2    0    0  0.91884892180E-03 -0.10334495478E-03 -0.34660722682E-01  0.34673053807E-01  0.00000000000E+00 0.  1.
       22    1    1    2    0    0 -0.89769123206E-03 -0.16067048121E-04  0.34976841929E-01  0.34988363480E-01  0.00000000000E+00 0. -1.
       22    1    1    2    0    0 -0.21157689744E-04  0.11941200290E-03 -0.31611924770E-03  0.33858271226E-03  0.00000000000E+00 0. -1.
</event>
<event>
 5   0  0.4146200E+04  0.9118800E+02  0.7546771E-02  0.1180000E+00
      -11   -1    0    0    0    0  0.00000000000E+00  0.00000000000E+00  0.34996269501E-01  0.35000000000E-01  0.51099999109E-03 0.  1.
       11   -1    0    0    0    0 -0.00000000000E+00 -0.00000000000E+00 -0.34996269501E-01  0.35000000000E-01  0.51099999109E-03 0.  1.
       22    1    1    2    0    0 -0.76371128341E-04 -0.40740872688E-04  0.13346604983E-01  0.13346885665E-01  0.00000000000E+00 0.  1.
       22    1    1    2    0    0  0.92422063096E-02  0.15682673586E-01 -0.27962491344E-01  0.33365634273E-01  0.00000000000E+00 0.  1.
       22    1    1    2    0    0 -0.91658351812E-02 -0.15641932713E-01  0.14615886360E-01  0.23287480063E-01  0.00000000000E+00 0. -1.
</event>
<event>
 5   0  0.4146200E+04  0.9118800E+02  0.7546771E-02  0.1180000E+00
      -11   -1    0    0    0    0  0.00000000000E+00  0.00000000000E+00  0.34996269501E-01  0.35000000000E-01  0.51099999109E-03 0. -1.
       11   -1    0    0    0    0 -0.00000000000E+00 -0.00000000000E+00 -0.34996269501E-01  0.35000000000E-01  0.51099999109E-03 0.  1.
       22    1    1    2    0    0  0.58876498792E-02 -0.30175129881E-03  0.17358960458E-01  0.18332729833E-01  0.00000000000E+00 0. -1.
       22    1    1    2    0    0  0.90050952793E-02 -0.14350809855E-01 -0.24325496602E-01  0.29644008997E-01  0.00000000000E+00 0.  1.
       22    1    1    2    0    0 -0.14892745158E-01  0.14652561153E-01  0.69665361447E-02  0.22023261170E-01  0.00000000000E+00 0. -1.
</event>
<event>
 5   0  0.4146200E+04  0.9118800E+02  0.7546771E-02  0.1180000E+00
      -11   -1    0    0    0    0  0.00000000000E+00  0.00000000000E+00  0.34996269501E-01  0.35000000000E-01  0.51099999109E-03 0. -1.
       11   -1    0    0    0    0 -0.00000000000E+00 -0.00000000000E+00 -0.34996269501E-01  0.35000000000E-01  0.51099999109E-03 0.  1.
       22    1    1    2    0    0  0.27412299163E-01  0.16527086449E-01  0.48459689888E-02  0.32373787967E-01  0.00000000000E+00 0.  1.
       22    1    1    2    0    0 -0.10975467605E-02 -0.28889427636E-02 -0.72587676553E-02  0.78892526297E-02  0.00000000000E+00 0.  1.
       22    1    1    2    0    0 -0.26314752402E-01 -0.13638143685E-01  0.24127986664E-02  0.29736959404E-01  0.00000000000E+00 0. -1.
</event>
<event>
 5   0  0.4146200E+04  0.9118800E+02  0.7546771E-02  0.1180000E+00
      -11   -1    0    0    0    0  0.00000000000E+00  0.00000000000E+00  0.34996269501E-01  0.35000000000E-01  0.51099999109E-03 0.  1.
       11   -1    0    0    0    0 -0.00000000000E+00 -0.00000000000E+00 -0.34996269501E-01  0.35000000000E-01  0.51099999109E-03 0. -1.
       22    1    1    2    0    0  0.54526088014E-02  0.14443920189E-02 -0.56108936317E-02  0.79560881337E-02  0.00000000000E+00 0.  1.
       22    1    1    2    0    0  0.12773051386E-01 -0.38553124996E-02  0.29219447870E-01  0.32121494517E-01  0.00000000000E+00 0.  1.
       22    1    1    2    0    0 -0.18225660187E-01  0.24109204807E-02 -0.23608554238E-01  0.29922417350E-01  0.00000000000E+00 0. -1.
</event>
<event>
 5   0  0.4146200E+04  0.9118800E+02  0.7546771E-02  0.1180000E+00
      -11   -1    0    0    0    0  0.00000000000E+00  0.00000000000E+00  0.34996269501E-01  0.35000000000E-01  0.51099999109E-03 0.  1.
       11   -1    0    0    0    0 -0.00000000000E+00 -0.00000000000E+00 -0.34996269501E-01  0.35000000000E-01  0.51099999109E-03 0. -1.
       22    1    1    2    0    0 -0.10835368785E-03  0.20306067505E-03 -0.65371013342E-03  0.69304480228E-03  0.00000000000E+00 0.  1.
       22    1    1    2    0    0  0.25023605520E-01 -0.17070089784E-01 -0.16683265247E-01  0.34581789105E-01  0.00000000000E+00 0. -1.
       22    1    1    2    0    0 -0.24915251832E-01  0.16867029109E-01  0.17336975380E-01  0.34725166092E-01  0.00000000000E+00 0.  1.
</event>
<event>
 5   0  0.4146200E+04  0.9118800E+02  0.7546771E-02  0.1180000E+00
      -11   -1    0    0    0    0  0.00000000000E+00  0.00000000000E+00  0.34996269501E-01  0.35000000000E-01  0.51099999109E-03 0. -1.
       11   -1    0    0    0    0 -0.00000000000E+00 -0.00000000000E+00 -0.34996269501E-01  0.35000000000E-01  0.51099999109E-03 0.  1.
       22    1    1    2    0    0 -0.18671867643E-01 -0.38959100881E-02 -0.25000444421E-01  0.31445810181E-01  0.00000000000E+00 0.  1.
       22    1    1    2    0    0  0.28896628603E-02 -0.30430409461E-03  0.21698494850E-01  0.21892177398E-01  0.00000000000E+00 0. -1.
       22    1    1    2    0    0  0.15782204782E-01  0.42002141827E-02  0.33019495708E-02  0.16662012422E-01  0.00000000000E+00 0. -1.
</event>
<event>
 5   0  0.4146200E+04  0.9118800E+02  0.7546771E-02  0.1180000E+00
      -11   -1    0    0    0    0  0.00000000000E+00  0.00000000000E+00  0.34996269501E-01  0.35000000000E-01  0.51099999109E-03 0.  1.
       11   -1    0    0    0    0 -0.00000000000E+00 -0.00000000000E+00 -0.34996269501E-01  0.35000000000E-01  0.51099999109E-03 0. -1.
       22    1    1    2    0    0 -0.99461403707E-02 -0.74358882616E-02  0.74517665959E-02  0.14482643678E-01  0.00000000000E+00 0.  1.
       22    1    1    2    0    0  0.17973122997E-01  0.60066580923E-03 -0.27504677261E-01  0.32861850540E-01  0.00000000000E+00 0. -1.
       22    1    1    2    0    0 -0.80269826264E-02  0.68352224524E-02  0.20052910665E-01  0.22655505781E-01  0.00000000000E+00 0.  1.
</event>
<event>
 5   0  0.4146200E+04  0.9118800E+02  0.7546771E-02  0.1180000E+00
      -11   -1    0    0    0    0  0.00000000000E+00  0.00000000000E+00  0.34996269501E-01  0.35000000000E-01  0.51099999109E-03 0. -1.
       11   -1    0    0    0    0 -0.00000000000E+00 -0.00000000000E+00 -0.34996269501E-01  0.35000000000E-01  0.51099999109E-03 0.  1.
       22    1    1    2    0    0 -0.38423732228E-02 -0.14943498888E-02  0.65864293672E-02  0.77703259509E-02  0.00000000000E+00 0.  1.
       22    1    1    2    0    0  0.22160424551E-01  0.59816884720E-02  0.19446078014E-01  0.30083466612E-01  0.00000000000E+00 0. -1.
       22    1    1    2    0    0 -0.18318051328E-01 -0.44873385832E-02 -0.26032507381E-01  0.32146207437E-01  0.00000000000E+00 0.  1.
</event>
<event>
 5   0  0.4146200E+04  0.9118800E+02  0.7546771E-02  0.1180000E+00
      -11   -1    0    0    0    0  0.00000000000E+00  0.00000000000E+00  0.34996269501E-01  0.35000000000E-01  0.51099999109E-03 0. -1.
       11   -1    0    0    0    0 -0.00000000000E+00 -0.00000000000E+00 -0.34996269501E-01  0.35000000000E-01  0.51099999109E-03 0.  1.
       22    1    1    2    0    0 -0.19410707814E-01  0.15294505889E-03  0.29080831492E-01  0.34964177815E-01  0.00000000000E+00 0. -1.
       22    1    1    2    0    0  0.18996426951E-01 -0.21367620318E-03 -0.27668373985E-01  0.33562610348E-01  0.00000000000E+00 0.  1.
       22    1    1    2    0    0  0.41428086308E-03  0.60731144282E-04 -0.14124575073E-02  0.14732118366E-02  0.00000000000E+00 0.  1.
</event>
<event>
 5   0  0.4146200E+04  0.9118800E+02  0.7546771E-02  0.1180000E+00
      -11   -1    0    0    0    0  0.00000000000E+00  0.00000000000E+00  0.34996269501E-01  0.35000000000E-01  0.51099999109E-03 0.  1.
       11   -1    0    0    0    0 -0.00000000000E+00 -0.00000000000E+00 -0.34996269501E-01  0.35000000000E-01  0.51099999109E-03 0. -1.
       22    1    1    2    0    0  0.10087257456E-01  0.65165281810E-02 -0.28491383800E-01  0.30918875357E-01  0.00000000000E+00 0. -1.
       22    1    1    2    0    0 -0.19184484601E-02 -0.11959670799E-02 -0.43071743176E-02  0.48644149034E-02  0.00000000000E+00 0. -1.
       22    1    1    2    0    0 -0.81688089960E-02 -0.53205611010E-02  0.32798558117E-01  0.34216709740E-01  0.00000000000E+00 0.  1.
</event>
<event>
 5   0  0.4146200E+04  0.9118800E+02  0.7546771E-02  0.1180000E+00
      -11   -1    0    0    0    0  0.00000000000E+00  0.00000000000E+00  0.34996269501E-01  0.35000000000E-01  0.51099999109E-03 0.  1.
       11   -1    0    0    0    0 -0.00000000000E+00 -0.00000000000E+00 -0.34996269501E-01  0.35000000000E-01  0.51099999109E-03 0. -1.
       22    1    1    2    0    0  0.20399589825E-02  0.73532453181E-03 -0.66010358782E-02  0.69480795536E-02  0.00000000000E+00 0.  1.
       22    1    1    2    0    0  0.89032294967E-02 -0.12950053508E-01  0.30357818384E-01  0.34184331474E-01  0.00000000000E+00 0.  1.
       22    1    1    2    0    0 -0.10943188479E-01  0.12214728976E-01 -0.23756782505E-01  0.28867588972E-01  0.00000000000E+00 0. -1.
</event>
<event>
 5   0  0.4146200E+04  0.9118800E+02  0.7546771E-02  0.1180000E+00
      -11   -1    0    0    0    0  0.00000000000E+00  0.00000000000E+00  0.34996269501E-01  0.35000000000E-01  0.51099999109E-03 0. -1.
       11   -1    0    0    0    0 -0.00000000000E+00 -0.00000000000E+00 -0.34996269501E-01  0.35000000000E-01  0.51099999109E-03 0.  1.
       22    1    1    2    0    0  0.93274467491E-05 -0.29561943317E-04  0.37954991846E-03  0.38081366882E-03  0.00000000000E+00 0. -1.
       22    1    1    2    0    0  0.18565148284E-02  0.15239028056E-01  0.31058533476E-01  0.34645448836E-01  0.00000000000E+00 0. -1.
       22    1    1    2    0    0 -0.18658422751E-02 -0.15209466113E-01 -0.31438083394E-01  0.34973737495E-01  0.00000000000E+00 0.  1.
</event>
<event>
 5   0  0.4146200E+04  0.9118800E+02  0.7546771E-02  0.1180000E+00
      -11   -1    0    0    0    0  0.00000000000E+00  0.00000000000E+00  0.34996269501E-01  0.35000000000E-01  0.51099999109E-03 0.  1.
       11   -1    0    0    0    0 -0.00000000000E+00 -0.00000000000E+00 -0.34996269501E-01  0.35000000000E-01  0.51099999109E-03 0. -1.
       22    1    1    2    0    0  0.88130246232E-02  0.10372908748E-01  0.31644964889E-01  0.34448083281E-01  0.00000000000E+00 0.  1.
       22    1    1    2    0    0 -0.35455101750E-03  0.58328781357E-04 -0.10477430756E-01  0.10483590220E-01  0.00000000000E+00 0.  1.
       22    1    1    2    0    0 -0.84584736057E-02 -0.10431237529E-01 -0.21167534134E-01  0.25068326498E-01  0.00000000000E+00 0. -1.
</event>
<event>
 5   0  0.4146200E+04  0.9118800E+02  0.7546771E-02  0.1180000E+00
      -11   -1    0    0    0    0  0.00000000000E+00  0.00000000000E+00  0.34996269501E-01  0.35000000000E-01  0.51099999109E-03 0. -1.
       11   -1    0    0    0    0 -0.00000000000E+00 -0.00000000000E+00 -0.34996269501E-01  0.35000000000E-01  0.51099999109E-03 0.  1.
       22    1    1    2    0    0 -0.16298021380E-02  0.80826655650E-03  0.86837714141E-04  0.18212881771E-02  0.00000000000E+00 0. -1.
       22    1    1    2    0    0  0.17419442474E-02 -0.22146074861E-01  0.26181459582E-01  0.34335867942E-01  0.00000000000E+00 0. -1.
       22    1    1    2    0    0 -0.11214210937E-03  0.21337808304E-01 -0.26268297296E-01  0.33842843881E-01  0.00000000000E+00 0.  1.
</event>
<event>
 5   0  0.4146200E+04  0.9118800E+02  0.7546771E-02  0.1180000E+00
      -11   -1    0    0    0    0  0.00000000000E+00  0.00000000000E+00  0.34996269501E-01  0.35000000000E-01  0.51099999109E-03 0. -1.
       11   -1    0    0    0    0 -0.00000000000E+00 -0.00000000000E+00 -0.34996269501E-01  0.35000000000E-01  0.51099999109E-03 0.  1.
       22    1    1    2    0    0 -0.61999721559E-02 -0.17144338601E-01 -0.21029328664E-01  0.27831648619E-01  0.00000000000E+00 0.  1.
       22    1    1    2    0    0  0.31726577129E-03  0.24432073091E-03 -0.80306685529E-02  0.80406459688E-02  0.00000000000E+00 0. -1.
       22    1    1    2    0    0  0.58827063847E-02  0.16900017871E-01  0.29059997217E-01  0.34127705412E-01  0.00000000000E+00 0. -1.
</event>
<event>
 5   0  0.4146200E+04  0.9118800E+02  0.7546771E-02  0.1180000E+00
      -11   -1    0    0    0    0  0.00000000000E+00  0.00000000000E+00  0.34996269501E-01  0.35000000000E-01  0.51099999109E-03 0.  1.
       11   -1    0    0    0    0 -0.00000000000E+00 -0.00000000000E+00 -0.34996269501E-01  0.35000000000E-01  0.51099999109E-03 0. -1.
       22    1    1    2    0    0 -0.33464490615E-02  0.20812384954E-02 -0.34255094586E-01  0.34481035078E-01  0.00000000000E+00 0. -1.
       22    1    1    2    0    0  0.32617461552E-03 -0.23487991995E-03 -0.46741813258E-03  0.61647235727E-03  0.00000000000E+00 0. -1.
       22    1    1    2    0    0  0.30202744460E-02 -0.18463585755E-02  0.34722512718E-01  0.34902492564E-01  0.00000000000E+00 0.  1.
</event>
<event>
 5   0  0.4146200E+04  0.9118800E+02  0.7546771E-02  0.1180000E+00
      -11   -1    0    0    0    0  0.00000000000E+00  0.00000000000E+00  0.34996269501E-01  0.35000000000E-01  0.51099999109E-03 0. -1.
       11   -1    0    0    0    0 -0.00000000000E+00 -0.00000000000E+00 -0.34996269501E-01  0.35000000000E-01  0.51099999109E-03 0.  1.
       22    1    1    2    0    0 -0.16944947456E-03 -0.24364584501E-03  0.28641276586E-02  0.28794623920E-02  0.00000000000E+00 0.  1.
       22    1    1    2    0    0 -0.18292483384E-01  0.22380788387E-02 -0.29420523911E-01  0.34715863412E-01  0.00000000000E+00 0.  1.
       22    1    1    2    0    0  0.18461932858E-01 -0.19944329937E-02  0.26556396253E-01  0.32404674196E-01  0.00000000000E+00 0. -1.
</event>
<event>
 5   0  0.4146200E+04  0.9118800E+02  0.7546771E-02  0.1180000E+00
      -11   -1    0    0    0    0  0.00000000000E+00  0.00000000000E+00  0.34996269501E-01  0.35000000000E-01  0.51099999109E-03 0. -1.
       11   -1    0    0    0    0 -0.00000000000E+00 -0.00000000000E+00 -0.34996269501E-01  0.35000000000E-01  0.51099999109E-03 0.  1.
       22    1    1    2    0    0  0.17149160160E-02 -0.12888817862E-01 -0.26003499994E-01  0.29073090217E-01  0.00000000000E+00 0.  1.
       22    1    1    2    0    0 -0.17963596003E-02  0.97565382499E-02  0.32356537183E-01  0.33843203821E-01  0.00000000000E+00 0. -1.
       22    1    1    2    0    0  0.81443584267E-04  0.31322796123E-02 -0.63530371890E-02  0.70837059617E-02  0.00000000000E+00 0.  1.
</event>
<event>
 5   0  0.4146200E+04  0.9118800E+02  0.7546771E-02  0.1180000E+00
      -11   -1    0    0    0    0  0.00000000000E+00  0.00000000000E+00  0.34996269501E-01  0.35000000000E-01  0.51099999109E-03 0. -1.
       11   -1    0    0    0    0 -0.00000000000E+00 -0.00000000000E+00 -0.34996269501E-01  0.35000000000E-01  0.51099999109E-03 0.  1.
       22    1    1    2    0    0  0.21954236226E-02 -0.36765563811E-03 -0.33942754110E-01  0.34015667157E-01  0.00000000000E+00 0.  1.
       22    1    1    2    0    0 -0.19614998166E-02  0.73294223909E-03  0.34884606084E-01  0.34947395146E-01  0.00000000000E+00 0. -1.
       22    1    1    2    0    0 -0.23392380606E-03 -0.36528660097E-03 -0.94185197403E-03  0.10369376977E-02  0.00000000000E+00 0.  1.
</event>
<event>
 5   0  0.4146200E+04  0.9118800E+02  0.7546771E-02  0.1180000E+00
      -11   -1    0    0    0    0  0.00000000000E+00  0.00000000000E+00  0.34996269501E-01  0.35000000000E-01  0.51099999109E-03 0.  1.
       11   -1    0    0    0    0 -0.00000000000E+00 -0.00000000000E+00 -0.34996269501E-01  0.35000000000E-01  0.51099999109E-03 0. -1.
       22    1    1    2    0    0 -0.13592530315E-03  0.28679983450E-04 -0.32052420878E-02  0.32082510923E-02  0.00000000000E+00 0.  1.
       22    1    1    2    0    0  0.17717354766E-01  0.55285076886E-02 -0.26185450840E-01  0.32095901497E-01  0.00000000000E+00 0. -1.
       22    1    1    2    0    0 -0.17581429463E-01 -0.55571876720E-02  0.29390692928E-01  0.34695847411E-01  0.00000000000E+00 0.  1.
</event>
<event>
 5   0  0.4146200E+04  0.9118800E+02  0.7546771E-02  0.1180000E+00
      -11   -1    0    0    0    0  0.00000000000E+00  0.00000000000E+00  0.34996269501E-01  0.35000000000E-01  0.51099999109E-03 0.  1.
       11   -1    0    0    0    0 -0.00000000000E+00 -0.00000000000E+00 -0.34996269501E-01  0.35000000000E-01  0.51099999109E-03 0. -1.
       22    1    1    2    0    0  0.26999979186E-03 -0.36048239155E-03  0.16702976967E-01  0.16709048058E-01  0.00000000000E+00 0.  1.
       22    1    1    2    0    0 -0.15220648593E-01 -0.86114668275E-02 -0.27640584042E-01  0.32708215951E-01  0.00000000000E+00 0. -1.
       22    1    1    2    0    0  0.14950648801E-01  0.89719492190E-02  0.10937607075E-01  0.20582735992E-01  0.00000000000E+00 0.  1.
</event>
<event>
 5   0  0.4146200E+04  0.9118800E+02  0.7546771E-02  0.1180000E+00
      -11   -1    0    0    0    0  0.00000000000E+00  0.00000000000E+00  0.34996269501E-01  0.35000000000E-01  0.51099999109E-03 0. -1.
       11   -1    0    0    0    0 -0.00000000000E+00 -0.00000000000E+00 -0.34996269501E-01  0.35000000000E-01  0.51099999109E-03 0.  1.
       22    1    1    2    0    0 -0.39776224374E-03  0.14598058617E-02 -0.15831333645E-02  0.21898765276E-02  0.00000000000E+00 0. -1.
       22    1    1    2    0    0  0.34880426999E-02 -0.71054510182E-02  0.33923924861E-01  0.34835133903E-01  0.00000000000E+00 0. -1.
       22    1    1    2    0    0 -0.30902804562E-02  0.56456451566E-02 -0.32340791496E-01  0.32974989570E-01  0.00000000000E+00 0.  1.
</event>
<event>
 5   0  0.4146200E+04  0.9118800E+02  0.7546771E-02  0.1180000E+00
      -11   -1    0    0    0    0  0.00000000000E+00  0.00000000000E+00  0.34996269501E-01  0.35000000000E-01  0.51099999109E-03 0. -1.
       11   -1    0    0    0    0 -0.00000000000E+00 -0.00000000000E+00 -0.34996269501E-01  0.35000000000E-01  0.51099999109E-03 0.  1.
       22    1    1    2    0    0  0.38145669044E-03 -0.11835948603E-03  0.29158007956E-02  0.29430277698E-02  0.00000000000E+00 0. -1.
       22    1    1    2    0    0  0.15097852857E-01 -0.17263562821E-01  0.22822803991E-01  0.32355156377E-01  0.00000000000E+00 0. -1.
       22    1    1    2    0    0 -0.15479309548E-01  0.17381922307E-01 -0.25738604786E-01  0.34701815853E-01  0.00000000000E+00 0.  1.
</event>
<event>
 5   0  0.4146200E+04  0.9118800E+02  0.7546771E-02  0.1180000E+00
      -11   -1    0    0    0    0  0.00000000000E+00  0.00000000000E+00  0.34996269501E-01  0.35000000000E-01  0.51099999109E-03 0. -1.
       11   -1    0    0    0    0 -0.00000000000E+00 -0.00000000000E+00 -0.34996269501E-01  0.35000000000E-01  0.51099999109E-03 0. -1.
       22    1    1    2    0    0  0.32777541590E-03  0.13268016016E-02 -0.15390851978E-02  0.20583057254E-02  0.00000000000E+00 0.  1.
       22    1    1    2    0    0 -0.00000000000E+00  0.00000000000E+00  0.34728124530E-01  0.34724527462E-01  0.00000000000E+00 0. -1.
       22    1    1    2    0    0 -0.32777541590E-03 -0.13268016016E-02 -0.33189039333E-01  0.33217166812E-01  0.00000000000E+00 0. -1.
</event>
<event>
 5   0  0.4146200E+04  0.9118800E+02  0.7546771E-02  0.1180000E+00
      -11   -1    0    0    0    0  0.00000000000E+00  0.00000000000E+00  0.34996269501E-01  0.35000000000E-01  0.51099999109E-03 0.  1.
       11   -1    0    0    0    0 -0.00000000000E+00 -0.00000000000E+00 -0.34996269501E-01  0.35000000000E-01  0.51099999109E-03 0. -1.
       22    1    1    2    0    0 -0.11152506535E-03  0.57745681428E-04 -0.66753058709E-03  0.67924184841E-03  0.00000000000E+00 0. -1.
       22    1    1    2    0    0  0.15607909753E-01  0.11551996472E-01  0.29062252760E-01  0.34952396268E-01  0.00000000000E+00 0.  1.
       22    1    1    2    0    0 -0.15496384688E-01 -0.11609742154E-01 -0.28394722173E-01  0.34368361884E-01  0.00000000000E+00 0. -1.
</event>
<event>
 5   0  0.4146200E+04  0.9118800E+02  0.7546771E-02  0.1180000E+00
      -11   -1    0    0    0    0  0.00000000000E+00  0.00000000000E+00  0.34996269501E-01  0.35000000000E-01  0.51099999109E-03 0. -1.
       11   -1    0    0    0    0 -0.00000000000E+00 -0.00000000000E+00 -0.34996269501E-01  0.35000000000E-01  0.51099999109E-03 0.  1.
       22    1    1    2    0    0 -0.12649357952E-03  0.54340821762E-05  0.58581867829E-03  0.59934437408E-03  0.00000000000E+00 0. -1.
       22    1    1    2    0    0  0.60327727781E-02  0.21104796363E-01 -0.27180013451E-01  0.34936512535E-01  0.00000000000E+00 0.  1.
       22    1    1    2    0    0 -0.59062791985E-02 -0.21110230445E-01  0.26594194772E-01  0.34464143091E-01  0.00000000000E+00 0. -1.
</event>
<event>
 5   0  0.4146200E+04  0.9118800E+02  0.7546771E-02  0.1180000E+00
      -11   -1    0    0    0    0  0.00000000000E+00  0.00000000000E+00  0.34996269501E-01  0.35000000000E-01  0.51099999109E-03 0.  1.
       11   -1    0    0    0    0 -0.00000000000E+00 -0.00000000000E+00 -0.34996269501E-01  0.35000000000E-01  0.51099999109E-03 0. -1.
       22    1    1    2    0    0  0.13016293250E-03 -0.99090528866E-04  0.64492941178E-03  0.66535349107E-03  0.00000000000E+00 0. -1.
       22    1    1    2    0    0  0.18406743371E-01 -0.50715077287E-02 -0.29207244704E-01  0.34894004290E-01  0.00000000000E+00 0. -1.
       22    1    1    2    0    0 -0.18536906303E-01  0.51705982575E-02  0.28562315292E-01  0.34440642219E-01  0.00000000000E+00 0.  1.
</event>
<event>
 5   0  0.4146200E+04  0.9118800E+02  0.7546771E-02  0.1180000E+00
      -11   -1    0    0    0    0  0.00000000000E+00  0.00000000000E+00  0.34996269501E-01  0.35000000000E-01  0.51099999109E-03 0. -1.
       11   -1    0    0    0    0 -0.00000000000E+00 -0.00000000000E+00 -0.34996269501E-01  0.35000000000E-01  0.51099999109E-03 0.  1.
       22    1    1    2    0    0 -0.94501152662E-02 -0.32040190727E-03  0.18936125364E-01  0.21165636766E-01  0.00000000000E+00 0.  1.
       22    1    1    2    0    0 -0.12710975587E-01 -0.45872269994E-02  0.62850384698E-02  0.14903464714E-01  0.00000000000E+00 0.  1.
       22    1    1    2    0    0  0.22161090853E-01  0.49076289067E-02 -0.25221163834E-01  0.33930898520E-01  0.00000000000E+00 0. -1.
</event>
<event>
 5   0  0.4146200E+04  0.9118800E+02  0.7546771E-02  0.1180000E+00
      -11   -1    0    0    0    0  0.00000000000E+00  0.00000000000E+00  0.34996269501E-01  0.35000000000E-01  0.51099999109E-03 0. -1.
       11   -1    0    0    0    0 -0.00000000000E+00 -0.00000000000E+00 -0.34996269501E-01  0.35000000000E-01  0.51099999109E-03 0.  1.
       22    1    1    2    0    0  0.11813181207E-02  0.18406646615E-02 -0.23035469651E-02  0.31764583294E-02  0.00000000000E+00 0.  1.
       22    1    1    2    0    0 -0.30756859771E-02  0.35018725559E-02 -0.31856873378E-01  0.32196014304E-01  0.00000000000E+00 0.  1.
       22    1    1    2    0    0  0.18943678564E-02 -0.53425372174E-02  0.34160420343E-01  0.34627527367E-01  0.00000000000E+00 0. -1.
</event>
<event>
 5   0  0.4146200E+04  0.9118800E+02  0.7546771E-02  0.1180000E+00
      -11   -1    0    0    0    0  0.00000000000E+00  0.00000000000E+00  0.34996269501E-01  0.35000000000E-01  0.51099999109E-03 0.  1.
       11   -1    0    0    0    0 -0.00000000000E+00 -0.00000000000E+00 -0.34996269501E-01  0.35000000000E-01  0.51099999109E-03 0. -1.
       22    1    1    2    0    0 -0.88082569630E-02  0.79795495125E-02 -0.32909409387E-01  0.34989824626E-01  0.00000000000E+00 0. -1.
       22    1    1    2    0    0 -0.84604368894E-05 -0.93636374683E-05  0.33519105123E-03  0.33542852819E-03  0.00000000000E+00 0. -1.
       22    1    1    2    0    0  0.88167173999E-02 -0.79701858750E-02  0.32574218336E-01  0.34674746846E-01  0.00000000000E+00 0.  1.
</event>
<event>
 5   0  0.4146200E+04  0.9118800E+02  0.7546771E-02  0.1180000E+00
      -11   -1    0    0    0    0  0.00000000000E+00  0.00000000000E+00  0.34996269501E-01  0.35000000000E-01  0.51099999109E-03 0.  1.
       11   -1    0    0    0    0 -0.00000000000E+00 -0.00000000000E+00 -0.34996269501E-01  0.35000000000E-01  0.51099999109E-03 0.  1.
       22    1    1    2    0    0 -0.52983959928E-03 -0.11031332699E-02 -0.33711663196E-01  0.33733868270E-01  0.00000000000E+00 0.  1.
       22    1    1    2    0    0  0.14992964937E-04 -0.43398156699E-03 -0.12209781865E-02  0.12958983454E-02  0.00000000000E+00 0. -1.
       22    1    1    2    0    0  0.51484663435E-03  0.15371148369E-02  0.34932641382E-01  0.34970233385E-01  0.00000000000E+00 0.  1.
</event>
<event>
 5   0  0.4146200E+04  0.9118800E+02  0.7546771E-02  0.1180000E+00
      -11   -1    0    0    0    0  0.00000000000E+00  0.00000000000E+00  0.34996269501E-01  0.35000000000E-01  0.51099999109E-03 0. -1.
       11   -1    0    0    0    0 -0.00000000000E+00 -0.00000000000E+00 -0.34996269501E-01  0.35000000000E-01  0.51099999109E-03 0.  1.
       22    1    1    2    0    0 -0.60586936361E-02 -0.19455044980E-01 -0.28365527113E-01  0.34925773752E-01  0.00000000000E+00 0.  1.
       22    1    1    2    0    0  0.60401097907E-02  0.19427721522E-01  0.27498304269E-01  0.34206374077E-01  0.00000000000E+00 0. -1.
       22    1    1    2    0    0  0.18583845427E-04  0.27323458030E-04  0.86722284413E-03  0.86785217177E-03  0.00000000000E+00 0. -1.
</event>
<event>
 5   0  0.4146200E+04  0.9118800E+02  0.7546771E-02  0.1180000E+00
      -11   -1    0    0    0    0  0.00000000000E+00  0.00000000000E+00  0.34996269501E-01  0.35000000000E-01  0.51099999109E-03 0.  1.
       11   -1    0    0    0    0 -0.00000000000E+00 -0.00000000000E+00 -0.34996269501E-01  0.35000000000E-01  0.51099999109E-03 0. -1.
       22    1    1    2    0    0 -0.13903862064E-03  0.13532624302E-03 -0.42460679760E-03  0.46683601258E-03  0.00000000000E+00 0. -1.
       22    1    1    2    0    0 -0.40168212693E-02 -0.25210245494E-02  0.34650456459E-01  0.34973483537E-01  0.00000000000E+00 0.  1.
       22    1    1    2    0    0  0.41558598900E-02  0.23856983064E-02 -0.34225849661E-01  0.34559680451E-01  0.00000000000E+00 0. -1.
</event>
<event>
 5   0  0.4146200E+04  0.9118800E+02  0.7546771E-02  0.1180000E+00
      -11   -1    0    0    0    0  0.00000000000E+00  0.00000000000E+00  0.34996269501E-01  0.35000000000E-01  0.51099999109E-03 0. -1.
       11   -1    0    0    0    0 -0.00000000000E+00 -0.00000000000E+00 -0.34996269501E-01  0.35000000000E-01  0.51099999109E-03 0.  1.
       22    1    1    2    0    0 -0.27514548465E-02  0.22687951919E-01 -0.25817303628E-01  0.34479658244E-01  0.00000000000E+00 0.  1.
       22    1    1    2    0    0 -0.25810477784E-02 -0.84696194646E-02  0.12528419302E-01  0.15341367336E-01  0.00000000000E+00 0. -1.
       22    1    1    2    0    0  0.53325026249E-02 -0.14218332454E-01  0.13288884326E-01  0.20178974420E-01  0.00000000000E+00 0. -1.
</event>
<event>
 5   0  0.4146200E+04  0.9118800E+02  0.7546771E-02  0.1180000E+00
      -11   -1    0    0    0    0  0.00000000000E+00  0.00000000000E+00  0.34996269501E-01  0.35000000000E-01  0.51099999109E-03 0.  1.
       11   -1    0    0    0    0 -0.00000000000E+00 -0.00000000000E+00 -0.34996269501E-01  0.35000000000E-01  0.51099999109E-03 0. -1.
       22    1    1    2    0    0 -0.94901621338E-03 -0.23377135023E-03  0.32861388853E-03  0.10311488279E-02  0.00000000000E+00 0. -1.
       22    1    1    2    0    0 -0.11444723255E-01  0.92337681801E-02  0.30880872145E-01  0.34203397925E-01  0.00000000000E+00 0.  1.
       22    1    1    2    0    0  0.12393739468E-01 -0.89999968299E-02 -0.31209486034E-01  0.34765453247E-01  0.00000000000E+00 0. -1.
</event>
<event>
 5   0  0.4146200E+04  0.9118800E+02  0.7546771E-02  0.1180000E+00
      -11   -1    0    0    0    0  0.00000000000E+00  0.00000000000E+00  0.34996269501E-01  0.35000000000E-01  0.51099999109E-03 0. -1.
       11   -1    0    0    0    0 -0.00000000000E+00 -0.00000000000E+00 -0.34996269501E-01  0.35000000000E-01  0.51099999109E-03 0.  1.
       22    1    1    2    0    0 -0.11974564981E-01  0.20152966441E-02 -0.32750379207E-01  0.34929056174E-01  0.00000000000E+00 0.  1.
       22    1    1    2    0    0 -0.57385092807E-04  0.16537440929E-03  0.15515217516E-02  0.15613652647E-02  0.00000000000E+00 0. -1.
       22    1    1    2    0    0  0.12031950074E-01 -0.21806710534E-02  0.31198857455E-01  0.33509578561E-01  0.00000000000E+00 0. -1.
</event>
<event>
 5   0  0.4146200E+04  0.9118800E+02  0.7546771E-02  0.1180000E+00
      -11   -1    0    0    0    0  0.00000000000E+00  0.00000000000E+00  0.34996269501E-01  0.35000000000E-01  0.51099999109E-03 0. -1.
       11   -1    0    0    0    0 -0.00000000000E+00 -0.00000000000E+00 -0.34996269501E-01  0.35000000000E-01  0.51099999109E-03 0.  1.
       22    1    1    2    0    0 -0.89775675745E-04 -0.11484612644E-02 -0.31855575724E-02  0.33874474158E-02  0.00000000000E+00 0.  1.
       22    1    1    2    0    0  0.12097686803E-02  0.75059115796E-03  0.34873389102E-01  0.34902438236E-01  0.00000000000E+00 0. -1.
       22    1    1    2    0    0 -0.11199930045E-02  0.39787010647E-03 -0.31687831530E-01  0.31710114348E-01  0.00000000000E+00 0.  1.
</event>
<event>
 5   0  0.4146200E+04  0.9118800E+02  0.7546771E-02  0.1180000E+00
      -11   -1    0    0    0    0  0.00000000000E+00  0.00000000000E+00  0.34996269501E-01  0.35000000000E-01  0.51099999109E-03 0. -1.
       11   -1    0    0    0    0 -0.00000000000E+00 -0.00000000000E+00 -0.34996269501E-01  0.35000000000E-01  0.51099999109E-03 0.  1.
       22    1    1    2    0    0 -0.18513387163E-01 -0.13512973655E-02  0.29306307135E-01  0.34690505138E-01  0.00000000000E+00 0. -1.
       22    1    1    2    0    0  0.18510948118E-01  0.13481403343E-02 -0.29642342975E-01  0.34973435342E-01  0.00000000000E+00 0.  1.
       22    1    1    2    0    0  0.24390445424E-05  0.31570312016E-05  0.33603583954E-03  0.33605952039E-03  0.00000000000E+00 0.  1.
</event>
<event>
 5   0  0.4146200E+04  0.9118800E+02  0.7546771E-02  0.1180000E+00
      -11   -1    0    0    0    0  0.00000000000E+00  0.00000000000E+00  0.34996269501E-01  0.35000000000E-01  0.51099999109E-03 0.  1.
       11   -1    0    0    0    0 -0.00000000000E+00 -0.00000000000E+00 -0.34996269501E-01  0.35000000000E-01  0.51099999109E-03 0. -1.
       22    1    1    2    0    0  0.63842613951E-02 -0.33123296277E-01 -0.79206305536E-02  0.34650367071E-01  0.00000000000E+00 0. -1.
       22    1    1    2    0    0 -0.61606684204E-02  0.33142424682E-01  0.84685009820E-02  0.34757584181E-01  0.00000000000E+00 0.  1.
       22    1    1    2    0    0 -0.22359297462E-03 -0.19128405432E-04 -0.54787042838E-03  0.59204874841E-03  0.00000000000E+00 0. -1.
</event>
<event>
 5   0  0.4146200E+04  0.9118800E+02  0.7546771E-02  0.1180000E+00
      -11   -1    0    0    0    0  0.00000000000E+00  0.00000000000E+00  0.34996269501E-01  0.35000000000E-01  0.51099999109E-03 0. -1.
       11   -1    0    0    0    0 -0.00000000000E+00 -0.00000000000E+00 -0.34996269501E-01  0.35000000000E-01  0.51099999109E-03 0. -1.
       22    1    1    2    0    0 -0.15161530544E-03 -0.20632866823E-03 -0.34624480762E-01  0.34625427459E-01  0.00000000000E+00 0. -1.
       22    1    1    2    0    0  0.15161530544E-03  0.20632866823E-03 -0.33211597286E-03  0.41935633965E-03  0.00000000000E+00 0. -1.
       22    1    1    2    0    0 -0.00000000000E+00  0.00000000000E+00  0.34956596735E-01  0.34955216201E-01  0.00000000000E+00 0. -1.
</event>
<event>
 5   0  0.4146200E+04  0.9118800E+02  0.7546771E-02  0.1180000E+00
      -11   -1    0    0    0    0  0.00000000000E+00  0.00000000000E+00  0.34996269501E-01  0.35000000000E-01  0.51099999109E-03 0. -1.
       11   -1    0    0    0    0 -0.00000000000E+00 -0.00000000000E+00 -0.34996269501E-01  0.35000000000E-01  0.51099999109E-03 0.  1.
       22    1    1    2    0    0  0.22019599642E-03 -0.17929521955E-04 -0.50033444794E-03  0.54693903170E-03  0.00000000000E+00 0.  1.
       22    1    1    2    0    0 -0.43228609058E-02 -0.29500165433E-02  0.34592878087E-01  0.34986525097E-01  0.00000000000E+00 0. -1.
       22    1    1    2    0    0  0.41026649094E-02  0.29679460653E-02 -0.34092543639E-01  0.34466535871E-01  0.00000000000E+00 0.  1.
</event>
<event>
 5   0  0.4146200E+04  0.9118800E+02  0.7546771E-02  0.1180000E+00
      -11   -1    0    0    0    0  0.00000000000E+00  0.00000000000E+00  0.34996269501E-01  0.35000000000E-01  0.51099999109E-03 0.  1.
       11   -1    0    0    0    0 -0.00000000000E+00 -0.00000000000E+00 -0.34996269501E-01  0.35000000000E-01  0.51099999109E-03 0. -1.
       22    1    1    2    0    0 -0.10299793027E-01 -0.44350602738E-02  0.31601700635E-01  0.33532416839E-01  0.00000000000E+00 0.  1.
       22    1    1    2    0    0  0.13192377893E-01  0.46858461443E-02 -0.30105154145E-01  0.33201148996E-01  0.00000000000E+00 0. -1.
       22    1    1    2    0    0 -0.28925848663E-02 -0.25078587041E-03 -0.14965464902E-02  0.32664341657E-02  0.00000000000E+00 0.  1.
</event>
<event>
 5   0  0.4146200E+04  0.9118800E+02  0.7546771E-02  0.1180000E+00
      -11   -1    0    0    0    0  0.00000000000E+00  0.00000000000E+00  0.34996269501E-01  0.35000000000E-01  0.51099999109E-03 0. -1.
       11   -1    0    0    0    0 -0.00000000000E+00 -0.00000000000E+00 -0.34996269501E-01  0.35000000000E-01  0.51099999109E-03 0.  1.
       22    1    1    2    0    0  0.19246004964E-01 -0.52346624813E-02 -0.28671067360E-01  0.34926215110E-01  0.00000000000E+00 0.  1.
       22    1    1    2    0    0 -0.19266527867E-01  0.53087273792E-02  0.28011061078E-01  0.34409318871E-01  0.00000000000E+00 0. -1.
       22    1    1    2    0    0  0.20522902571E-04 -0.74064897909E-04  0.66000628165E-03  0.66446601903E-03  0.00000000000E+00 0.  1.
</event>
<event>
 5   0  0.4146200E+04  0.9118800E+02  0.7546771E-02  0.1180000E+00
      -11   -1    0    0    0    0  0.00000000000E+00  0.00000000000E+00  0.34996269501E-01  0.35000000000E-01  0.51099999109E-03 0. -1.
       11   -1    0    0    0    0 -0.00000000000E+00 -0.00000000000E+00 -0.34996269501E-01  0.35000000000E-01  0.51099999109E-03 0.  1.
       22    1    1    2    0    0  0.89563767634E-03 -0.68132581666E-03 -0.10314018585E-01  0.10375227761E-01  0.00000000000E+00 0. -1.
       22    1    1    2    0    0 -0.67198809321E-02  0.54061918675E-02 -0.23477224854E-01  0.25011273400E-01  0.00000000000E+00 0.  1.
       22    1    1    2    0    0  0.58242432557E-02 -0.47248660508E-02  0.33791243439E-01  0.34613498839E-01  0.00000000000E+00 0. -1.
</event>
<event>
 5   0  0.4146200E+04  0.9118800E+02  0.7546771E-02  0.1180000E+00
      -11   -1    0    0    0    0  0.00000000000E+00  0.00000000000E+00  0.34996269501E-01  0.35000000000E-01  0.51099999109E-03 0.  1.
       11   -1    0    0    0    0 -0.00000000000E+00 -0.00000000000E+00 -0.34996269501E-01  0.35000000000E-01  0.51099999109E-03 0. -1.
       22    1    1    2    0    0  0.70681894637E-05  0.28727979723E-04  0.16009295782E-02  0.16012029136E-02  0.00000000000E+00 0. -1.
       22    1    1    2    0    0  0.97843394951E-02 -0.11938660391E-01 -0.31320664761E-01  0.34917745522E-01  0.00000000000E+00 0. -1.
       22    1    1    2    0    0 -0.97914076845E-02  0.11909932411E-01  0.29719735183E-01  0.33481051564E-01  0.00000000000E+00 0.  1.
</event>
<event>
 5   0  0.4146200E+04  0.9118800E+02  0.7546771E-02  0.1180000E+00
      -11   -1    0    0    0    0  0.00000000000E+00  0.00000000000E+00  0.34996269501E-01  0.35000000000E-01  0.51099999109E-03 0.  1.
       11   -1    0    0    0    0 -0.00000000000E+00 -0.00000000000E+00 -0.34996269501E-01  0.35000000000E-01  0.51099999109E-03 0.  1.
       22    1    1    2    0    0  0.17324837248E-02  0.52703206784E-02 -0.14510836362E-01  0.15535190756E-01  0.00000000000E+00 0. -1.
       22    1    1    2    0    0  0.66967056941E-04 -0.62773844495E-03 -0.19792214784E-01  0.19802280329E-01  0.00000000000E+00 0.  1.
       22    1    1    2    0    0 -0.17994507817E-02 -0.46425822334E-02  0.34303051146E-01  0.34662528916E-01  0.00000000000E+00 0.  1.
</event>
<event>
 5   0  0.4146200E+04  0.9118800E+02  0.7546771E-02  0.1180000E+00
      -11   -1    0    0    0    0  0.00000000000E+00  0.00000000000E+00  0.34996269501E-01  0.35000000000E-01  0.51099999109E-03 0.  1.
       11   -1    0    0    0    0 -0.00000000000E+00 -0.00000000000E+00 -0.34996269501E-01  0.35000000000E-01  0.51099999109E-03 0. -1.
       22    1    1    2    0    0 -0.20585361496E-03  0.15355403790E-02 -0.33214516999E-01  0.33250630061E-01  0.00000000000E+00 0. -1.
       22    1    1    2    0    0  0.22011388212E-03 -0.72636625203E-03 -0.16810352891E-02  0.18444342483E-02  0.00000000000E+00 0. -1.
       22    1    1    2    0    0 -0.14260267164E-04 -0.80917412702E-03  0.34895552288E-01  0.34904935691E-01  0.00000000000E+00 0.  1.
</event>
<event>
 5   0  0.4146200E+04  0.9118800E+02  0.7546771E-02  0.1180000E+00
      -11   -1    0    0    0    0  0.00000000000E+00  0.00000000000E+00  0.34996269501E-01  0.35000000000E-01  0.51099999109E-03 0. -1.
       11   -1    0    0    0    0 -0.00000000000E+00 -0.00000000000E+00 -0.34996269501E-01  0.35000000000E-01  0.51099999109E-03 0.  1.
       22    1    1    2    0    0  0.75028264157E-02  0.14501378922E-01  0.30165129064E-01  0.34300399507E-01  0.00000000000E+00 0. -1.
       22    1    1    2    0    0 -0.75996541957E-02 -0.14808867370E-01 -0.30787347302E-01  0.34998829275E-01  0.00000000000E+00 0.  1.
       22    1    1    2    0    0  0.96827779955E-04  0.30748844836E-03  0.62221823800E-03  0.70077121841E-03  0.00000000000E+00 0.  1.
</event>
<event>
 5   0  0.4146200E+04  0.9118800E+02  0.7546771E-02  0.1180000E+00
      -11   -1    0    0    0    0  0.00000000000E+00  0.00000000000E+00  0.34996269501E-01  0.35000000000E-01  0.51099999109E-03 0.  1.
       11   -1    0    0    0    0 -0.00000000000E+00 -0.00000000000E+00 -0.34996269501E-01  0.35000000000E-01  0.51099999109E-03 0. -1.
       22    1    1    2    0    0 -0.33623984318E-02  0.22916191951E-01  0.26174186888E-01  0.34950617105E-01  0.00000000000E+00 0.  1.
       22    1    1    2    0    0  0.34154780804E-02 -0.22575071951E-01 -0.26132445356E-01  0.34701643540E-01  0.00000000000E+00 0. -1.
       22    1    1    2    0    0 -0.53079648616E-04 -0.34112000001E-03 -0.41741532151E-04  0.34773935499E-03  0.00000000000E+00 0. -1.
</event>
<event>
 5   0  0.4146200E+04  0.9118800E+02  0.7546771E-02  0.1180000E+00
      -11   -1    0    0    0    0  0.00000000000E+00  0.00000000000E+00  0.34996269501E-01  0.35000000000E-01  0.51099999109E-03 0.  1.
       11   -1    0    0    0    0 -0.00000000000E+00 -0.00000000000E+00 -0.34996269501E-01  0.35000000000E-01  0.51099999109E-03 0. -1.
       22    1    1    2    0    0  0.79070967569E-02  0.15071047157E-01  0.29933500937E-01  0.34433604515E-01  0.00000000000E+00 0.  1.
       22    1    1    2    0    0 -0.77448956174E-02 -0.15019851811E-01 -0.30557814625E-01  0.34919326900E-01  0.00000000000E+00 0. -1.
       22    1    1    2    0    0 -0.16220113943E-03 -0.51195345869E-04  0.62431368735E-03  0.64706858469E-03  0.00000000000E+00 0.  1.
</event>
<event>
 5   0  0.4146200E+04  0.9118800E+02  0.7546771E-02  0.1180000E+00
      -11   -1    0    0    0    0  0.00000000000E+00  0.00000000000E+00  0.34996269501E-01  0.35000000000E-01  0.51099999109E-03 0. -1.
       11   -1    0    0    0    0 -0.00000000000E+00 -0.00000000000E+00 -0.34996269501E-01  0.35000000000E-01  0.51099999109E-03 0.  1.
       22    1    1    2    0    0  0.15961782965E-02 -0.14749692055E-02 -0.74050330726E-02  0.77173722288E-02  0.00000000000E+00 0. -1.
       22    1    1    2    0    0  0.20502047203E-02 -0.11829676973E-01  0.31947356742E-01  0.34128847028E-01  0.00000000000E+00 0. -1.
       22    1    1    2    0    0 -0.36463830168E-02  0.13304646178E-01 -0.24542323669E-01  0.28153780743E-01  0.00000000000E+00 0.  1.
</event>
<event>
 5   0  0.4146200E+04  0.9118800E+02  0.7546771E-02  0.1180000E+00
      -11   -1    0    0    0    0  0.00000000000E+00  0.00000000000E+00  0.34996269501E-01  0.35000000000E-01  0.51099999109E-03 0.  1.
       11   -1    0    0    0    0 -0.00000000000E+00 -0.00000000000E+00 -0.34996269501E-01  0.35000000000E-01  0.51099999109E-03 0. -1.
       22    1    1    2    0    0 -0.11184149904E-01 -0.61854929403E-02  0.32150533586E-01  0.34597721628E-01  0.00000000000E+00 0.  1.
       22    1    1    2    0    0  0.21212172088E-04 -0.77014588966E-04  0.40926406448E-03  0.41698714325E-03  0.00000000000E+00 0. -1.
       22    1    1    2    0    0  0.11162937732E-01  0.62625075292E-02 -0.32559797650E-01  0.34985291229E-01  0.00000000000E+00 0. -1.
</event>
<event>
 5   0  0.4146200E+04  0.9118800E+02  0.7546771E-02  0.1180000E+00
      -11   -1    0    0    0    0  0.00000000000E+00  0.00000000000E+00  0.34996269501E-01  0.35000000000E-01  0.51099999109E-03 0. -1.
       11   -1    0    0    0    0 -0.00000000000E+00 -0.00000000000E+00 -0.34996269501E-01  0.35000000000E-01  0.51099999109E-03 0.  1.
       22    1    1    2    0    0  0.24572132656E-01  0.60362875610E-02 -0.23606984495E-01  0.34605146839E-01  0.00000000000E+00 0.  1.
       22    1    1    2    0    0 -0.24019802652E-01 -0.60988357522E-02  0.24160537090E-01  0.34610378060E-01  0.00000000000E+00 0. -1.
       22    1    1    2    0    0 -0.55233000426E-03  0.62548191160E-04 -0.55355259489E-03  0.78447510166E-03  0.00000000000E+00 0. -1.
</event>
<event>
 5   0  0.4146200E+04  0.9118800E+02  0.7546771E-02  0.1180000E+00
      -11   -1    0    0    0    0  0.00000000000E+00  0.00000000000E+00  0.34996269501E-01  0.35000000000E-01  0.51099999109E-03 0. -1.
       11   -1    0    0    0    0 -0.00000000000E+00 -0.00000000000E+00 -0.34996269501E-01  0.35000000000E-01  0.51099999109E-03 0.  1.
       22    1    1    2    0    0  0.92432136926E-03  0.33342704246E-03  0.34729643142E-01  0.34743541218E-01  0.00000000000E+00 0. -1.
       22    1    1    2    0    0 -0.30241878913E-02 -0.43499050648E-03 -0.28867591209E-01  0.29028826214E-01  0.00000000000E+00 0.  1.
       22    1    1    2    0    0  0.20998665220E-02  0.10156346401E-03 -0.58620519327E-02  0.62276325686E-02  0.00000000000E+00 0. -1.
</event>
<event>
 5   0  0.4146200E+04  0.9118800E+02  0.7546771E-02  0.1180000E+00
      -11   -1    0    0    0    0  0.00000000000E+00  0.00000000000E+00  0.34996269501E-01  0.35000000000E-01  0.51099999109E-03 0. -1.
       11   -1    0    0    0    0 -0.00000000000E+00 -0.00000000000E+00 -0.34996269501E-01  0.35000000000E-01  0.51099999109E-03 0.  1.
       22    1    1    2    0    0 -0.14086549805E-01 -0.86361483925E-03  0.31994270439E-01  0.34968701105E-01  0.00000000000E+00 0. -1.
       22    1    1    2    0    0  0.57448075447E-03 -0.29855640281E-03 -0.22464210965E-02  0.23378562414E-02  0.00000000000E+00 0.  1.
       22    1    1    2    0    0  0.13512069051E-01  0.11621712421E-02 -0.29747849343E-01  0.32693442654E-01  0.00000000000E+00 0.  1.
</event>
<event>
 5   0  0.4146200E+04  0.9118800E+02  0.7546771E-02  0.1180000E+00
      -11   -1    0    0    0    0  0.00000000000E+00  0.00000000000E+00  0.34996269501E-01  0.35000000000E-01  0.51099999109E-03 0.  1.
       11   -1    0    0    0    0 -0.00000000000E+00 -0.00000000000E+00 -0.34996269501E-01  0.35000000000E-01  0.51099999109E-03 0. -1.
       22    1    1    2    0    0 -0.27888997373E-03  0.56418791483E-03 -0.33705933188E-01  0.33711808312E-01  0.00000000000E+00 0. -1.
       22    1    1    2    0    0  0.15905199007E-04  0.61569997727E-03 -0.12066173431E-02  0.13547194728E-02  0.00000000000E+00 0. -1.
       22    1    1    2    0    0  0.26298477472E-03 -0.11798878921E-02  0.34912550531E-01  0.34933472215E-01  0.00000000000E+00 0.  1.
</event>
<event>
 5   0  0.4146200E+04  0.9118800E+02  0.7546771E-02  0.1180000E+00
      -11   -1    0    0    0    0  0.00000000000E+00  0.00000000000E+00  0.34996269501E-01  0.35000000000E-01  0.51099999109E-03 0. -1.
       11   -1    0    0    0    0 -0.00000000000E+00 -0.00000000000E+00 -0.34996269501E-01  0.35000000000E-01  0.51099999109E-03 0.  1.
       22    1    1    2    0    0 -0.73067806897E-02 -0.13030830567E-01  0.31603031916E-01  0.34956304376E-01  0.00000000000E+00 0. -1.
       22    1    1    2    0    0  0.72918037188E-02  0.13108214220E-01 -0.31030298580E-01  0.34465564140E-01  0.00000000000E+00 0.  1.
       22    1    1    2    0    0  0.14976970885E-04 -0.77383653043E-04 -0.57273333579E-03  0.57813148447E-03  0.00000000000E+00 0. -1.
</event>
<event>
 5   0  0.4146200E+04  0.9118800E+02  0.7546771E-02  0.1180000E+00
      -11   -1    0    0    0    0  0.00000000000E+00  0.00000000000E+00  0.34996269501E-01  0.35000000000E-01  0.51099999109E-03 0.  1.
       11   -1    0    0    0    0 -0.00000000000E+00 -0.00000000000E+00 -0.34996269501E-01  0.35000000000E-01  0.51099999109E-03 0. -1.
       22    1    1    2    0    0 -0.59931979128E-02 -0.16002726238E-01  0.30520425221E-01  0.34978593796E-01  0.00000000000E+00 0.  1.
       22    1    1    2    0    0  0.67628821771E-04  0.28546300348E-04 -0.48113514103E-03  0.48670275604E-03  0.00000000000E+00 0.  1.
       22    1    1    2    0    0  0.59255690911E-02  0.15974179938E-01 -0.30039290080E-01  0.34534703448E-01  0.00000000000E+00 0. -1.
</event>
<event>
 5   0  0.4146200E+04  0.9118800E+02  0.7546771E-02  0.1180000E+00
      -11   -1    0    0    0    0  0.00000000000E+00  0.00000000000E+00  0.34996269501E-01  0.35000000000E-01  0.51099999109E-03 0.  1.
       11   -1    0    0    0    0 -0.00000000000E+00 -0.00000000000E+00 -0.34996269501E-01  0.35000000000E-01  0.51099999109E-03 0. -1.
       22    1    1    2    0    0  0.28762071615E-02  0.89443571406E-03 -0.38304910927E-02  0.48729092844E-02  0.00000000000E+00 0. -1.
       22    1    1    2    0    0  0.30122945408E-02  0.13125295178E-02  0.34076358904E-01  0.34234410879E-01  0.00000000000E+00 0.  1.
       22    1    1    2    0    0 -0.58885017023E-02 -0.22069652319E-02 -0.30245867811E-01  0.30892679836E-01  0.00000000000E+00 0. -1.
</event>
<event>
 5   0  0.4146200E+04  0.9118800E+02  0.7546771E-02  0.1180000E+00
      -11   -1    0    0    0    0  0.00000000000E+00  0.00000000000E+00  0.34996269501E-01  0.35000000000E-01  0.51099999109E-03 0. -1.
       11   -1    0    0    0    0 -0.00000000000E+00 -0.00000000000E+00 -0.34996269501E-01  0.35000000000E-01  0.51099999109E-03 0.  1.
       22    1    1    2    0    0  0.14319531198E-01  0.50542876288E-02  0.31489750571E-01  0.34959965506E-01  0.00000000000E+00 0. -1.
       22    1    1    2    0    0 -0.13878424766E-01 -0.49388471501E-02 -0.29200777424E-01  0.32706089453E-01  0.00000000000E+00 0.  1.
       22    1    1    2    0    0 -0.44110643164E-03 -0.11544047868E-03 -0.22889731467E-02  0.23339450410E-02  0.00000000000E+00 0. -1.
</event>
<event>
 5   0  0.4146200E+04  0.9118800E+02  0.7546771E-02  0.1180000E+00
      -11   -1    0    0    0    0  0.00000000000E+00  0.00000000000E+00  0.34996269501E-01  0.35000000000E-01  0.51099999109E-03 0.  1.
       11   -1    0    0    0    0 -0.00000000000E+00 -0.00000000000E+00 -0.34996269501E-01  0.35000000000E-01  0.51099999109E-03 0. -1.
       22    1    1    2    0    0  0.14996659437E-02  0.19851556648E-02 -0.34513420348E-01  0.34602977113E-01  0.00000000000E+00 0. -1.
       22    1    1    2    0    0  0.23545013093E-03 -0.39104044251E-05 -0.35679325499E-03  0.42749676282E-03  0.00000000000E+00 0. -1.
       22    1    1    2    0    0 -0.17351160746E-02 -0.19812452604E-02  0.34870213603E-01  0.34969526124E-01  0.00000000000E+00 0.  1.
</event>
<event>
 5   0  0.4146200E+04  0.9118800E+02  0.7546771E-02  0.1180000E+00
      -11   -1    0    0    0    0  0.00000000000E+00  0.00000000000E+00  0.34996269501E-01  0.35000000000E-01  0.51099999109E-03 0.  1.
       11   -1    0    0    0    0 -0.00000000000E+00 -0.00000000000E+00 -0.34996269501E-01  0.35000000000E-01  0.51099999109E-03 0. -1.
       22    1    1    2    0    0  0.13221381434E-01 -0.31945427374E-02 -0.31583990481E-01  0.34388348100E-01  0.00000000000E+00 0. -1.
       22    1    1    2    0    0 -0.12780082147E-01  0.21061433542E-02  0.19130269262E-01  0.23102673905E-01  0.00000000000E+00 0.  1.
       22    1    1    2    0    0 -0.44129928633E-03  0.10883993833E-02  0.12453721219E-01  0.12508977995E-01  0.00000000000E+00 0.  1.
</event>
<event>
 5   0  0.4146200E+04  0.9118800E+02  0.7546771E-02  0.1180000E+00
      -11   -1    0    0    0    0  0.00000000000E+00  0.00000000000E+00  0.34996269501E-01  0.35000000000E-01  0.51099999109E-03 0. -1.
       11   -1    0    0    0    0 -0.00000000000E+00 -0.00000000000E+00 -0.34996269501E-01  0.35000000000E-01  0.51099999109E-03 0.  1.
       22    1    1    2    0    0  0.77739465316E-02 -0.85742118386E-02 -0.26139758073E-01  0.28587380178E-01  0.00000000000E+00 0.  1.
       22    1    1    2    0    0  0.47016154760E-02 -0.82077449790E-02  0.23650329782E-02  0.97501613685E-02  0.00000000000E+00 0.  1.
       22    1    1    2    0    0 -0.12475562008E-01  0.16781956818E-01  0.23774725094E-01  0.31662458454E-01  0.00000000000E+00 0. -1.
</event>
<event>
 5   0  0.4146200E+04  0.9118800E+02  0.7546771E-02  0.1180000E+00
      -11   -1    0    0    0    0  0.00000000000E+00  0.00000000000E+00  0.34996269501E-01  0.35000000000E-01  0.51099999109E-03 0.  1.
       11   -1    0    0    0    0 -0.00000000000E+00 -0.00000000000E+00 -0.34996269501E-01  0.35000000000E-01  0.51099999109E-03 0. -1.
       22    1    1    2    0    0  0.11815582951E-01 -0.51376296363E-02  0.31674282653E-01  0.34194494006E-01  0.00000000000E+00 0.  1.
       22    1    1    2    0    0 -0.19970679902E-03  0.67249017026E-03 -0.14913166921E-01  0.14929657513E-01  0.00000000000E+00 0. -1.
       22    1    1    2    0    0 -0.11615876152E-01  0.44651394660E-02 -0.16761115732E-01  0.20875848481E-01  0.00000000000E+00 0. -1.
</event>
<event>
 5   0  0.4146200E+04  0.9118800E+02  0.7546771E-02  0.1180000E+00
      -11   -1    0    0    0    0  0.00000000000E+00  0.00000000000E+00  0.34996269501E-01  0.35000000000E-01  0.51099999109E-03 0.  1.
       11   -1    0    0    0    0 -0.00000000000E+00 -0.00000000000E+00 -0.34996269501E-01  0.35000000000E-01  0.51099999109E-03 0. -1.
       22    1    1    2    0    0  0.10505179688E-02 -0.55704304645E-02 -0.71679211476E-02  0.91385106631E-02  0.00000000000E+00 0.  1.
       22    1    1    2    0    0 -0.44135352984E-02  0.66682360154E-02 -0.26155613402E-01  0.27350699769E-01  0.00000000000E+00 0. -1.
       22    1    1    2    0    0  0.33630173296E-02 -0.10978055510E-02  0.33323534550E-01  0.33510789568E-01  0.00000000000E+00 0.  1.
</event>
<event>
 5   0  0.4146200E+04  0.9118800E+02  0.7546771E-02  0.1180000E+00
      -11   -1    0    0    0    0  0.00000000000E+00  0.00000000000E+00  0.34996269501E-01  0.35000000000E-01  0.51099999109E-03 0.  1.
       11   -1    0    0    0    0 -0.00000000000E+00 -0.00000000000E+00 -0.34996269501E-01  0.35000000000E-01  0.51099999109E-03 0.  1.
       22    1    1    2    0    0  0.24628875607E-03  0.13262164148E-03 -0.49778108415E-03  0.57099269600E-03  0.00000000000E+00 0. -1.
       22    1    1    2    0    0 -0.24628875607E-03 -0.13262164148E-03 -0.34466597900E-01  0.34467732990E-01  0.00000000000E+00 0.  1.
       22    1    1    2    0    0 -0.00000000000E+00 -0.00000000000E+00  0.34964378984E-01  0.34961274314E-01  0.00000000000E+00 0.  1.
</event>
<event>
 5   0  0.4146200E+04  0.9118800E+02  0.7546771E-02  0.1180000E+00
      -11   -1    0    0    0    0  0.00000000000E+00  0.00000000000E+00  0.34996269501E-01  0.35000000000E-01  0.51099999109E-03 0.  1.
       11   -1    0    0    0    0 -0.00000000000E+00 -0.00000000000E+00 -0.34996269501E-01  0.35000000000E-01  0.51099999109E-03 0. -1.
       22    1    1    2    0    0  0.14151050865E-01 -0.11625289523E-01 -0.22817876820E-01  0.29258419295E-01  0.00000000000E+00 0. -1.
       22    1    1    2    0    0  0.22249460630E-02  0.72968922077E-02  0.22545367238E-01  0.23801021087E-01  0.00000000000E+00 0.  1.
       22    1    1    2    0    0 -0.16375996928E-01  0.43283973154E-02  0.27250958247E-03  0.16940559618E-01  0.00000000000E+00 0.  1.
</event>
<event>
 5   0  0.4146200E+04  0.9118800E+02  0.7546771E-02  0.1180000E+00
      -11   -1    0    0    0    0  0.00000000000E+00  0.00000000000E+00  0.34996269501E-01  0.35000000000E-01  0.51099999109E-03 0.  1.
       11   -1    0    0    0    0 -0.00000000000E+00 -0.00000000000E+00 -0.34996269501E-01  0.35000000000E-01  0.51099999109E-03 0. -1.
       22    1    1    2    0    0  0.92456808043E-02  0.24781779054E-01 -0.15428222758E-01  0.30621058833E-01  0.00000000000E+00 0. -1.
       22    1    1    2    0    0 -0.11937339573E-02 -0.26194100208E-02 -0.65437753018E-02  0.71489373209E-02  0.00000000000E+00 0. -1.
       22    1    1    2    0    0 -0.80519468470E-02 -0.22162369033E-01  0.21971998060E-01  0.32230003846E-01  0.00000000000E+00 0.  1.
</event>
<event>
 5   0  0.4146200E+04  0.9118800E+02  0.7546771E-02  0.1180000E+00
      -11   -1    0    0    0    0  0.00000000000E+00  0.00000000000E+00  0.34996269501E-01  0.35000000000E-01  0.51099999109E-03 0.  1.
       11   -1    0    0    0    0 -0.00000000000E+00 -0.00000000000E+00 -0.34996269501E-01  0.35000000000E-01  0.51099999109E-03 0. -1.
       22    1    1    2    0    0 -0.15714970356E-01 -0.29785837247E-01 -0.28761995766E-02  0.33799836061E-01  0.00000000000E+00 0. -1.
       22    1    1    2    0    0  0.16783750144E-01  0.29887793678E-01  0.41568295125E-02  0.34529027085E-01  0.00000000000E+00 0.  1.
       22    1    1    2    0    0 -0.10687797884E-02 -0.10195643147E-03 -0.12806299360E-02  0.16711368534E-02  0.00000000000E+00 0.  1.
</event>
<event>
 5   0  0.4146200E+04  0.9118800E+02  0.7546771E-02  0.1180000E+00
      -11   -1    0    0    0    0  0.00000000000E+00  0.00000000000E+00  0.34996269501E-01  0.35000000000E-01  0.51099999109E-03 0. -1.
       11   -1    0    0    0    0 -0.00000000000E+00 -0.00000000000E+00 -0.34996269501E-01  0.35000000000E-01  0.51099999109E-03 0.  1.
       22    1    1    2    0    0  0.93616071642E-05  0.20116805631E-02  0.34739655729E-01  0.34797853763E-01  0.00000000000E+00 0. -1.
       22    1    1    2    0    0 -0.21911922046E-03 -0.89608609605E-03 -0.33532211944E-01  0.33544898590E-01  0.00000000000E+00 0.  1.
       22    1    1    2    0    0  0.20975761329E-03 -0.11155944671E-02 -0.12074437845E-02  0.16572476472E-02  0.00000000000E+00 0.  1.
</event>
<event>
 5   0  0.4146200E+04  0.9118800E+02  0.7546771E-02  0.1180000E+00
      -11   -1    0    0    0    0  0.00000000000E+00  0.00000000000E+00  0.34996269501E-01  0.35000000000E-01  0.51099999109E-03 0. -1.
       11   -1    0    0    0    0 -0.00000000000E+00 -0.00000000000E+00 -0.34996269501E-01  0.35000000000E-01  0.51099999109E-03 0.  1.
       22    1    1    2    0    0  0.14208804152E-01  0.15791770102E-01 -0.27596426003E-01  0.34825749763E-01  0.00000000000E+00 0.  1.
       22    1    1    2    0    0  0.39621394587E-03 -0.19916349259E-03  0.49733727318E-03  0.66633021166E-03  0.00000000000E+00 0. -1.
       22    1    1    2    0    0 -0.14605018098E-01 -0.15592606609E-01  0.27099088730E-01  0.34507920026E-01  0.00000000000E+00 0. -1.
</event>
<event>
 5   0  0.4146200E+04  0.9118800E+02  0.7546771E-02  0.1180000E+00
      -11   -1    0    0    0    0  0.00000000000E+00  0.00000000000E+00  0.34996269501E-01  0.35000000000E-01  0.51099999109E-03 0.  1.
       11   -1    0    0    0    0 -0.00000000000E+00 -0.00000000000E+00 -0.34996269501E-01  0.35000000000E-01  0.51099999109E-03 0. -1.
       22    1    1    2    0    0 -0.64679985436E-02 -0.11630208802E-01 -0.32283672691E-01  0.34918938763E-01  0.00000000000E+00 0. -1.
       22    1    1    2    0    0  0.64207728045E-02  0.11843970391E-01  0.31353471283E-01  0.34125446804E-01  0.00000000000E+00 0.  1.
       22    1    1    2    0    0  0.47225739162E-04 -0.21376158925E-03  0.93020140719E-03  0.95561443344E-03  0.00000000000E+00 0.  1.
</event>
<event>
 5   0  0.4146200E+04  0.9118800E+02  0.7546771E-02  0.1180000E+00
      -11   -1    0    0    0    0  0.00000000000E+00  0.00000000000E+00  0.34996269501E-01  0.35000000000E-01  0.51099999109E-03 0. -1.
       11   -1    0    0    0    0 -0.00000000000E+00 -0.00000000000E+00 -0.34996269501E-01  0.35000000000E-01  0.51099999109E-03 0.  1.
       22    1    1    2    0    0 -0.35505777487E-02 -0.23820699956E-02  0.30466104085E-01  0.30764660862E-01  0.00000000000E+00 0. -1.
       22    1    1    2    0    0  0.11246835197E-03 -0.10883611740E-01 -0.15538071745E-01  0.18970960102E-01  0.00000000000E+00 0.  1.
       22    1    1    2    0    0  0.34381093967E-02  0.13265681736E-01 -0.14928032341E-01  0.20264379036E-01  0.00000000000E+00 0.  1.
</event>
<event>
 5   0  0.4146200E+04  0.9118800E+02  0.7546771E-02  0.1180000E+00
      -11   -1    0    0    0    0  0.00000000000E+00  0.00000000000E+00  0.34996269501E-01  0.35000000000E-01  0.51099999109E-03 0. -1.
       11   -1    0    0    0    0 -0.00000000000E+00 -0.00000000000E+00 -0.34996269501E-01  0.35000000000E-01  0.51099999109E-03 0.  1.
       22    1    1    2    0    0  0.22591569565E-02 -0.78196899821E-02 -0.29763874020E-01  0.30856758389E-01  0.00000000000E+00 0.  1.
       22    1    1    2    0    0 -0.30921048645E-02 -0.74715255330E-03 -0.35316988539E-02  0.47531301503E-02  0.00000000000E+00 0. -1.
       22    1    1    2    0    0  0.83294790798E-03  0.85668425354E-02  0.33295572874E-01  0.34390111461E-01  0.00000000000E+00 0. -1.
</event>
<event>
 5   0  0.4146200E+04  0.9118800E+02  0.7546771E-02  0.1180000E+00
      -11   -1    0    0    0    0  0.00000000000E+00  0.00000000000E+00  0.34996269501E-01  0.35000000000E-01  0.51099999109E-03 0. -1.
       11   -1    0    0    0    0 -0.00000000000E+00 -0.00000000000E+00 -0.34996269501E-01  0.35000000000E-01  0.51099999109E-03 0.  1.
       22    1    1    2    0    0 -0.38882365844E-02 -0.79014569476E-02 -0.30942763224E-01  0.32171509159E-01  0.00000000000E+00 0.  1.
       22    1    1    2    0    0  0.49517017980E-02  0.77545590745E-02  0.33666357918E-01  0.34900948305E-01  0.00000000000E+00 0. -1.
       22    1    1    2    0    0 -0.10634652136E-02  0.14689787304E-03 -0.27235946940E-02  0.29275425364E-02  0.00000000000E+00 0.  1.
</event>
<event>
 5   0  0.4146200E+04  0.9118800E+02  0.7546771E-02  0.1180000E+00
      -11   -1    0    0    0    0  0.00000000000E+00  0.00000000000E+00  0.34996269501E-01  0.35000000000E-01  0.51099999109E-03 0. -1.
       11   -1    0    0    0    0 -0.00000000000E+00 -0.00000000000E+00 -0.34996269501E-01  0.35000000000E-01  0.51099999109E-03 0.  1.
       22    1    1    2    0    0  0.16523121199E-02 -0.19913173012E-01  0.28433794974E-01  0.34752629993E-01  0.00000000000E+00 0. -1.
       22    1    1    2    0    0 -0.28775576543E-02  0.19195132624E-01 -0.26550701873E-01  0.32888800897E-01  0.00000000000E+00 0.  1.
       22    1    1    2    0    0  0.12252455344E-02  0.71804038861E-03 -0.18830931010E-02  0.23585691099E-02  0.00000000000E+00 0. -1.
</event>
<event>
 5   0  0.4146200E+04  0.9118800E+02  0.7546771E-02  0.1180000E+00
      -11   -1    0    0    0    0  0.00000000000E+00  0.00000000000E+00  0.34996269501E-01  0.35000000000E-01  0.51099999109E-03 0. -1.
       11   -1    0    0    0    0 -0.00000000000E+00 -0.00000000000E+00 -0.34996269501E-01  0.35000000000E-01  0.51099999109E-03 0.  1.
       22    1    1    2    0    0  0.30400557335E-03  0.30554881170E-03  0.18455724116E-01  0.18460756542E-01  0.00000000000E+00 0. -1.
       22    1    1    2    0    0  0.17020819222E-01  0.94219250777E-02  0.56900110539E-02  0.20269612354E-01  0.00000000000E+00 0. -1.
       22    1    1    2    0    0 -0.17324824796E-01 -0.97274738894E-02 -0.24145735170E-01  0.31269631104E-01  0.00000000000E+00 0.  1.
</event>
<event>
 5   0  0.4146200E+04  0.9118800E+02  0.7546771E-02  0.1180000E+00
      -11   -1    0    0    0    0  0.00000000000E+00  0.00000000000E+00  0.34996269501E-01  0.35000000000E-01  0.51099999109E-03 0.  1.
       11   -1    0    0    0    0 -0.00000000000E+00 -0.00000000000E+00 -0.34996269501E-01  0.35000000000E-01  0.51099999109E-03 0. -1.
       22    1    1    2    0    0 -0.18259724960E-03 -0.56075576115E-04  0.75894793744E-03  0.78261625177E-03  0.00000000000E+00 0. -1.
       22    1    1    2    0    0 -0.85121095628E-02 -0.21084653055E-01  0.25657997104E-01  0.34283398592E-01  0.00000000000E+00 0.  1.
       22    1    1    2    0    0  0.86947068124E-02  0.21140728631E-01 -0.26416945041E-01  0.34933985156E-01  0.00000000000E+00 0. -1.
</event>
<event>
 5   0  0.4146200E+04  0.9118800E+02  0.7546771E-02  0.1180000E+00
      -11   -1    0    0    0    0  0.00000000000E+00  0.00000000000E+00  0.34996269501E-01  0.35000000000E-01  0.51099999109E-03 0. -1.
       11   -1    0    0    0    0 -0.00000000000E+00 -0.00000000000E+00 -0.34996269501E-01  0.35000000000E-01  0.51099999109E-03 0.  1.
       22    1    1    2    0    0 -0.13564952196E-01  0.20297809159E-01 -0.23930130846E-01  0.34185671664E-01  0.00000000000E+00 0.  1.
       22    1    1    2    0    0  0.13155388991E-01 -0.20362944897E-01  0.24904396809E-01  0.34755471005E-01  0.00000000000E+00 0. -1.
       22    1    1    2    0    0  0.40956320524E-03  0.65135737052E-04 -0.97426596235E-03  0.10588573316E-02  0.00000000000E+00 0. -1.
</event>
<event>
 5   0  0.4146200E+04  0.9118800E+02  0.7546771E-02  0.1180000E+00
      -11   -1    0    0    0    0  0.00000000000E+00  0.00000000000E+00  0.34996269501E-01  0.35000000000E-01  0.51099999109E-03 0.  1.
       11   -1    0    0    0    0 -0.00000000000E+00 -0.00000000000E+00 -0.34996269501E-01  0.35000000000E-01  0.51099999109E-03 0. -1.
       22    1    1    2    0    0 -0.58668632487E-02  0.10898367941E-01  0.32681406773E-01  0.34946657305E-01  0.00000000000E+00 0.  1.
       22    1    1    2    0    0  0.59895757368E-02 -0.10833669782E-01 -0.31209840942E-01  0.33575252644E-01  0.00000000000E+00 0. -1.
       22    1    1    2    0    0 -0.12271248809E-03 -0.64698158474E-04 -0.14715658307E-02  0.14780900515E-02  0.00000000000E+00 0.  1.
</event>
<event>
 5   0  0.4146200E+04  0.9118800E+02  0.7546771E-02  0.1180000E+00
      -11   -1    0    0    0    0  0.00000000000E+00  0.00000000000E+00  0.34996269501E-01  0.35000000000E-01  0.51099999109E-03 0.  1.
       11   -1    0    0    0    0 -0.00000000000E+00 -0.00000000000E+00 -0.34996269501E-01  0.35000000000E-01  0.51099999109E-03 0. -1.
       22    1    1    2    0    0  0.27182115263E-02  0.38944900609E-02  0.30269206255E-01  0.30639526335E-01  0.00000000000E+00 0.  1.
       22    1    1    2    0    0 -0.28208579019E-02  0.10432552720E-01 -0.13893333503E-01  0.17601707627E-01  0.00000000000E+00 0.  1.
       22    1    1    2    0    0  0.10264637553E-03 -0.14327042781E-01 -0.16375872752E-01  0.21758766039E-01  0.00000000000E+00 0. -1.
</event>
<event>
 5   0  0.4146200E+04  0.9118800E+02  0.7546771E-02  0.1180000E+00
      -11   -1    0    0    0    0  0.00000000000E+00  0.00000000000E+00  0.34996269501E-01  0.35000000000E-01  0.51099999109E-03 0. -1.
       11   -1    0    0    0    0 -0.00000000000E+00 -0.00000000000E+00 -0.34996269501E-01  0.35000000000E-01  0.51099999109E-03 0.  1.
       22    1    1    2    0    0  0.13913972233E-02  0.20628903495E-02 -0.32048545918E-01  0.32144996474E-01  0.00000000000E+00 0.  1.
       22    1    1    2    0    0 -0.31273600247E-02 -0.26591850931E-02  0.34527385353E-01  0.34770562051E-01  0.00000000000E+00 0. -1.
       22    1    1    2    0    0  0.17359628014E-02  0.59629474356E-03 -0.24788394345E-02  0.30844414748E-02  0.00000000000E+00 0.  1.
</event>
<event>
 5   0  0.4146200E+04  0.9118800E+02  0.7546771E-02  0.1180000E+00
      -11   -1    0    0    0    0  0.00000000000E+00  0.00000000000E+00  0.34996269501E-01  0.35000000000E-01  0.51099999109E-03 0. -1.
       11   -1    0    0    0    0 -0.00000000000E+00 -0.00000000000E+00 -0.34996269501E-01  0.35000000000E-01  0.51099999109E-03 0.  1.
       22    1    1    2    0    0 -0.19100930327E-01  0.93436516342E-02  0.27555829482E-01  0.34806222197E-01  0.00000000000E+00 0. -1.
       22    1    1    2    0    0  0.18981578373E-01 -0.96024213211E-02 -0.25910880236E-01  0.33524327396E-01  0.00000000000E+00 0.  1.
       22    1    1    2    0    0  0.11935195314E-03  0.25876968685E-03 -0.16449492458E-02  0.16694504068E-02  0.00000000000E+00 0.  1.
</event>
<event>
 5   0  0.4146200E+04  0.9118800E+02  0.7546771E-02  0.1180000E+00
      -11   -1    0    0    0    0  0.00000000000E+00  0.00000000000E+00  0.34996269501E-01  0.35000000000E-01  0.51099999109E-03 0. -1.
       11   -1    0    0    0    0 -0.00000000000E+00 -0.00000000000E+00 -0.34996269501E-01  0.35000000000E-01  0.51099999109E-03 0.  1.
       22    1    1    2    0    0  0.37493266142E-02 -0.49086229791E-02 -0.32340405756E-01  0.32924973410E-01  0.00000000000E+00 0.  1.
       22    1    1    2    0    0 -0.52830384936E-02  0.53590988683E-02  0.33969266704E-01  0.34792837148E-01  0.00000000000E+00 0. -1.
       22    1    1    2    0    0  0.15337118794E-02 -0.45047588921E-03 -0.16288609483E-02  0.22821894410E-02  0.00000000000E+00 0.  1.
</event>
<event>
 5   0  0.4146200E+04  0.9118800E+02  0.7546771E-02  0.1180000E+00
      -11   -1    0    0    0    0  0.00000000000E+00  0.00000000000E+00  0.34996269501E-01  0.35000000000E-01  0.51099999109E-03 0. -1.
       11   -1    0    0    0    0 -0.00000000000E+00 -0.00000000000E+00 -0.34996269501E-01  0.35000000000E-01  0.51099999109E-03 0.  1.
       22    1    1    2    0    0  0.10864017744E-01 -0.12001648339E-01 -0.30972042438E-01  0.34947587287E-01  0.00000000000E+00 0.  1.
       22    1    1    2    0    0  0.13328638924E-03  0.44713044252E-04  0.51344083678E-03  0.53234012695E-03  0.00000000000E+00 0.  1.
       22    1    1    2    0    0 -0.10997304133E-01  0.11956935295E-01  0.30458601601E-01  0.34520072586E-01  0.00000000000E+00 0. -1.
</event>
<event>
 5   0  0.4146200E+04  0.9118800E+02  0.7546771E-02  0.1180000E+00
      -11   -1    0    0    0    0  0.00000000000E+00  0.00000000000E+00  0.34996269501E-01  0.35000000000E-01  0.51099999109E-03 0. -1.
       11   -1    0    0    0    0 -0.00000000000E+00 -0.00000000000E+00 -0.34996269501E-01  0.35000000000E-01  0.51099999109E-03 0.  1.
       22    1    1    2    0    0  0.69990092060E-02  0.21392377325E-01 -0.23070673425E-01  0.32231598002E-01  0.00000000000E+00 0.  1.
       22    1    1    2    0    0 -0.12910504788E-01 -0.16823018702E-01  0.11863362469E-01  0.24298857199E-01  0.00000000000E+00 0. -1.
       22    1    1    2    0    0  0.59114955817E-02 -0.45693586233E-02  0.11207310956E-01  0.13469544799E-01  0.00000000000E+00 0. -1.
</event>
<event>
 5   0  0.4146200E+04  0.9118800E+02  0.7546771E-02  0.1180000E+00
      -11   -1    0    0    0    0  0.00000000000E+00  0.00000000000E+00  0.34996269501E-01  0.35000000000E-01  0.51099999109E-03 0.  1.
       11   -1    0    0    0    0 -0.00000000000E+00 -0.00000000000E+00 -0.34996269501E-01  0.35000000000E-01  0.51099999109E-03 0. -1.
       22    1    1    2    0    0  0.90365842924E-02  0.22937090181E-01  0.22655919612E-01  0.33482243878E-01  0.00000000000E+00 0.  1.
       22    1    1    2    0    0 -0.23979540289E-03  0.86171085968E-04  0.17875088336E-02  0.18055788882E-02  0.00000000000E+00 0.  1.
       22    1    1    2    0    0 -0.87967888895E-02 -0.23023261267E-01 -0.24443428446E-01  0.34712177234E-01  0.00000000000E+00 0. -1.
</event>
<event>
 5   0  0.4146200E+04  0.9118800E+02  0.7546771E-02  0.1180000E+00
      -11   -1    0    0    0    0  0.00000000000E+00  0.00000000000E+00  0.34996269501E-01  0.35000000000E-01  0.51099999109E-03 0. -1.
       11   -1    0    0    0    0 -0.00000000000E+00 -0.00000000000E+00 -0.34996269501E-01  0.35000000000E-01  0.51099999109E-03 0.  1.
       22    1    1    2    0    0  0.94959555003E-02  0.31029741755E-02 -0.27629358768E-01  0.29379977630E-01  0.00000000000E+00 0.  1.
       22    1    1    2    0    0 -0.95038071364E-02 -0.28860884656E-02  0.33399876716E-01  0.34845424683E-01  0.00000000000E+00 0. -1.
       22    1    1    2    0    0  0.78516360885E-05 -0.21688570990E-03 -0.57705179482E-02  0.57745976873E-02  0.00000000000E+00 0. -1.
</event>
<event>
 5   0  0.4146200E+04  0.9118800E+02  0.7546771E-02  0.1180000E+00
      -11   -1    0    0    0    0  0.00000000000E+00  0.00000000000E+00  0.34996269501E-01  0.35000000000E-01  0.51099999109E-03 0. -1.
       11   -1    0    0    0    0 -0.00000000000E+00 -0.00000000000E+00 -0.34996269501E-01  0.35000000000E-01  0.51099999109E-03 0.  1.
       22    1    1    2    0    0  0.16000271828E-01  0.11033596306E-01  0.28931253153E-01  0.34853498462E-01  0.00000000000E+00 0. -1.
       22    1    1    2    0    0 -0.14063461729E-03  0.45575829556E-04 -0.18986293969E-02  0.19043762334E-02  0.00000000000E+00 0.  1.
       22    1    1    2    0    0 -0.15859637211E-01 -0.11079172135E-01 -0.27032623756E-01  0.33242125305E-01  0.00000000000E+00 0.  1.
</event>
<event>
 5   0  0.4146200E+04  0.9118800E+02  0.7546771E-02  0.1180000E+00
      -11   -1    0    0    0    0  0.00000000000E+00  0.00000000000E+00  0.34996269501E-01  0.35000000000E-01  0.51099999109E-03 0.  1.
       11   -1    0    0    0    0 -0.00000000000E+00 -0.00000000000E+00 -0.34996269501E-01  0.35000000000E-01  0.51099999109E-03 0. -1.
       22    1    1    2    0    0  0.11946355321E-03 -0.59921618187E-04 -0.36418538113E-03  0.38793444381E-03  0.00000000000E+00 0.  1.
       22    1    1    2    0    0 -0.19726691809E-03 -0.16817181114E-02 -0.34581495478E-01  0.34622924769E-01  0.00000000000E+00 0. -1.
       22    1    1    2    0    0  0.77803364886E-04  0.17416397296E-02  0.34945680859E-01  0.34989140787E-01  0.00000000000E+00 0.  1.
</event>
<event>
 5   0  0.4146200E+04  0.9118800E+02  0.7546771E-02  0.1180000E+00
      -11   -1    0    0    0    0  0.00000000000E+00  0.00000000000E+00  0.34996269501E-01  0.35000000000E-01  0.51099999109E-03 0.  1.
       11   -1    0    0    0    0 -0.00000000000E+00 -0.00000000000E+00 -0.34996269501E-01  0.35000000000E-01  0.51099999109E-03 0. -1.
       22    1    1    2    0    0  0.27892557836E-02 -0.41008098452E-02  0.34536679881E-01  0.34890956513E-01  0.00000000000E+00 0.  1.
       22    1    1    2    0    0  0.67133329103E-03  0.10370257562E-02 -0.31448955379E-02  0.33788280144E-02  0.00000000000E+00 0.  1.
       22    1    1    2    0    0 -0.34605890746E-02  0.30637840890E-02 -0.31391784343E-01  0.31730215472E-01  0.00000000000E+00 0. -1.
</event>
<event>
 5   0  0.4146200E+04  0.9118800E+02  0.7546771E-02  0.1180000E+00
      -11   -1    0    0    0    0  0.00000000000E+00  0.00000000000E+00  0.34996269501E-01  0.35000000000E-01  0.51099999109E-03 0. -1.
       11   -1    0    0    0    0 -0.00000000000E+00 -0.00000000000E+00 -0.34996269501E-01  0.35000000000E-01  0.51099999109E-03 0.  1.
       22    1    1    2    0    0  0.40116639902E-02  0.90628392888E-02 -0.12574926182E-01  0.16011160871E-01  0.00000000000E+00 0.  1.
       22    1    1    2    0    0 -0.38038162074E-02 -0.89455052902E-02  0.32571376588E-01  0.33990964322E-01  0.00000000000E+00 0. -1.
       22    1    1    2    0    0 -0.20784778281E-03 -0.11733399861E-03 -0.19996450407E-01  0.19997874808E-01  0.00000000000E+00 0.  1.
</event>
<event>
 5   0  0.4146200E+04  0.9118800E+02  0.7546771E-02  0.1180000E+00
      -11   -1    0    0    0    0  0.00000000000E+00  0.00000000000E+00  0.34996269501E-01  0.35000000000E-01  0.51099999109E-03 0.  1.
       11   -1    0    0    0    0 -0.00000000000E+00 -0.00000000000E+00 -0.34996269501E-01  0.35000000000E-01  0.51099999109E-03 0. -1.
       22    1    1    2    0    0  0.18074940828E-01  0.86004442100E-02  0.22182412508E-01  0.29878596875E-01  0.00000000000E+00 0.  1.
       22    1    1    2    0    0 -0.20967584551E-01 -0.11477333151E-01 -0.25434665741E-01  0.34904025548E-01  0.00000000000E+00 0. -1.
       22    1    1    2    0    0  0.28926437223E-02  0.28768889413E-02  0.32522532326E-02  0.52173775763E-02  0.00000000000E+00 0.  1.
</event>
<event>
 5   0  0.4146200E+04  0.9118800E+02  0.7546771E-02  0.1180000E+00
      -11   -1    0    0    0    0  0.00000000000E+00  0.00000000000E+00  0.34996269501E-01  0.35000000000E-01  0.51099999109E-03 0.  1.
       11   -1    0    0    0    0 -0.00000000000E+00 -0.00000000000E+00 -0.34996269501E-01  0.35000000000E-01  0.51099999109E-03 0. -1.
       22    1    1    2    0    0 -0.44860051744E-02 -0.10798041493E-01 -0.32192422206E-01  0.34250167737E-01  0.00000000000E+00 0. -1.
       22    1    1    2    0    0  0.32316461655E-03  0.23563713426E-03  0.15826615871E-01  0.15831668584E-01  0.00000000000E+00 0.  1.
       22    1    1    2    0    0  0.41628405578E-02  0.10562404359E-01  0.16365806335E-01  0.19918163679E-01  0.00000000000E+00 0.  1.
</event>
<event>
 5   0  0.4146200E+04  0.9118800E+02  0.7546771E-02  0.1180000E+00
      -11   -1    0    0    0    0  0.00000000000E+00  0.00000000000E+00  0.34996269501E-01  0.35000000000E-01  0.51099999109E-03 0.  1.
       11   -1    0    0    0    0 -0.00000000000E+00 -0.00000000000E+00 -0.34996269501E-01  0.35000000000E-01  0.51099999109E-03 0. -1.
       22    1    1    2    0    0  0.72290542270E-02 -0.14248577911E-01 -0.25552403346E-01  0.30136464860E-01  0.00000000000E+00 0. -1.
       22    1    1    2    0    0  0.29186675846E-03  0.22683104826E-02  0.25616147212E-01  0.25718036796E-01  0.00000000000E+00 0.  1.
       22    1    1    2    0    0 -0.75209209855E-02  0.11980267428E-01 -0.63743866582E-04  0.14145498344E-01  0.00000000000E+00 0.  1.
</event>
<event>
 5   0  0.4146200E+04  0.9118800E+02  0.7546771E-02  0.1180000E+00
      -11   -1    0    0    0    0  0.00000000000E+00  0.00000000000E+00  0.34996269501E-01  0.35000000000E-01  0.51099999109E-03 0.  1.
       11   -1    0    0    0    0 -0.00000000000E+00 -0.00000000000E+00 -0.34996269501E-01  0.35000000000E-01  0.51099999109E-03 0. -1.
       22    1    1    2    0    0  0.31631951553E-02 -0.34879434887E-02 -0.10111501843E-01  0.11154103411E-01  0.00000000000E+00 0.  1.
       22    1    1    2    0    0  0.88942926536E-02 -0.17454297240E-01  0.23995163699E-01  0.30976262119E-01  0.00000000000E+00 0.  1.
       22    1    1    2    0    0 -0.12057487809E-01  0.20942240728E-01 -0.13883661856E-01  0.27869634470E-01  0.00000000000E+00 0. -1.
</event>
<event>
 5   0  0.4146200E+04  0.9118800E+02  0.7546771E-02  0.1180000E+00
      -11   -1    0    0    0    0  0.00000000000E+00  0.00000000000E+00  0.34996269501E-01  0.35000000000E-01  0.51099999109E-03 0.  1.
       11   -1    0    0    0    0 -0.00000000000E+00 -0.00000000000E+00 -0.34996269501E-01  0.35000000000E-01  0.51099999109E-03 0. -1.
       22    1    1    2    0    0 -0.44762354280E-02 -0.99610988605E-02 -0.27461260919E-01  0.29553020579E-01  0.00000000000E+00 0. -1.
       22    1    1    2    0    0  0.11168652544E-03  0.18358467850E-02 -0.57196114534E-02  0.60080581285E-02  0.00000000000E+00 0.  1.
       22    1    1    2    0    0  0.43645489026E-02  0.81252520755E-02  0.33180872372E-01  0.34438921292E-01  0.00000000000E+00 0.  1.
</event>
<event>
 5   0  0.4146200E+04  0.9118800E+02  0.7546771E-02  0.1180000E+00
      -11   -1    0    0    0    0  0.00000000000E+00  0.00000000000E+00  0.34996269501E-01  0.35000000000E-01  0.51099999109E-03 0. -1.
       11   -1    0    0    0    0 -0.00000000000E+00 -0.00000000000E+00 -0.34996269501E-01  0.35000000000E-01  0.51099999109E-03 0.  1.
       22    1    1    2    0    0 -0.12342998979E-01 -0.19077849310E-02 -0.22441872605E-01  0.25683202938E-01  0.00000000000E+00 0.  1.
       22    1    1    2    0    0 -0.12672656486E-02  0.23798148195E-02 -0.93499494836E-02  0.97309319259E-02  0.00000000000E+00 0. -1.
       22    1    1    2    0    0  0.13610264628E-01 -0.47202988850E-03  0.31791822089E-01  0.34585865136E-01  0.00000000000E+00 0. -1.
</event>
<event>
 5   0  0.4146200E+04  0.9118800E+02  0.7546771E-02  0.1180000E+00
      -11   -1    0    0    0    0  0.00000000000E+00  0.00000000000E+00  0.34996269501E-01  0.35000000000E-01  0.51099999109E-03 0.  1.
       11   -1    0    0    0    0 -0.00000000000E+00 -0.00000000000E+00 -0.34996269501E-01  0.35000000000E-01  0.51099999109E-03 0. -1.
       22    1    1    2    0    0  0.22731420074E-03 -0.87009140891E-04 -0.43668059617E-03  0.49993227494E-03  0.00000000000E+00 0.  1.
       22    1    1    2    0    0  0.43120282394E-03 -0.10864455833E-02 -0.34508849709E-01  0.34528640403E-01  0.00000000000E+00 0. -1.
       22    1    1    2    0    0 -0.65851702468E-03  0.11734547242E-02  0.34945530305E-01  0.34971427322E-01  0.00000000000E+00 0.  1.
</event>
<event>
 5   0  0.4146200E+04  0.9118800E+02  0.7546771E-02  0.1180000E+00
      -11   -1    0    0    0    0  0.00000000000E+00  0.00000000000E+00  0.34996269501E-01  0.35000000000E-01  0.51099999109E-03 0. -1.
       11   -1    0    0    0    0 -0.00000000000E+00 -0.00000000000E+00 -0.34996269501E-01  0.35000000000E-01  0.51099999109E-03 0.  1.
       22    1    1    2    0    0  0.33100035842E-05 -0.45019810028E-05  0.30011406242E-03  0.30016607806E-03  0.00000000000E+00 0.  1.
       22    1    1    2    0    0 -0.20203984391E-01  0.13675708369E-01  0.24737846258E-01  0.34744597021E-01  0.00000000000E+00 0. -1.
       22    1    1    2    0    0  0.20200674387E-01 -0.13671206388E-01 -0.25037960320E-01  0.34955236901E-01  0.00000000000E+00 0.  1.
</event>
<event>
 5   0  0.4146200E+04  0.9118800E+02  0.7546771E-02  0.1180000E+00
      -11   -1    0    0    0    0  0.00000000000E+00  0.00000000000E+00  0.34996269501E-01  0.35000000000E-01  0.51099999109E-03 0. -1.
       11   -1    0    0    0    0 -0.00000000000E+00 -0.00000000000E+00 -0.34996269501E-01  0.35000000000E-01  0.51099999109E-03 0.  1.
       22    1    1    2    0    0  0.47047861127E-02 -0.14110038481E-01  0.24245338504E-01  0.28444061550E-01  0.00000000000E+00 0. -1.
       22    1    1    2    0    0 -0.28607406865E-02 -0.59105429292E-02  0.33828722078E-02  0.73866216478E-02  0.00000000000E+00 0. -1.
       22    1    1    2    0    0 -0.18440454262E-02  0.20020581410E-01 -0.27628210712E-01  0.34169316802E-01  0.00000000000E+00 0.  1.
</event>
<event>
 5   0  0.4146200E+04  0.9118800E+02  0.7546771E-02  0.1180000E+00
      -11   -1    0    0    0    0  0.00000000000E+00  0.00000000000E+00  0.34996269501E-01  0.35000000000E-01  0.51099999109E-03 0.  1.
       11   -1    0    0    0    0 -0.00000000000E+00 -0.00000000000E+00 -0.34996269501E-01  0.35000000000E-01  0.51099999109E-03 0. -1.
       22    1    1    2    0    0 -0.10207780005E-02 -0.50156598514E-03  0.56146985393E-02  0.57287342276E-02  0.00000000000E+00 0. -1.
       22    1    1    2    0    0  0.89200901715E-02 -0.20355777646E-01 -0.25896311113E-01  0.34125424854E-01  0.00000000000E+00 0. -1.
       22    1    1    2    0    0 -0.78993121709E-02  0.20857343631E-01  0.20281612573E-01  0.30145840918E-01  0.00000000000E+00 0.  1.
</event>
<event>
 5   0  0.4146200E+04  0.9118800E+02  0.7546771E-02  0.1180000E+00
      -11   -1    0    0    0    0  0.00000000000E+00  0.00000000000E+00  0.34996269501E-01  0.35000000000E-01  0.51099999109E-03 0. -1.
       11   -1    0    0    0    0 -0.00000000000E+00 -0.00000000000E+00 -0.34996269501E-01  0.35000000000E-01  0.51099999109E-03 0.  1.
       22    1    1    2    0    0  0.23838616886E-03 -0.17450984696E-03 -0.22217494501E-01  0.22219458669E-01  0.00000000000E+00 0.  1.
       22    1    1    2    0    0 -0.60436325390E-02 -0.15891233737E-02  0.33977653378E-01  0.34547528659E-01  0.00000000000E+00 0. -1.
       22    1    1    2    0    0  0.58052463701E-02  0.17636332207E-02 -0.11760158877E-01  0.13233012672E-01  0.00000000000E+00 0.  1.
</event>
<event>
 5   0  0.4146200E+04  0.9118800E+02  0.7546771E-02  0.1180000E+00
      -11   -1    0    0    0    0  0.00000000000E+00  0.00000000000E+00  0.34996269501E-01  0.35000000000E-01  0.51099999109E-03 0.  1.
       11   -1    0    0    0    0 -0.00000000000E+00 -0.00000000000E+00 -0.34996269501E-01  0.35000000000E-01  0.51099999109E-03 0. -1.
       22    1    1    2    0    0  0.68670198651E-02  0.27190248846E-02  0.34037317338E-01  0.34829413284E-01  0.00000000000E+00 0.  1.
       22    1    1    2    0    0 -0.66278882760E-02 -0.37006804572E-02 -0.32103137411E-01  0.32988412670E-01  0.00000000000E+00 0. -1.
       22    1    1    2    0    0 -0.23913158904E-03  0.98165557260E-03 -0.19341799264E-02  0.21821740462E-02  0.00000000000E+00 0.  1.
</event>
<event>
 5   0  0.4146200E+04  0.9118800E+02  0.7546771E-02  0.1180000E+00
      -11   -1    0    0    0    0  0.00000000000E+00  0.00000000000E+00  0.34996269501E-01  0.35000000000E-01  0.51099999109E-03 0. -1.
       11   -1    0    0    0    0 -0.00000000000E+00 -0.00000000000E+00 -0.34996269501E-01  0.35000000000E-01  0.51099999109E-03 0.  1.
       22    1    1    2    0    0  0.26483742946E-03  0.12276348238E-03 -0.70401598524E-03  0.76213400667E-03  0.00000000000E+00 0. -1.
       22    1    1    2    0    0 -0.39228100578E-02  0.54114782445E-03 -0.34053055131E-01  0.34282529712E-01  0.00000000000E+00 0.  1.
       22    1    1    2    0    0  0.36579726283E-02 -0.66391130682E-03  0.34757071116E-01  0.34955336281E-01  0.00000000000E+00 0. -1.
</event>
<event>
 5   0  0.4146200E+04  0.9118800E+02  0.7546771E-02  0.1180000E+00
      -11   -1    0    0    0    0  0.00000000000E+00  0.00000000000E+00  0.34996269501E-01  0.35000000000E-01  0.51099999109E-03 0. -1.
       11   -1    0    0    0    0 -0.00000000000E+00 -0.00000000000E+00 -0.34996269501E-01  0.35000000000E-01  0.51099999109E-03 0.  1.
       22    1    1    2    0    0 -0.76850676322E-03  0.12372323640E-02 -0.20483034385E-02  0.25133431011E-02  0.00000000000E+00 0. -1.
       22    1    1    2    0    0 -0.12187998705E-01  0.75768958175E-03  0.32292132527E-01  0.34523951527E-01  0.00000000000E+00 0. -1.
       22    1    1    2    0    0  0.12956505468E-01 -0.19949219458E-02 -0.30243829088E-01  0.32962705372E-01  0.00000000000E+00 0.  1.
</event>
<event>
 5   0  0.4146200E+04  0.9118800E+02  0.7546771E-02  0.1180000E+00
      -11   -1    0    0    0    0  0.00000000000E+00  0.00000000000E+00  0.34996269501E-01  0.35000000000E-01  0.51099999109E-03 0. -1.
       11   -1    0    0    0    0 -0.00000000000E+00 -0.00000000000E+00 -0.34996269501E-01  0.35000000000E-01  0.51099999109E-03 0.  1.
       22    1    1    2    0    0  0.15375431454E-01  0.85549261640E-03 -0.30852803014E-01  0.34482331909E-01  0.00000000000E+00 0.  1.
       22    1    1    2    0    0 -0.19691731718E-03 -0.35015167803E-03 -0.52308234263E-03  0.65954360327E-03  0.00000000000E+00 0. -1.
       22    1    1    2    0    0 -0.15178514137E-01 -0.50534093837E-03  0.31375885357E-01  0.34858124488E-01  0.00000000000E+00 0. -1.
</event>
<event>
 5   0  0.4146200E+04  0.9118800E+02  0.7546771E-02  0.1180000E+00
      -11   -1    0    0    0    0  0.00000000000E+00  0.00000000000E+00  0.34996269501E-01  0.35000000000E-01  0.51099999109E-03 0.  1.
       11   -1    0    0    0    0 -0.00000000000E+00 -0.00000000000E+00 -0.34996269501E-01  0.35000000000E-01  0.51099999109E-03 0. -1.
       22    1    1    2    0    0 -0.24651825372E-01  0.83351759514E-02 -0.22029956187E-01  0.34095551351E-01  0.00000000000E+00 0. -1.
       22    1    1    2    0    0  0.24750288352E-01 -0.79450680806E-02  0.23091320979E-01  0.34769382866E-01  0.00000000000E+00 0.  1.
       22    1    1    2    0    0 -0.98462980420E-04 -0.39010787074E-03 -0.10613647923E-02  0.11350657830E-02  0.00000000000E+00 0.  1.
</event>
<event>
 5   0  0.4146200E+04  0.9118800E+02  0.7546771E-02  0.1180000E+00
      -11   -1    0    0    0    0  0.00000000000E+00  0.00000000000E+00  0.34996269501E-01  0.35000000000E-01  0.51099999109E-03 0.  1.
       11   -1    0    0    0    0 -0.00000000000E+00 -0.00000000000E+00 -0.34996269501E-01  0.35000000000E-01  0.51099999109E-03 0. -1.
       22    1    1    2    0    0  0.13163393943E-01  0.14613678059E-01  0.27847922017E-01  0.34093126685E-01  0.00000000000E+00 0.  1.
       22    1    1    2    0    0 -0.13082409653E-01 -0.14590201971E-01 -0.28863763988E-01  0.34887537996E-01  0.00000000000E+00 0. -1.
       22    1    1    2    0    0 -0.80984290114E-04 -0.23476088160E-04  0.10158419714E-02  0.10193353192E-02  0.00000000000E+00 0. -1.
</event>
<event>
 5   0  0.4146200E+04  0.9118800E+02  0.7546771E-02  0.1180000E+00
      -11   -1    0    0    0    0  0.00000000000E+00  0.00000000000E+00  0.34996269501E-01  0.35000000000E-01  0.51099999109E-03 0.  1.
       11   -1    0    0    0    0 -0.00000000000E+00 -0.00000000000E+00 -0.34996269501E-01  0.35000000000E-01  0.51099999109E-03 0. -1.
       22    1    1    2    0    0  0.94520261532E-02  0.11942768282E-01  0.30901039781E-01  0.34450613524E-01  0.00000000000E+00 0.  1.
       22    1    1    2    0    0 -0.42319179633E-03 -0.19581715027E-03 -0.95498926452E-02  0.95612700615E-02  0.00000000000E+00 0. -1.
       22    1    1    2    0    0 -0.90288343569E-02 -0.11746951131E-01 -0.21351147136E-01  0.25988116414E-01  0.00000000000E+00 0. -1.
</event>
<event>
 5   0  0.4146200E+04  0.9118800E+02  0.7546771E-02  0.1180000E+00
      -11   -1    0    0    0    0  0.00000000000E+00  0.00000000000E+00  0.34996269501E-01  0.35000000000E-01  0.51099999109E-03 0.  1.
       11   -1    0    0    0    0 -0.00000000000E+00 -0.00000000000E+00 -0.34996269501E-01  0.35000000000E-01  0.51099999109E-03 0. -1.
       22    1    1    2    0    0  0.38563011079E-02  0.17729465476E-02  0.34584581001E-01  0.34844047421E-01  0.00000000000E+00 0.  1.
       22    1    1    2    0    0 -0.27443181084E-02 -0.94083696397E-03 -0.32627059734E-01  0.32755785488E-01  0.00000000000E+00 0. -1.
       22    1    1    2    0    0 -0.11119829995E-02 -0.83210958366E-03 -0.19575212671E-02  0.24001670904E-02  0.00000000000E+00 0. -1.
</event>
<event>
 5   0  0.4146200E+04  0.9118800E+02  0.7546771E-02  0.1180000E+00
      -11   -1    0    0    0    0  0.00000000000E+00  0.00000000000E+00  0.34996269501E-01  0.35000000000E-01  0.51099999109E-03 0. -1.
       11   -1    0    0    0    0 -0.00000000000E+00 -0.00000000000E+00 -0.34996269501E-01  0.35000000000E-01  0.51099999109E-03 0.  1.
       22    1    1    2    0    0 -0.15671777728E-02 -0.59884325991E-02  0.31932745803E-01  0.32527182873E-01  0.00000000000E+00 0. -1.
       22    1    1    2    0    0 -0.74035040263E-02  0.25908573020E-02 -0.61620905905E-02  0.99747568327E-02  0.00000000000E+00 0.  1.
       22    1    1    2    0    0  0.89706817991E-02  0.33975752971E-02 -0.25770655212E-01  0.27498060294E-01  0.00000000000E+00 0.  1.
</event>
<event>
 5   0  0.4146200E+04  0.9118800E+02  0.7546771E-02  0.1180000E+00
      -11   -1    0    0    0    0  0.00000000000E+00  0.00000000000E+00  0.34996269501E-01  0.35000000000E-01  0.51099999109E-03 0. -1.
       11   -1    0    0    0    0 -0.00000000000E+00 -0.00000000000E+00 -0.34996269501E-01  0.35000000000E-01  0.51099999109E-03 0.  1.
       22    1    1    2    0    0  0.50953476844E-02  0.14812005591E-01  0.63853154843E-02  0.16915387418E-01  0.00000000000E+00 0. -1.
       22    1    1    2    0    0 -0.51416956672E-02 -0.16660973282E-01 -0.27134163052E-01  0.32253493912E-01  0.00000000000E+00 0.  1.
       22    1    1    2    0    0  0.46347982870E-04  0.18489676903E-02  0.20748847568E-01  0.20831118670E-01  0.00000000000E+00 0.  1.
</event>
<event>
 5   0  0.4146200E+04  0.9118800E+02  0.7546771E-02  0.1180000E+00
      -11   -1    0    0    0    0  0.00000000000E+00  0.00000000000E+00  0.34996269501E-01  0.35000000000E-01  0.51099999109E-03 0.  1.
       11   -1    0    0    0    0 -0.00000000000E+00 -0.00000000000E+00 -0.34996269501E-01  0.35000000000E-01  0.51099999109E-03 0. -1.
       22    1    1    2    0    0 -0.42286978550E-02 -0.62403555003E-03  0.34521326600E-01  0.34784957901E-01  0.00000000000E+00 0.  1.
       22    1    1    2    0    0 -0.73366323040E-03  0.51212589351E-03 -0.10580590783E-02  0.13856491906E-02  0.00000000000E+00 0. -1.
       22    1    1    2    0    0  0.49623610854E-02  0.11190965652E-03 -0.33463267522E-01  0.33829392909E-01  0.00000000000E+00 0. -1.
</event>
<event>
 5   0  0.4146200E+04  0.9118800E+02  0.7546771E-02  0.1180000E+00
      -11   -1    0    0    0    0  0.00000000000E+00  0.00000000000E+00  0.34996269501E-01  0.35000000000E-01  0.51099999109E-03 0. -1.
       11   -1    0    0    0    0 -0.00000000000E+00 -0.00000000000E+00 -0.34996269501E-01  0.35000000000E-01  0.51099999109E-03 0.  1.
       22    1    1    2    0    0 -0.49834553296E-03  0.32180722191E-03 -0.80282820500E-03  0.99821905664E-03  0.00000000000E+00 0. -1.
       22    1    1    2    0    0 -0.25702897792E-02  0.45789258780E-02 -0.33655001557E-01  0.34062179636E-01  0.00000000000E+00 0.  1.
       22    1    1    2    0    0  0.30686353122E-02 -0.49007330999E-02  0.34457829762E-01  0.34939601307E-01  0.00000000000E+00 0. -1.
</event>
<event>
 5   0  0.4146200E+04  0.9118800E+02  0.7546771E-02  0.1180000E+00
      -11   -1    0    0    0    0  0.00000000000E+00  0.00000000000E+00  0.34996269501E-01  0.35000000000E-01  0.51099999109E-03 0.  1.
       11   -1    0    0    0    0 -0.00000000000E+00 -0.00000000000E+00 -0.34996269501E-01  0.35000000000E-01  0.51099999109E-03 0.  1.
       22    1    1    2    0    0  0.40852973744E-02  0.17055088150E-01 -0.20687739681E-01  0.27120992968E-01  0.00000000000E+00 0.  1.
       22    1    1    2    0    0  0.00000000000E+00  0.00000000000E+00  0.24853566159E-01  0.24853475232E-01  0.00000000000E+00 0.  1.
       22    1    1    2    0    0 -0.40852973744E-02 -0.17055088150E-01 -0.41658264774E-02  0.18025531800E-01  0.00000000000E+00 0. -1.
</event>
<event>
 5   0  0.4146200E+04  0.9118800E+02  0.7546771E-02  0.1180000E+00
      -11   -1    0    0    0    0  0.00000000000E+00  0.00000000000E+00  0.34996269501E-01  0.35000000000E-01  0.51099999109E-03 0. -1.
       11   -1    0    0    0    0 -0.00000000000E+00 -0.00000000000E+00 -0.34996269501E-01  0.35000000000E-01  0.51099999109E-03 0.  1.
       22    1    1    2    0    0 -0.49517608760E-03  0.36555814762E-03  0.29781159200E-03  0.68375716548E-03  0.00000000000E+00 0. -1.
       22    1    1    2    0    0 -0.11620604320E-01  0.16008005696E-01  0.28102784411E-01  0.34366570716E-01  0.00000000000E+00 0. -1.
       22    1    1    2    0    0  0.12115780407E-01 -0.16373563844E-01 -0.28400596003E-01  0.34949672118E-01  0.00000000000E+00 0.  1.
</event>
<event>
 5   0  0.4146200E+04  0.9118800E+02  0.7546771E-02  0.1180000E+00
      -11   -1    0    0    0    0  0.00000000000E+00  0.00000000000E+00  0.34996269501E-01  0.35000000000E-01  0.51099999109E-03 0.  1.
       11   -1    0    0    0    0 -0.00000000000E+00 -0.00000000000E+00 -0.34996269501E-01  0.35000000000E-01  0.51099999109E-03 0.  1.
       22    1    1    2    0    0  0.48484116731E-03  0.28906965518E-03  0.27779389603E-01  0.27785124058E-01  0.00000000000E+00 0.  1.
       22    1    1    2    0    0  0.10629261757E-01  0.78082498549E-02 -0.24803158988E-02  0.13420206342E-01  0.00000000000E+00 0.  1.
       22    1    1    2    0    0 -0.11114102924E-01 -0.80973195101E-02 -0.25299073704E-01  0.28794669600E-01  0.00000000000E+00 0. -1.
</event>
<event>
 5   0  0.4146200E+04  0.9118800E+02  0.7546771E-02  0.1180000E+00
      -11   -1    0    0    0    0  0.00000000000E+00  0.00000000000E+00  0.34996269501E-01  0.35000000000E-01  0.51099999109E-03 0.  1.
       11   -1    0    0    0    0 -0.00000000000E+00 -0.00000000000E+00 -0.34996269501E-01  0.35000000000E-01  0.51099999109E-03 0. -1.
       22    1    1    2    0    0  0.19608415947E-02 -0.16087054817E-01 -0.29597972329E-01  0.33744306164E-01  0.00000000000E+00 0. -1.
       22    1    1    2    0    0 -0.10355860707E-02 -0.15122761217E-03 -0.10980433796E-02  0.15169072364E-02  0.00000000000E+00 0. -1.
       22    1    1    2    0    0 -0.92525552406E-03  0.16238282429E-01  0.30696015709E-01  0.34738786600E-01  0.00000000000E+00 0.  1.
</event>
<event>
 5   0  0.4146200E+04  0.9118800E+02  0.7546771E-02  0.1180000E+00
      -11   -1    0    0    0    0  0.00000000000E+00  0.00000000000E+00  0.34996269501E-01  0.35000000000E-01  0.51099999109E-03 0.  1.
       11   -1    0    0    0    0 -0.00000000000E+00 -0.00000000000E+00 -0.34996269501E-01  0.35000000000E-01  0.51099999109E-03 0. -1.
       22    1    1    2    0    0 -0.25615112945E-03 -0.11244681376E-03 -0.72950067737E-02  0.73003685876E-02  0.00000000000E+00 0. -1.
       22    1    1    2    0    0 -0.19098932751E-01  0.18398178908E-02 -0.20954497593E-01  0.28412059614E-01  0.00000000000E+00 0. -1.
       22    1    1    2    0    0  0.19355083880E-01 -0.17273710771E-02  0.28249504367E-01  0.34287571799E-01  0.00000000000E+00 0.  1.
</event>
<event>
 5   0  0.4146200E+04  0.9118800E+02  0.7546771E-02  0.1180000E+00
      -11   -1    0    0    0    0  0.00000000000E+00  0.00000000000E+00  0.34996269501E-01  0.35000000000E-01  0.51099999109E-03 0.  1.
       11   -1    0    0    0    0 -0.00000000000E+00 -0.00000000000E+00 -0.34996269501E-01  0.35000000000E-01  0.51099999109E-03 0. -1.
       22    1    1    2    0    0 -0.68415307038E-02  0.92903772187E-03 -0.19739383278E-01  0.20912027775E-01  0.00000000000E+00 0. -1.
       22    1    1    2    0    0  0.94224790011E-02 -0.15775639743E-01 -0.59417122395E-02  0.19312117030E-01  0.00000000000E+00 0. -1.
       22    1    1    2    0    0 -0.25809482972E-02  0.14846602021E-01  0.25681095517E-01  0.29775855196E-01  0.00000000000E+00 0.  1.
</event>
<event>
 5   0  0.4146200E+04  0.9118800E+02  0.7546771E-02  0.1180000E+00
      -11   -1    0    0    0    0  0.00000000000E+00  0.00000000000E+00  0.34996269501E-01  0.35000000000E-01  0.51099999109E-03 0. -1.
       11   -1    0    0    0    0 -0.00000000000E+00 -0.00000000000E+00 -0.34996269501E-01  0.35000000000E-01  0.51099999109E-03 0.  1.
       22    1    1    2    0    0  0.87706266114E-03 -0.57423166586E-03  0.65596355936E-03  0.12366362072E-02  0.00000000000E+00 0.  1.
       22    1    1    2    0    0  0.84403340756E-02  0.12677187993E-01  0.30485356907E-01  0.34077959453E-01  0.00000000000E+00 0. -1.
       22    1    1    2    0    0 -0.93173967368E-02 -0.12102956327E-01 -0.31141320467E-01  0.34685404340E-01  0.00000000000E+00 0.  1.
</event>
<event>
 5   0  0.4146200E+04  0.9118800E+02  0.7546771E-02  0.1180000E+00
      -11   -1    0    0    0    0  0.00000000000E+00  0.00000000000E+00  0.34996269501E-01  0.35000000000E-01  0.51099999109E-03 0. -1.
       11   -1    0    0    0    0 -0.00000000000E+00 -0.00000000000E+00 -0.34996269501E-01  0.35000000000E-01  0.51099999109E-03 0.  1.
       22    1    1    2    0    0 -0.50634144576E-02  0.12166065065E-01 -0.18235049399E-01  0.22498185076E-01  0.00000000000E+00 0.  1.
       22    1    1    2    0    0 -0.57619805848E-02 -0.55668144967E-02 -0.12163669506E-01  0.14565187941E-01  0.00000000000E+00 0.  1.
       22    1    1    2    0    0  0.10825395042E-01 -0.65992505685E-02  0.30398718906E-01  0.32936626983E-01  0.00000000000E+00 0. -1.
</event>
<event>
 5   0  0.4146200E+04  0.9118800E+02  0.7546771E-02  0.1180000E+00
      -11   -1    0    0    0    0  0.00000000000E+00  0.00000000000E+00  0.34996269501E-01  0.35000000000E-01  0.51099999109E-03 0. -1.
       11   -1    0    0    0    0 -0.00000000000E+00 -0.00000000000E+00 -0.34996269501E-01  0.35000000000E-01  0.51099999109E-03 0.  1.
       22    1    1    2    0    0 -0.10134708737E-01  0.50756992297E-02  0.32600131115E-01  0.34514396889E-01  0.00000000000E+00 0. -1.
       22    1    1    2    0    0 -0.69831989282E-03 -0.51091744162E-03 -0.97554941239E-02  0.97937915490E-02  0.00000000000E+00 0. -1.
       22    1    1    2    0    0  0.10833028630E-01 -0.45647817881E-02 -0.22844636992E-01  0.25691811562E-01  0.00000000000E+00 0.  1.
</event>
<event>
 5   0  0.4146200E+04  0.9118800E+02  0.7546771E-02  0.1180000E+00
      -11   -1    0    0    0    0  0.00000000000E+00  0.00000000000E+00  0.34996269501E-01  0.35000000000E-01  0.51099999109E-03 0. -1.
       11   -1    0    0    0    0 -0.00000000000E+00 -0.00000000000E+00 -0.34996269501E-01  0.35000000000E-01  0.51099999109E-03 0.  1.
       22    1    1    2    0    0  0.86585591244E-04 -0.12977280885E-03 -0.38218709468E-03  0.41280143152E-03  0.00000000000E+00 0.  1.
       22    1    1    2    0    0  0.23222394414E-02 -0.11218273489E-02 -0.34501646537E-01  0.34597903208E-01  0.00000000000E+00 0.  1.
       22    1    1    2    0    0 -0.24088250326E-02  0.12516001577E-02  0.34883833632E-01  0.34989295361E-01  0.00000000000E+00 0. -1.
</event>
<event>
 5   0  0.4146200E+04  0.9118800E+02  0.7546771E-02  0.1180000E+00
      -11   -1    0    0    0    0  0.00000000000E+00  0.00000000000E+00  0.34996269501E-01  0.35000000000E-01  0.51099999109E-03 0. -1.
       11   -1    0    0    0    0 -0.00000000000E+00 -0.00000000000E+00 -0.34996269501E-01  0.35000000000E-01  0.51099999109E-03 0.  1.
       22    1    1    2    0    0  0.20362627500E-02  0.39552872079E-02 -0.28681830575E-01  0.29024783686E-01  0.00000000000E+00 0. -1.
       22    1    1    2    0    0 -0.20096338691E-02 -0.34010237132E-02 -0.55094941202E-02  0.67793890614E-02  0.00000000000E+00 0.  1.
       22    1    1    2    0    0 -0.26628880919E-04 -0.55426349467E-03  0.34191324695E-01  0.34195827253E-01  0.00000000000E+00 0. -1.
</event>
<event>
 5   0  0.4146200E+04  0.9118800E+02  0.7546771E-02  0.1180000E+00
      -11   -1    0    0    0    0  0.00000000000E+00  0.00000000000E+00  0.34996269501E-01  0.35000000000E-01  0.51099999109E-03 0.  1.
       11   -1    0    0    0    0 -0.00000000000E+00 -0.00000000000E+00 -0.34996269501E-01  0.35000000000E-01  0.51099999109E-03 0. -1.
       22    1    1    2    0    0  0.18996118067E-03 -0.17818484411E-03 -0.47003946861E-03  0.53737527937E-03  0.00000000000E+00 0. -1.
       22    1    1    2    0    0  0.36516797852E-02 -0.64208247935E-02 -0.33674287564E-01  0.34474909705E-01  0.00000000000E+00 0. -1.
       22    1    1    2    0    0 -0.38416409659E-02  0.65990096376E-02  0.34144327032E-01  0.34987715015E-01  0.00000000000E+00 0.  1.
</event>
<event>
 5   0  0.4146200E+04  0.9118800E+02  0.7546771E-02  0.1180000E+00
      -11   -1    0    0    0    0  0.00000000000E+00  0.00000000000E+00  0.34996269501E-01  0.35000000000E-01  0.51099999109E-03 0. -1.
       11   -1    0    0    0    0 -0.00000000000E+00 -0.00000000000E+00 -0.34996269501E-01  0.35000000000E-01  0.51099999109E-03 0.  1.
       22    1    1    2    0    0  0.44896052191E-02 -0.12483423688E-01 -0.32361907146E-01  0.34975497939E-01  0.00000000000E+00 0.  1.
       22    1    1    2    0    0 -0.44659588552E-02  0.12534421738E-01  0.31969694869E-01  0.34628281893E-01  0.00000000000E+00 0. -1.
       22    1    1    2    0    0 -0.23646363910E-04 -0.50998049800E-04  0.39221227663E-03  0.39622016802E-03  0.00000000000E+00 0.  1.
</event>
<event>
 5   0  0.4146200E+04  0.9118800E+02  0.7546771E-02  0.1180000E+00
      -11   -1    0    0    0    0  0.00000000000E+00  0.00000000000E+00  0.34996269501E-01  0.35000000000E-01  0.51099999109E-03 0. -1.
       11   -1    0    0    0    0 -0.00000000000E+00 -0.00000000000E+00 -0.34996269501E-01  0.35000000000E-01  0.51099999109E-03 0.  1.
       22    1    1    2    0    0  0.24459106491E-02 -0.20905333559E-02  0.34550227920E-01  0.34699727058E-01  0.00000000000E+00 0. -1.
       22    1    1    2    0    0 -0.13944259723E-02  0.35334798762E-02 -0.10195199198E-01  0.10879889270E-01  0.00000000000E+00 0.  1.
       22    1    1    2    0    0 -0.10514846768E-02 -0.14429465203E-02 -0.24355028721E-01  0.24420383672E-01  0.00000000000E+00 0. -1.
</event>
<event>
 5   0  0.4146200E+04  0.9118800E+02  0.7546771E-02  0.1180000E+00
      -11   -1    0    0    0    0  0.00000000000E+00  0.00000000000E+00  0.34996269501E-01  0.35000000000E-01  0.51099999109E-03 0. -1.
       11   -1    0    0    0    0 -0.00000000000E+00 -0.00000000000E+00 -0.34996269501E-01  0.35000000000E-01  0.51099999109E-03 0.  1.
       22    1    1    2    0    0 -0.11730275296E-01  0.13506297703E-02 -0.31418123306E-01  0.33563701097E-01  0.00000000000E+00 0.  1.
       22    1    1    2    0    0 -0.10353068115E-02 -0.13173258277E-02 -0.74409514936E-03  0.18332716988E-02  0.00000000000E+00 0.  1.
       22    1    1    2    0    0  0.12765582107E-01 -0.33303942578E-04  0.32162218455E-01  0.34603027204E-01  0.00000000000E+00 0. -1.
</event>
<event>
 5   0  0.4146200E+04  0.9118800E+02  0.7546771E-02  0.1180000E+00
      -11   -1    0    0    0    0  0.00000000000E+00  0.00000000000E+00  0.34996269501E-01  0.35000000000E-01  0.51099999109E-03 0.  1.
       11   -1    0    0    0    0 -0.00000000000E+00 -0.00000000000E+00 -0.34996269501E-01  0.35000000000E-01  0.51099999109E-03 0. -1.
       22    1    1    2    0    0  0.18359302769E-01  0.20958555342E-02 -0.14907352952E-01  0.23742067741E-01  0.00000000000E+00 0. -1.
       22    1    1    2    0    0  0.54388195394E-02  0.43309700099E-02 -0.93646243441E-02  0.11663372082E-01  0.00000000000E+00 0. -1.
       22    1    1    2    0    0 -0.23798122308E-01 -0.64268255441E-02  0.24271977296E-01  0.34594560177E-01  0.00000000000E+00 0.  1.
</event>
<event>
 5   0  0.4146200E+04  0.9118800E+02  0.7546771E-02  0.1180000E+00
      -11   -1    0    0    0    0  0.00000000000E+00  0.00000000000E+00  0.34996269501E-01  0.35000000000E-01  0.51099999109E-03 0.  1.
       11   -1    0    0    0    0 -0.00000000000E+00 -0.00000000000E+00 -0.34996269501E-01  0.35000000000E-01  0.51099999109E-03 0. -1.
       22    1    1    2    0    0  0.14051911110E-01  0.94058880662E-02 -0.27286230017E-01  0.32100861121E-01  0.00000000000E+00 0. -1.
       22    1    1    2    0    0 -0.13990085778E-01 -0.93032654486E-02  0.30426308168E-01  0.34756775984E-01  0.00000000000E+00 0.  1.
       22    1    1    2    0    0 -0.61825332377E-04 -0.10262261754E-03 -0.31400781506E-02  0.31423628952E-02  0.00000000000E+00 0. -1.
</event>
<event>
 5   0  0.4146200E+04  0.9118800E+02  0.7546771E-02  0.1180000E+00
      -11   -1    0    0    0    0  0.00000000000E+00  0.00000000000E+00  0.34996269501E-01  0.35000000000E-01  0.51099999109E-03 0. -1.
       11   -1    0    0    0    0 -0.00000000000E+00 -0.00000000000E+00 -0.34996269501E-01  0.35000000000E-01  0.51099999109E-03 0.  1.
       22    1    1    2    0    0 -0.19845148630E-01 -0.78406518059E-02  0.27388117064E-01  0.34719082666E-01  0.00000000000E+00 0. -1.
       22    1    1    2    0    0  0.19829421145E-01  0.78246266025E-02 -0.27708438658E-01  0.34959809743E-01  0.00000000000E+00 0.  1.
       22    1    1    2    0    0  0.15727485479E-04  0.16025203387E-04  0.32032159441E-03  0.32110759067E-03  0.00000000000E+00 0. -1.
</event>
<event>
 5   0  0.4146200E+04  0.9118800E+02  0.7546771E-02  0.1180000E+00
      -11   -1    0    0    0    0  0.00000000000E+00  0.00000000000E+00  0.34996269501E-01  0.35000000000E-01  0.51099999109E-03 0. -1.
       11   -1    0    0    0    0 -0.00000000000E+00 -0.00000000000E+00 -0.34996269501E-01  0.35000000000E-01  0.51099999109E-03 0.  1.
       22    1    1    2    0    0 -0.22102732523E-04  0.12306445477E-03 -0.51238722319E-03  0.52742208648E-03  0.00000000000E+00 0. -1.
       22    1    1    2    0    0  0.70041697660E-03 -0.11695790515E-01 -0.32466240005E-01  0.34515776679E-01  0.00000000000E+00 0.  1.
       22    1    1    2    0    0 -0.67831424408E-03  0.11572726060E-01  0.32978627228E-01  0.34956801234E-01  0.00000000000E+00 0. -1.
</event>
<event>
 5   0  0.4146200E+04  0.9118800E+02  0.7546771E-02  0.1180000E+00
      -11   -1    0    0    0    0  0.00000000000E+00  0.00000000000E+00  0.34996269501E-01  0.35000000000E-01  0.51099999109E-03 0.  1.
       11   -1    0    0    0    0 -0.00000000000E+00 -0.00000000000E+00 -0.34996269501E-01  0.35000000000E-01  0.51099999109E-03 0. -1.
       22    1    1    2    0    0 -0.92215013946E-02 -0.97796125079E-02 -0.32295926768E-01  0.34981477879E-01  0.00000000000E+00 0. -1.
       22    1    1    2    0    0  0.11753267320E-04 -0.24347799629E-04  0.41731606570E-03  0.41819092927E-03  0.00000000000E+00 0. -1.
       22    1    1    2    0    0  0.92097481273E-02  0.98039603075E-02  0.31878610702E-01  0.34600331192E-01  0.00000000000E+00 0.  1.
</event>
<event>
 5   0  0.4146200E+04  0.9118800E+02  0.7546771E-02  0.1180000E+00
      -11   -1    0    0    0    0  0.00000000000E+00  0.00000000000E+00  0.34996269501E-01  0.35000000000E-01  0.51099999109E-03 0. -1.
       11   -1    0    0    0    0 -0.00000000000E+00 -0.00000000000E+00 -0.34996269501E-01  0.35000000000E-01  0.51099999109E-03 0.  1.
       22    1    1    2    0    0 -0.12590080745E-01  0.85021017737E-02  0.28916566801E-01  0.32664410347E-01  0.00000000000E+00 0. -1.
       22    1    1    2    0    0  0.15635762530E-01 -0.83500149097E-02 -0.29317840721E-01  0.34259824918E-01  0.00000000000E+00 0.  1.
       22    1    1    2    0    0 -0.30456817847E-02 -0.15208686399E-03  0.40127391976E-03  0.30757647352E-02  0.00000000000E+00 0.  1.
</event>
<event>
 5   0  0.4146200E+04  0.9118800E+02  0.7546771E-02  0.1180000E+00
      -11   -1    0    0    0    0  0.00000000000E+00  0.00000000000E+00  0.34996269501E-01  0.35000000000E-01  0.51099999109E-03 0.  1.
       11   -1    0    0    0    0 -0.00000000000E+00 -0.00000000000E+00 -0.34996269501E-01  0.35000000000E-01  0.51099999109E-03 0. -1.
       22    1    1    2    0    0 -0.36209270536E-03  0.62155218470E-03 -0.55967305597E-02  0.56427680444E-02  0.00000000000E+00 0. -1.
       22    1    1    2    0    0  0.11612149670E-01 -0.97985196966E-03  0.32858204661E-01  0.34863501594E-01  0.00000000000E+00 0.  1.
       22    1    1    2    0    0 -0.11250056964E-01  0.35829978496E-03 -0.27261474102E-01  0.29493730361E-01  0.00000000000E+00 0. -1.
</event>
<event>
 5   0  0.4146200E+04  0.9118800E+02  0.7546771E-02  0.1180000E+00
      -11   -1    0    0    0    0  0.00000000000E+00  0.00000000000E+00  0.34996269501E-01  0.35000000000E-01  0.51099999109E-03 0. -1.
       11   -1    0    0    0    0 -0.00000000000E+00 -0.00000000000E+00 -0.34996269501E-01  0.35000000000E-01  0.51099999109E-03 0.  1.
       22    1    1    2    0    0  0.15946316513E-03  0.68245796428E-03  0.68373717037E-02  0.68731964317E-02  0.00000000000E+00 0. -1.
       22    1    1    2    0    0 -0.63077216598E-02 -0.11873432203E-01  0.25242145293E-01  0.28599504258E-01  0.00000000000E+00 0. -1.
       22    1    1    2    0    0  0.61482584947E-02  0.11190974239E-01 -0.32079516996E-01  0.34527299310E-01  0.00000000000E+00 0.  1.
</event>
<event>
 5   0  0.4146200E+04  0.9118800E+02  0.7546771E-02  0.1180000E+00
      -11   -1    0    0    0    0  0.00000000000E+00  0.00000000000E+00  0.34996269501E-01  0.35000000000E-01  0.51099999109E-03 0.  1.
       11   -1    0    0    0    0 -0.00000000000E+00 -0.00000000000E+00 -0.34996269501E-01  0.35000000000E-01  0.51099999109E-03 0.  1.
       22    1    1    2    0    0  0.20756592731E-03  0.58693779105E-04 -0.33621004889E-01  0.33621696839E-01  0.00000000000E+00 0.  1.
       22    1    1    2    0    0 -0.60232411494E-03 -0.43399874192E-03 -0.12764258174E-02  0.14766218591E-02  0.00000000000E+00 0. -1.
       22    1    1    2    0    0  0.39475818763E-03  0.37530496281E-03  0.34897430706E-01  0.34901681302E-01  0.00000000000E+00 0.  1.
</event>
<event>
 5   0  0.4146200E+04  0.9118800E+02  0.7546771E-02  0.1180000E+00
      -11   -1    0    0    0    0  0.00000000000E+00  0.00000000000E+00  0.34996269501E-01  0.35000000000E-01  0.51099999109E-03 0.  1.
       11   -1    0    0    0    0 -0.00000000000E+00 -0.00000000000E+00 -0.34996269501E-01  0.35000000000E-01  0.51099999109E-03 0. -1.
       22    1    1    2    0    0 -0.36226185846E-02  0.39524794990E-04 -0.55194984960E-02  0.66022565284E-02  0.00000000000E+00 0.  1.
       22    1    1    2    0    0  0.41964691557E-02  0.81582173193E-03  0.34316785005E-01  0.34582042327E-01  0.00000000000E+00 0.  1.
       22    1    1    2    0    0 -0.57385057109E-03 -0.85534652692E-03 -0.28797286509E-01  0.28815701144E-01  0.00000000000E+00 0. -1.
</event>
<event>
 5   0  0.4146200E+04  0.9118800E+02  0.7546771E-02  0.1180000E+00
      -11   -1    0    0    0    0  0.00000000000E+00  0.00000000000E+00  0.34996269501E-01  0.35000000000E-01  0.51099999109E-03 0.  1.
       11   -1    0    0    0    0 -0.00000000000E+00 -0.00000000000E+00 -0.34996269501E-01  0.35000000000E-01  0.51099999109E-03 0. -1.
       22    1    1    2    0    0 -0.13335739070E-01 -0.36140001163E-02  0.32111980856E-01  0.34958292977E-01  0.00000000000E+00 0.  1.
       22    1    1    2    0    0  0.13250596575E-01  0.36580776722E-02 -0.30824941789E-01  0.33751101880E-01  0.00000000000E+00 0. -1.
       22    1    1    2    0    0  0.85142495466E-04 -0.44077555904E-04 -0.12870390667E-02  0.12906051428E-02  0.00000000000E+00 0.  1.
</event>
<event>
 5   0  0.4146200E+04  0.9118800E+02  0.7546771E-02  0.1180000E+00
      -11   -1    0    0    0    0  0.00000000000E+00  0.00000000000E+00  0.34996269501E-01  0.35000000000E-01  0.51099999109E-03 0. -1.
       11   -1    0    0    0    0 -0.00000000000E+00 -0.00000000000E+00 -0.34996269501E-01  0.35000000000E-01  0.51099999109E-03 0.  1.
       22    1    1    2    0    0  0.47442790369E-02  0.11523988359E-02  0.34031838898E-01  0.34380259822E-01  0.00000000000E+00 0. -1.
       22    1    1    2    0    0  0.35881566345E-03  0.68153379159E-03 -0.25492601193E-01  0.25504234013E-01  0.00000000000E+00 0.  1.
       22    1    1    2    0    0 -0.51030947003E-02 -0.18339326275E-02 -0.85392377050E-02  0.10115506166E-01  0.00000000000E+00 0.  1.
</event>
<event>
 5   0  0.4146200E+04  0.9118800E+02  0.7546771E-02  0.1180000E+00
      -11   -1    0    0    0    0  0.00000000000E+00  0.00000000000E+00  0.34996269501E-01  0.35000000000E-01  0.51099999109E-03 0.  1.
       11   -1    0    0    0    0 -0.00000000000E+00 -0.00000000000E+00 -0.34996269501E-01  0.35000000000E-01  0.51099999109E-03 0. -1.
       22    1    1    2    0    0  0.43292288660E-05 -0.90127874363E-03  0.34550242835E-01  0.34561996500E-01  0.00000000000E+00 0.  1.
       22    1    1    2    0    0  0.61296138841E-03  0.38131386971E-02 -0.10203071873E-01  0.10909556546E-01  0.00000000000E+00 0. -1.
       22    1    1    2    0    0 -0.61729061728E-03 -0.29118599535E-02 -0.24347170962E-01  0.24528446953E-01  0.00000000000E+00 0. -1.
</event>
<event>
 5   0  0.4146200E+04  0.9118800E+02  0.7546771E-02  0.1180000E+00
      -11   -1    0    0    0    0  0.00000000000E+00  0.00000000000E+00  0.34996269501E-01  0.35000000000E-01  0.51099999109E-03 0.  1.
       11   -1    0    0    0    0 -0.00000000000E+00 -0.00000000000E+00 -0.34996269501E-01  0.35000000000E-01  0.51099999109E-03 0. -1.
       22    1    1    2    0    0  0.10557681119E-02  0.28411487989E-03 -0.51477047181E-02  0.52625308964E-02  0.00000000000E+00 0. -1.
       22    1    1    2    0    0 -0.15108957755E-01  0.66172293679E-02 -0.25472615445E-01  0.30346704377E-01  0.00000000000E+00 0. -1.
       22    1    1    2    0    0  0.14053189643E-01 -0.69013442478E-02  0.30620320163E-01  0.34390764726E-01  0.00000000000E+00 0.  1.
</event>
<event>
 5   0  0.4146200E+04  0.9118800E+02  0.7546771E-02  0.1180000E+00
      -11   -1    0    0    0    0  0.00000000000E+00  0.00000000000E+00  0.34996269501E-01  0.35000000000E-01  0.51099999109E-03 0.  1.
       11   -1    0    0    0    0 -0.00000000000E+00 -0.00000000000E+00 -0.34996269501E-01  0.35000000000E-01  0.51099999109E-03 0. -1.
       22    1    1    2    0    0 -0.15977764304E-02  0.15714848729E-01 -0.29773280660E-01  0.33703970113E-01  0.00000000000E+00 0. -1.
       22    1    1    2    0    0  0.13881464238E-02 -0.15559090249E-01  0.31175284226E-01  0.34869909470E-01  0.00000000000E+00 0.  1.
       22    1    1    2    0    0  0.20963000664E-03 -0.15575848045E-03 -0.14020035661E-02  0.14261204168E-02  0.00000000000E+00 0.  1.
</event>
<event>
 5   0  0.4146200E+04  0.9118800E+02  0.7546771E-02  0.1180000E+00
      -11   -1    0    0    0    0  0.00000000000E+00  0.00000000000E+00  0.34996269501E-01  0.35000000000E-01  0.51099999109E-03 0.  1.
       11   -1    0    0    0    0 -0.00000000000E+00 -0.00000000000E+00 -0.34996269501E-01  0.35000000000E-01  0.51099999109E-03 0. -1.
       22    1    1    2    0    0 -0.12232827741E-02 -0.31706504648E-04 -0.12783641016E-02  0.17696442648E-02  0.00000000000E+00 0. -1.
       22    1    1    2    0    0 -0.19653130276E-02 -0.43322154915E-02  0.34371315956E-01  0.34698961180E-01  0.00000000000E+00 0.  1.
       22    1    1    2    0    0  0.31885958017E-02  0.43639219961E-02 -0.33092951855E-01  0.33531394556E-01  0.00000000000E+00 0. -1.
</event>
<event>
 5   0  0.4146200E+04  0.9118800E+02  0.7546771E-02  0.1180000E+00
      -11   -1    0    0    0    0  0.00000000000E+00  0.00000000000E+00  0.34996269501E-01  0.35000000000E-01  0.51099999109E-03 0.  1.
       11   -1    0    0    0    0 -0.00000000000E+00 -0.00000000000E+00 -0.34996269501E-01  0.35000000000E-01  0.51099999109E-03 0. -1.
       22    1    1    2    0    0  0.98888711003E-02 -0.98155917403E-02 -0.30257529999E-01  0.33311465511E-01  0.00000000000E+00 0. -1.
       22    1    1    2    0    0 -0.69016179721E-02  0.36761767473E-02  0.26610743485E-02  0.82600195399E-02  0.00000000000E+00 0.  1.
       22    1    1    2    0    0 -0.29872531282E-02  0.61394149930E-02  0.27596455651E-01  0.28428514949E-01  0.00000000000E+00 0.  1.
</event>
<event>
 5   0  0.4146200E+04  0.9118800E+02  0.7546771E-02  0.1180000E+00
      -11   -1    0    0    0    0  0.00000000000E+00  0.00000000000E+00  0.34996269501E-01  0.35000000000E-01  0.51099999109E-03 0.  1.
       11   -1    0    0    0    0 -0.00000000000E+00 -0.00000000000E+00 -0.34996269501E-01  0.35000000000E-01  0.51099999109E-03 0. -1.
       22    1    1    2    0    0  0.77856704350E-05 -0.34507350261E-04  0.56290728932E-03  0.56401772158E-03  0.00000000000E+00 0.  1.
       22    1    1    2    0    0 -0.11406513408E-01  0.10798293315E-01 -0.31250393178E-01  0.34975688134E-01  0.00000000000E+00 0. -1.
       22    1    1    2    0    0  0.11398727738E-01 -0.10763785965E-01  0.30687485889E-01  0.34460294144E-01  0.00000000000E+00 0.  1.
</event>
<event>
 5   0  0.4146200E+04  0.9118800E+02  0.7546771E-02  0.1180000E+00
      -11   -1    0    0    0    0  0.00000000000E+00  0.00000000000E+00  0.34996269501E-01  0.35000000000E-01  0.51099999109E-03 0. -1.
       11   -1    0    0    0    0 -0.00000000000E+00 -0.00000000000E+00 -0.34996269501E-01  0.35000000000E-01  0.51099999109E-03 0.  1.
       22    1    1    2    0    0  0.21279787190E-03 -0.46218338812E-03 -0.21692954069E-02  0.22281694238E-02  0.00000000000E+00 0. -1.
       22    1    1    2    0    0 -0.16055441555E-02 -0.10765215576E-01  0.33096500125E-01  0.34840292177E-01  0.00000000000E+00 0. -1.
       22    1    1    2    0    0  0.13927462836E-02  0.11227398964E-01 -0.30927204718E-01  0.32931538400E-01  0.00000000000E+00 0.  1.
</event>
<event>
 5   0  0.4146200E+04  0.9118800E+02  0.7546771E-02  0.1180000E+00
      -11   -1    0    0    0    0  0.00000000000E+00  0.00000000000E+00  0.34996269501E-01  0.35000000000E-01  0.51099999109E-03 0.  1.
       11   -1    0    0    0    0 -0.00000000000E+00 -0.00000000000E+00 -0.34996269501E-01  0.35000000000E-01  0.51099999109E-03 0. -1.
       22    1    1    2    0    0  0.11162190474E-01  0.33096248536E-02 -0.32996917501E-01  0.34990636997E-01  0.00000000000E+00 0. -1.
       22    1    1    2    0    0 -0.11779257942E-03 -0.50777055984E-05  0.84496742781E-03  0.85315346153E-03  0.00000000000E+00 0. -1.
       22    1    1    2    0    0 -0.11044397895E-01 -0.33045471480E-02  0.32151950074E-01  0.34156209542E-01  0.00000000000E+00 0.  1.
</event>
<event>
 5   0  0.4146200E+04  0.9118800E+02  0.7546771E-02  0.1180000E+00
      -11   -1    0    0    0    0  0.00000000000E+00  0.00000000000E+00  0.34996269501E-01  0.35000000000E-01  0.51099999109E-03 0.  1.
       11   -1    0    0    0    0 -0.00000000000E+00 -0.00000000000E+00 -0.34996269501E-01  0.35000000000E-01  0.51099999109E-03 0. -1.
       22    1    1    2    0    0 -0.99351545258E-02 -0.92103109749E-02 -0.32258219272E-01  0.34987566853E-01  0.00000000000E+00 0. -1.
       22    1    1    2    0    0  0.98889683123E-02  0.92386987602E-02  0.31926492029E-01  0.34676305201E-01  0.00000000000E+00 0.  1.
       22    1    1    2    0    0  0.46186213519E-04 -0.28387785262E-04  0.33172724272E-03  0.33612794622E-03  0.00000000000E+00 0. -1.
</event>
<event>
 5   0  0.4146200E+04  0.9118800E+02  0.7546771E-02  0.1180000E+00
      -11   -1    0    0    0    0  0.00000000000E+00  0.00000000000E+00  0.34996269501E-01  0.35000000000E-01  0.51099999109E-03 0. -1.
       11   -1    0    0    0    0 -0.00000000000E+00 -0.00000000000E+00 -0.34996269501E-01  0.35000000000E-01  0.51099999109E-03 0.  1.
       22    1    1    2    0    0  0.11254065893E-02  0.24347648058E-03 -0.19101223655E-01  0.19135897311E-01  0.00000000000E+00 0.  1.
       22    1    1    2    0    0  0.45060565068E-02 -0.14171810645E-02  0.34294499636E-01  0.34618284947E-01  0.00000000000E+00 0. -1.
       22    1    1    2    0    0 -0.56314630962E-02  0.11737045839E-02 -0.15193275981E-01  0.16245817742E-01  0.00000000000E+00 0.  1.
</event>
<event>
 5   0  0.4146200E+04  0.9118800E+02  0.7546771E-02  0.1180000E+00
      -11   -1    0    0    0    0  0.00000000000E+00  0.00000000000E+00  0.34996269501E-01  0.35000000000E-01  0.51099999109E-03 0.  1.
       11   -1    0    0    0    0 -0.00000000000E+00 -0.00000000000E+00 -0.34996269501E-01  0.35000000000E-01  0.51099999109E-03 0. -1.
       22    1    1    2    0    0 -0.10429731487E-01  0.86436199603E-02 -0.23006959155E-01  0.26698532440E-01  0.00000000000E+00 0. -1.
       22    1    1    2    0    0  0.12711783952E-01 -0.78823657244E-02 -0.45543873932E-02  0.15635331310E-01  0.00000000000E+00 0.  1.
       22    1    1    2    0    0 -0.22820524646E-02 -0.76125423591E-03  0.27561346548E-01  0.27666136250E-01  0.00000000000E+00 0. -1.
</event>
<event>
 5   0  0.4146200E+04  0.9118800E+02  0.7546771E-02  0.1180000E+00
      -11   -1    0    0    0    0  0.00000000000E+00  0.00000000000E+00  0.34996269501E-01  0.35000000000E-01  0.51099999109E-03 0.  1.
       11   -1    0    0    0    0 -0.00000000000E+00 -0.00000000000E+00 -0.34996269501E-01  0.35000000000E-01  0.51099999109E-03 0. -1.
       22    1    1    2    0    0  0.45155800212E-02  0.44924121018E-02  0.34359997036E-01  0.34945409222E-01  0.00000000000E+00 0.  1.
       22    1    1    2    0    0 -0.26909894540E-04  0.20464862594E-03 -0.21912023914E-03  0.30102970239E-03  0.00000000000E+00 0. -1.
       22    1    1    2    0    0 -0.44886701266E-02 -0.46970607278E-02 -0.34140876797E-01  0.34753561075E-01  0.00000000000E+00 0. -1.
</event>
<event>
 5   0  0.4146200E+04  0.9118800E+02  0.7546771E-02  0.1180000E+00
      -11   -1    0    0    0    0  0.00000000000E+00  0.00000000000E+00  0.34996269501E-01  0.35000000000E-01  0.51099999109E-03 0.  1.
       11   -1    0    0    0    0 -0.00000000000E+00 -0.00000000000E+00 -0.34996269501E-01  0.35000000000E-01  0.51099999109E-03 0. -1.
       22    1    1    2    0    0 -0.58987211496E-03  0.11629584287E-01 -0.31918453262E-01  0.33976209890E-01  0.00000000000E+00 0. -1.
       22    1    1    2    0    0  0.80757736245E-03 -0.10164026931E-01  0.10796933623E-01  0.14850367010E-01  0.00000000000E+00 0.  1.
       22    1    1    2    0    0 -0.21770524749E-03 -0.14655573555E-02  0.21121519639E-01  0.21173423101E-01  0.00000000000E+00 0.  1.
</event>
<event>
 5   0  0.4146200E+04  0.9118800E+02  0.7546771E-02  0.1180000E+00
      -11   -1    0    0    0    0  0.00000000000E+00  0.00000000000E+00  0.34996269501E-01  0.35000000000E-01  0.51099999109E-03 0.  1.
       11   -1    0    0    0    0 -0.00000000000E+00 -0.00000000000E+00 -0.34996269501E-01  0.35000000000E-01  0.51099999109E-03 0. -1.
       22    1    1    2    0    0  0.21443311842E-01  0.72204690233E-02 -0.26670557915E-01  0.34975269194E-01  0.00000000000E+00 0. -1.
       22    1    1    2    0    0 -0.21390285799E-01 -0.70586706577E-02  0.26382700625E-01  0.34690287550E-01  0.00000000000E+00 0.  1.
       22    1    1    2    0    0 -0.53026042172E-04 -0.16179836556E-03  0.28785729027E-03  0.33444325648E-03  0.00000000000E+00 0.  1.
</event>
<event>
 5   0  0.4146200E+04  0.9118800E+02  0.7546771E-02  0.1180000E+00
      -11   -1    0    0    0    0  0.00000000000E+00  0.00000000000E+00  0.34996269501E-01  0.35000000000E-01  0.51099999109E-03 0. -1.
       11   -1    0    0    0    0 -0.00000000000E+00 -0.00000000000E+00 -0.34996269501E-01  0.35000000000E-01  0.51099999109E-03 0.  1.
       22    1    1    2    0    0 -0.58757998397E-02 -0.34277044381E-02  0.34109493800E-01  0.34781198208E-01  0.00000000000E+00 0. -1.
       22    1    1    2    0    0  0.53029798985E-02  0.26766076969E-02 -0.15717205510E-01  0.16802272870E-01  0.00000000000E+00 0.  1.
       22    1    1    2    0    0  0.57281994122E-03  0.75109674114E-03 -0.18392288290E-01  0.18416528922E-01  0.00000000000E+00 0.  1.
</event>
<event>
 5   0  0.4146200E+04  0.9118800E+02  0.7546771E-02  0.1180000E+00
      -11   -1    0    0    0    0  0.00000000000E+00  0.00000000000E+00  0.34996269501E-01  0.35000000000E-01  0.51099999109E-03 0. -1.
       11   -1    0    0    0    0 -0.00000000000E+00 -0.00000000000E+00 -0.34996269501E-01  0.35000000000E-01  0.51099999109E-03 0.  1.
       22    1    1    2    0    0  0.62115046602E-02  0.85735452229E-02  0.15165208925E-01  0.18495189363E-01  0.00000000000E+00 0. -1.
       22    1    1    2    0    0 -0.31919124089E-02  0.60093166943E-02  0.15767966776E-01  0.17173496098E-01  0.00000000000E+00 0. -1.
       22    1    1    2    0    0 -0.30195922513E-02 -0.14582861917E-01 -0.30933175701E-01  0.34331314540E-01  0.00000000000E+00 0.  1.
</event>
<event>
 5   0  0.4146200E+04  0.9118800E+02  0.7546771E-02  0.1180000E+00
      -11   -1    0    0    0    0  0.00000000000E+00  0.00000000000E+00  0.34996269501E-01  0.35000000000E-01  0.51099999109E-03 0. -1.
       11   -1    0    0    0    0 -0.00000000000E+00 -0.00000000000E+00 -0.34996269501E-01  0.35000000000E-01  0.51099999109E-03 0.  1.
       22    1    1    2    0    0 -0.44523389882E-02 -0.16294106197E-01  0.29226804584E-01  0.33756885600E-01  0.00000000000E+00 0. -1.
       22    1    1    2    0    0  0.10580907006E-02  0.14765797930E-03  0.12147665778E-02  0.16177195826E-02  0.00000000000E+00 0.  1.
       22    1    1    2    0    0  0.33942482876E-02  0.16146448218E-01 -0.30441571161E-01  0.34625394818E-01  0.00000000000E+00 0.  1.
</event>
<event>
 5   0  0.4146200E+04  0.9118800E+02  0.7546771E-02  0.1180000E+00
      -11   -1    0    0    0    0  0.00000000000E+00  0.00000000000E+00  0.34996269501E-01  0.35000000000E-01  0.51099999109E-03 0. -1.
       11   -1    0    0    0    0 -0.00000000000E+00 -0.00000000000E+00 -0.34996269501E-01  0.35000000000E-01  0.51099999109E-03 0.  1.
       22    1    1    2    0    0  0.72946486389E-02 -0.23586963793E-02 -0.28612183658E-01  0.29621485463E-01  0.00000000000E+00 0.  1.
       22    1    1    2    0    0 -0.45862498429E-02  0.27385204388E-02  0.33957026760E-01  0.34374595971E-01  0.00000000000E+00 0. -1.
       22    1    1    2    0    0 -0.27083987960E-02 -0.37982405951E-03 -0.53448431019E-02  0.60039185652E-02  0.00000000000E+00 0. -1.
</event>
<event>
 5   0  0.4146200E+04  0.9118800E+02  0.7546771E-02  0.1180000E+00
      -11   -1    0    0    0    0  0.00000000000E+00  0.00000000000E+00  0.34996269501E-01  0.35000000000E-01  0.51099999109E-03 0. -1.
       11   -1    0    0    0    0 -0.00000000000E+00 -0.00000000000E+00 -0.34996269501E-01  0.35000000000E-01  0.51099999109E-03 0.  1.
       22    1    1    2    0    0  0.30408982222E-02 -0.12939611754E-03  0.64737002653E-02  0.71535026720E-02  0.00000000000E+00 0.  1.
       22    1    1    2    0    0 -0.12457971016E-01  0.19380540368E-01  0.18780936212E-01  0.29724231727E-01  0.00000000000E+00 0. -1.
       22    1    1    2    0    0  0.94170727936E-02 -0.19251144250E-01 -0.25254636477E-01  0.33122265601E-01  0.00000000000E+00 0.  1.
</event>
<event>
 5   0  0.4146200E+04  0.9118800E+02  0.7546771E-02  0.1180000E+00
      -11   -1    0    0    0    0  0.00000000000E+00  0.00000000000E+00  0.34996269501E-01  0.35000000000E-01  0.51099999109E-03 0.  1.
       11   -1    0    0    0    0 -0.00000000000E+00 -0.00000000000E+00 -0.34996269501E-01  0.35000000000E-01  0.51099999109E-03 0. -1.
       22    1    1    2    0    0  0.21465621006E-01  0.54847235766E-02 -0.26553897479E-01  0.34582720385E-01  0.00000000000E+00 0. -1.
       22    1    1    2    0    0 -0.21846748013E-01 -0.48602328532E-02  0.26495937829E-01  0.34683381951E-01  0.00000000000E+00 0.  1.
       22    1    1    2    0    0  0.38112700764E-03 -0.62449072344E-03  0.57959650453E-04  0.73389766364E-03  0.00000000000E+00 0. -1.
</event>
<event>
 5   0  0.4146200E+04  0.9118800E+02  0.7546771E-02  0.1180000E+00
      -11   -1    0    0    0    0  0.00000000000E+00  0.00000000000E+00  0.34996269501E-01  0.35000000000E-01  0.51099999109E-03 0.  1.
       11   -1    0    0    0    0 -0.00000000000E+00 -0.00000000000E+00 -0.34996269501E-01  0.35000000000E-01  0.51099999109E-03 0. -1.
       22    1    1    2    0    0 -0.17168213818E-02  0.17325116424E-02  0.16648033309E-01  0.16825756604E-01  0.00000000000E+00 0.  1.
       22    1    1    2    0    0 -0.18394445394E-01 -0.10079046350E-01 -0.22365135911E-01  0.30661736758E-01  0.00000000000E+00 0. -1.
       22    1    1    2    0    0  0.20111266776E-01  0.83465347079E-02  0.57171026015E-02  0.22512506638E-01  0.00000000000E+00 0.  1.
</event>
<event>
 5   0  0.4146200E+04  0.9118800E+02  0.7546771E-02  0.1180000E+00
      -11   -1    0    0    0    0  0.00000000000E+00  0.00000000000E+00  0.34996269501E-01  0.35000000000E-01  0.51099999109E-03 0. -1.
       11   -1    0    0    0    0 -0.00000000000E+00 -0.00000000000E+00 -0.34996269501E-01  0.35000000000E-01  0.51099999109E-03 0.  1.
       22    1    1    2    0    0  0.92633626913E-02 -0.10484054177E-01 -0.31553281869E-01  0.34515719274E-01  0.00000000000E+00 0.  1.
       22    1    1    2    0    0 -0.91113691278E-02  0.10045320440E-01  0.21498042923E-01  0.25418327239E-01  0.00000000000E+00 0. -1.
       22    1    1    2    0    0 -0.15199356351E-03  0.43873373696E-03  0.10055238946E-01  0.10065953486E-01  0.00000000000E+00 0. -1.
</event>
<event>
 5   0  0.4146200E+04  0.9118800E+02  0.7546771E-02  0.1180000E+00
      -11   -1    0    0    0    0  0.00000000000E+00  0.00000000000E+00  0.34996269501E-01  0.35000000000E-01  0.51099999109E-03 0. -1.
       11   -1    0    0    0    0 -0.00000000000E+00 -0.00000000000E+00 -0.34996269501E-01  0.35000000000E-01  0.51099999109E-03 0.  1.
       22    1    1    2    0    0 -0.33300622769E-02 -0.18899328174E-01  0.28765740026E-01  0.34579498542E-01  0.00000000000E+00 0. -1.
       22    1    1    2    0    0  0.42104300916E-02  0.17004970658E-01 -0.28295009854E-01  0.33279187659E-01  0.00000000000E+00 0.  1.
       22    1    1    2    0    0 -0.88036781472E-03  0.18943575160E-02 -0.47073017224E-03  0.21413137983E-02  0.00000000000E+00 0.  1.
</event>
<event>
 5   0  0.4146200E+04  0.9118800E+02  0.7546771E-02  0.1180000E+00
      -11   -1    0    0    0    0  0.00000000000E+00  0.00000000000E+00  0.34996269501E-01  0.35000000000E-01  0.51099999109E-03 0. -1.
       11   -1    0    0    0    0 -0.00000000000E+00 -0.00000000000E+00 -0.34996269501E-01  0.35000000000E-01  0.51099999109E-03 0.  1.
       22    1    1    2    0    0 -0.43258489543E-03 -0.12213785774E-01 -0.31681612527E-01  0.33957153369E-01  0.00000000000E+00 0.  1.
       22    1    1    2    0    0  0.60617949761E-03  0.86088465317E-04 -0.10059161524E-02  0.11775959039E-02  0.00000000000E+00 0. -1.
       22    1    1    2    0    0 -0.17359460218E-03  0.12127697308E-01  0.32687528679E-01  0.34865250727E-01  0.00000000000E+00 0. -1.
</event>
<event>
 5   0  0.4146200E+04  0.9118800E+02  0.7546771E-02  0.1180000E+00
      -11   -1    0    0    0    0  0.00000000000E+00  0.00000000000E+00  0.34996269501E-01  0.35000000000E-01  0.51099999109E-03 0. -1.
       11   -1    0    0    0    0 -0.00000000000E+00 -0.00000000000E+00 -0.34996269501E-01  0.35000000000E-01  0.51099999109E-03 0.  1.
       22    1    1    2    0    0  0.17758958436E-01 -0.14907453214E-02  0.29552390453E-01  0.34510095738E-01  0.00000000000E+00 0. -1.
       22    1    1    2    0    0 -0.18373265089E-01  0.61420747163E-03 -0.28851175538E-01  0.34210297438E-01  0.00000000000E+00 0.  1.
       22    1    1    2    0    0  0.61430665285E-03  0.87653784979E-03 -0.70121491523E-03  0.12796068237E-02  0.00000000000E+00 0. -1.
</event>
<event>
 5   0  0.4146200E+04  0.9118800E+02  0.7546771E-02  0.1180000E+00
      -11   -1    0    0    0    0  0.00000000000E+00  0.00000000000E+00  0.34996269501E-01  0.35000000000E-01  0.51099999109E-03 0. -1.
       11   -1    0    0    0    0 -0.00000000000E+00 -0.00000000000E+00 -0.34996269501E-01  0.35000000000E-01  0.51099999109E-03 0.  1.
       22    1    1    2    0    0 -0.13701891402E-01  0.40654993555E-02 -0.31902993303E-01  0.34958133455E-01  0.00000000000E+00 0.  1.
       22    1    1    2    0    0  0.36931858986E-04 -0.10016829950E-03  0.11703738029E-02  0.11752329509E-02  0.00000000000E+00 0.  1.
       22    1    1    2    0    0  0.13664959543E-01 -0.39653310560E-02  0.30732619500E-01  0.33866633594E-01  0.00000000000E+00 0. -1.
</event>
<event>
 5   0  0.4146200E+04  0.9118800E+02  0.7546771E-02  0.1180000E+00
      -11   -1    0    0    0    0  0.00000000000E+00  0.00000000000E+00  0.34996269501E-01  0.35000000000E-01  0.51099999109E-03 0.  1.
       11   -1    0    0    0    0 -0.00000000000E+00 -0.00000000000E+00 -0.34996269501E-01  0.35000000000E-01  0.51099999109E-03 0. -1.
       22    1    1    2    0    0 -0.19363193340E-02  0.14607387920E-01 -0.31560324509E-01  0.34830722036E-01  0.00000000000E+00 0. -1.
       22    1    1    2    0    0  0.21609678453E-02 -0.14583583789E-01  0.28379227515E-01  0.31980169676E-01  0.00000000000E+00 0.  1.
       22    1    1    2    0    0 -0.22464851131E-03 -0.23804130891E-04  0.31810969936E-02  0.31891082880E-02  0.00000000000E+00 0. -1.
</event>
<event>
 5   0  0.4146200E+04  0.9118800E+02  0.7546771E-02  0.1180000E+00
      -11   -1    0    0    0    0  0.00000000000E+00  0.00000000000E+00  0.34996269501E-01  0.35000000000E-01  0.51099999109E-03 0.  1.
       11   -1    0    0    0    0 -0.00000000000E+00 -0.00000000000E+00 -0.34996269501E-01  0.35000000000E-01  0.51099999109E-03 0. -1.
       22    1    1    2    0    0 -0.99783993325E-02  0.43202138112E-02  0.12121282856E-01  0.16283678905E-01  0.00000000000E+00 0.  1.
       22    1    1    2    0    0  0.62651707265E-02  0.15851166748E-01  0.12890754186E-01  0.21370151965E-01  0.00000000000E+00 0.  1.
       22    1    1    2    0    0  0.37132286060E-02 -0.20171380559E-01 -0.25012037043E-01  0.32346169130E-01  0.00000000000E+00 0. -1.
</event>
<event>
 5   0  0.4146200E+04  0.9118800E+02  0.7546771E-02  0.1180000E+00
      -11   -1    0    0    0    0  0.00000000000E+00  0.00000000000E+00  0.34996269501E-01  0.35000000000E-01  0.51099999109E-03 0.  1.
       11   -1    0    0    0    0 -0.00000000000E+00 -0.00000000000E+00 -0.34996269501E-01  0.35000000000E-01  0.51099999109E-03 0. -1.
       22    1    1    2    0    0 -0.12463528538E-01  0.57574768166E-02 -0.31983132055E-01  0.34805298719E-01  0.00000000000E+00 0. -1.
       22    1    1    2    0    0 -0.82279124162E-05  0.18747065546E-03  0.38253239753E-02  0.38299238193E-02  0.00000000000E+00 0.  1.
       22    1    1    2    0    0  0.12471756450E-01 -0.59449474720E-02  0.28157808079E-01  0.31364777462E-01  0.00000000000E+00 0.  1.
</event>
<event>
 5   0  0.4146200E+04  0.9118800E+02  0.7546771E-02  0.1180000E+00
      -11   -1    0    0    0    0  0.00000000000E+00  0.00000000000E+00  0.34996269501E-01  0.35000000000E-01  0.51099999109E-03 0. -1.
       11   -1    0    0    0    0 -0.00000000000E+00 -0.00000000000E+00 -0.34996269501E-01  0.35000000000E-01  0.51099999109E-03 0. -1.
       22    1    1    2    0    0 -0.00000000000E+00  0.00000000000E+00  0.34596116713E-01  0.34593813919E-01  0.00000000000E+00 0. -1.
       22    1    1    2    0    0 -0.32633374481E-03  0.18473004562E-02 -0.32647513525E-01  0.32701363153E-01  0.00000000000E+00 0. -1.
       22    1    1    2    0    0  0.32633374481E-03 -0.18473004562E-02 -0.19486031877E-02  0.27048229280E-02  0.00000000000E+00 0.  1.
</event>
<event>
 5   0  0.4146200E+04  0.9118800E+02  0.7546771E-02  0.1180000E+00
      -11   -1    0    0    0    0  0.00000000000E+00  0.00000000000E+00  0.34996269501E-01  0.35000000000E-01  0.51099999109E-03 0.  1.
       11   -1    0    0    0    0 -0.00000000000E+00 -0.00000000000E+00 -0.34996269501E-01  0.35000000000E-01  0.51099999109E-03 0. -1.
       22    1    1    2    0    0 -0.87369602869E-02  0.14293221450E-01 -0.89967642069E-02  0.19015057735E-01  0.00000000000E+00 0.  1.
       22    1    1    2    0    0 -0.18905008173E-02 -0.35224239002E-02  0.27098632477E-01  0.27391921173E-01  0.00000000000E+00 0.  1.
       22    1    1    2    0    0  0.10627461104E-01 -0.10770797550E-01 -0.18101868270E-01  0.23593021092E-01  0.00000000000E+00 0. -1.
</event>
<event>
 5   0  0.4146200E+04  0.9118800E+02  0.7546771E-02  0.1180000E+00
      -11   -1    0    0    0    0  0.00000000000E+00  0.00000000000E+00  0.34996269501E-01  0.35000000000E-01  0.51099999109E-03 0. -1.
       11   -1    0    0    0    0 -0.00000000000E+00 -0.00000000000E+00 -0.34996269501E-01  0.35000000000E-01  0.51099999109E-03 0.  1.
       22    1    1    2    0    0  0.16579254354E-01  0.61795728414E-02 -0.19761358833E-01  0.26524895822E-01  0.00000000000E+00 0.  1.
       22    1    1    2    0    0 -0.77534174716E-02 -0.94084146374E-02 -0.77206693016E-02  0.14430609237E-01  0.00000000000E+00 0. -1.
       22    1    1    2    0    0 -0.88258368823E-02  0.32288417960E-02  0.27482028135E-01  0.29044494941E-01  0.00000000000E+00 0. -1.
</event>
<event>
 5   0  0.4146200E+04  0.9118800E+02  0.7546771E-02  0.1180000E+00
      -11   -1    0    0    0    0  0.00000000000E+00  0.00000000000E+00  0.34996269501E-01  0.35000000000E-01  0.51099999109E-03 0.  1.
       11   -1    0    0    0    0 -0.00000000000E+00 -0.00000000000E+00 -0.34996269501E-01  0.35000000000E-01  0.51099999109E-03 0. -1.
       22    1    1    2    0    0  0.12319197724E-02 -0.66186859943E-03 -0.34351103268E-01  0.34379557765E-01  0.00000000000E+00 0. -1.
       22    1    1    2    0    0 -0.10158441346E-02  0.20615079754E-03  0.34876645411E-01  0.34892045406E-01  0.00000000000E+00 0.  1.
       22    1    1    2    0    0 -0.21607563780E-03  0.45571780189E-03 -0.52554214320E-03  0.72839682899E-03  0.00000000000E+00 0. -1.
</event>
<event>
 5   0  0.4146200E+04  0.9118800E+02  0.7546771E-02  0.1180000E+00
      -11   -1    0    0    0    0  0.00000000000E+00  0.00000000000E+00  0.34996269501E-01  0.35000000000E-01  0.51099999109E-03 0. -1.
       11   -1    0    0    0    0 -0.00000000000E+00 -0.00000000000E+00 -0.34996269501E-01  0.35000000000E-01  0.51099999109E-03 0.  1.
       22    1    1    2    0    0  0.20774276508E-02 -0.20086675449E-02  0.34835367386E-01  0.34955017836E-01  0.00000000000E+00 0. -1.
       22    1    1    2    0    0 -0.24022938656E-02  0.18437691889E-02 -0.33987662026E-01  0.34122304591E-01  0.00000000000E+00 0.  1.
       22    1    1    2    0    0  0.32486621481E-03  0.16489835604E-03 -0.84770536086E-03  0.92267757325E-03  0.00000000000E+00 0. -1.
</event>
<event>
 5   0  0.4146200E+04  0.9118800E+02  0.7546771E-02  0.1180000E+00
      -11   -1    0    0    0    0  0.00000000000E+00  0.00000000000E+00  0.34996269501E-01  0.35000000000E-01  0.51099999109E-03 0.  1.
       11   -1    0    0    0    0 -0.00000000000E+00 -0.00000000000E+00 -0.34996269501E-01  0.35000000000E-01  0.51099999109E-03 0. -1.
       22    1    1    2    0    0  0.13242914141E-01  0.10680230677E-01  0.20592523118E-01  0.26711310537E-01  0.00000000000E+00 0.  1.
       22    1    1    2    0    0 -0.12800559788E-01 -0.12111055116E-01 -0.29442353281E-01  0.34313031834E-01  0.00000000000E+00 0. -1.
       22    1    1    2    0    0 -0.44235435273E-03  0.14308244391E-02  0.88498301637E-02  0.89756576291E-02  0.00000000000E+00 0.  1.
</event>
<event>
 5   0  0.4146200E+04  0.9118800E+02  0.7546771E-02  0.1180000E+00
      -11   -1    0    0    0    0  0.00000000000E+00  0.00000000000E+00  0.34996269501E-01  0.35000000000E-01  0.51099999109E-03 0. -1.
       11   -1    0    0    0    0 -0.00000000000E+00 -0.00000000000E+00 -0.34996269501E-01  0.35000000000E-01  0.51099999109E-03 0.  1.
       22    1    1    2    0    0 -0.26887148496E-03  0.56277414148E-03  0.34586690029E-02  0.35144555597E-02  0.00000000000E+00 0.  1.
       22    1    1    2    0    0  0.13970002041E-01  0.11530282484E-01 -0.29532610690E-01  0.34645107380E-01  0.00000000000E+00 0.  1.
       22    1    1    2    0    0 -0.13701130556E-01 -0.12093056626E-01  0.26073941687E-01  0.31840437060E-01  0.00000000000E+00 0. -1.
</event>
<event>
 5   0  0.4146200E+04  0.9118800E+02  0.7546771E-02  0.1180000E+00
      -11   -1    0    0    0    0  0.00000000000E+00  0.00000000000E+00  0.34996269501E-01  0.35000000000E-01  0.51099999109E-03 0.  1.
       11   -1    0    0    0    0 -0.00000000000E+00 -0.00000000000E+00 -0.34996269501E-01  0.35000000000E-01  0.51099999109E-03 0. -1.
       22    1    1    2    0    0  0.30529121232E-02 -0.19191781593E-01 -0.28804316652E-01  0.34746703598E-01  0.00000000000E+00 0. -1.
       22    1    1    2    0    0 -0.30748617248E-02  0.19137550351E-01  0.25907159248E-01  0.32355548340E-01  0.00000000000E+00 0.  1.
       22    1    1    2    0    0  0.21949601593E-04  0.54231241637E-04  0.28971574035E-02  0.28977480624E-02  0.00000000000E+00 0. -1.
</event>
<event>
 5   0  0.4146200E+04  0.9118800E+02  0.7546771E-02  0.1180000E+00
      -11   -1    0    0    0    0  0.00000000000E+00  0.00000000000E+00  0.34996269501E-01  0.35000000000E-01  0.51099999109E-03 0.  1.
       11   -1    0    0    0    0 -0.00000000000E+00 -0.00000000000E+00 -0.34996269501E-01  0.35000000000E-01  0.51099999109E-03 0.  1.
       22    1    1    2    0    0 -0.00000000000E+00 -0.00000000000E+00  0.34841495794E-01  0.34839741446E-01  0.00000000000E+00 0.  1.
       22    1    1    2    0    0  0.12850062909E-02 -0.30480517170E-03 -0.31995767954E-01  0.32023012262E-01  0.00000000000E+00 0.  1.
       22    1    1    2    0    0 -0.12850062909E-02  0.30480517170E-03 -0.28457278390E-02  0.31372462916E-02  0.00000000000E+00 0. -1.
</event>
<event>
 5   0  0.4146200E+04  0.9118800E+02  0.7546771E-02  0.1180000E+00
      -11   -1    0    0    0    0  0.00000000000E+00  0.00000000000E+00  0.34996269501E-01  0.35000000000E-01  0.51099999109E-03 0.  1.
       11   -1    0    0    0    0 -0.00000000000E+00 -0.00000000000E+00 -0.34996269501E-01  0.35000000000E-01  0.51099999109E-03 0. -1.
       22    1    1    2    0    0 -0.10033222084E-04  0.53797500725E-05  0.46438253445E-03  0.46452206143E-03  0.00000000000E+00 0.  1.
       22    1    1    2    0    0  0.20952078137E-02  0.17144727591E-01 -0.30404680294E-01  0.34968216479E-01  0.00000000000E+00 0. -1.
       22    1    1    2    0    0 -0.20851745917E-02 -0.17150107341E-01  0.29940297759E-01  0.34567261460E-01  0.00000000000E+00 0.  1.
</event>
<event>
 5   0  0.4146200E+04  0.9118800E+02  0.7546771E-02  0.1180000E+00
      -11   -1    0    0    0    0  0.00000000000E+00  0.00000000000E+00  0.34996269501E-01  0.35000000000E-01  0.51099999109E-03 0.  1.
       11   -1    0    0    0    0 -0.00000000000E+00 -0.00000000000E+00 -0.34996269501E-01  0.35000000000E-01  0.51099999109E-03 0. -1.
       22    1    1    2    0    0 -0.68526170551E-04  0.47605709273E-03  0.85880563054E-04  0.48857104161E-03  0.00000000000E+00 0.  1.
       22    1    1    2    0    0  0.11367958088E-02  0.11759446223E-01 -0.32642736280E-01  0.34714911955E-01  0.00000000000E+00 0. -1.
       22    1    1    2    0    0 -0.10682696382E-02 -0.12235503316E-01  0.32556855717E-01  0.34796517004E-01  0.00000000000E+00 0.  1.
</event>
<event>
 5   0  0.4146200E+04  0.9118800E+02  0.7546771E-02  0.1180000E+00
      -11   -1    0    0    0    0  0.00000000000E+00  0.00000000000E+00  0.34996269501E-01  0.35000000000E-01  0.51099999109E-03 0. -1.
       11   -1    0    0    0    0 -0.00000000000E+00 -0.00000000000E+00 -0.34996269501E-01  0.35000000000E-01  0.51099999109E-03 0.  1.
       22    1    1    2    0    0 -0.23955244016E-02 -0.10623775344E-02 -0.25440316584E-01  0.25574927001E-01  0.00000000000E+00 0.  1.
       22    1    1    2    0    0  0.18370927009E-03 -0.12412060912E-02  0.34652418415E-01  0.34675127162E-01  0.00000000000E+00 0. -1.
       22    1    1    2    0    0  0.22118151315E-02  0.23035836257E-02 -0.92121018309E-02  0.97499458378E-02  0.00000000000E+00 0. -1.
</event>
<event>
 5   0  0.4146200E+04  0.9118800E+02  0.7546771E-02  0.1180000E+00
      -11   -1    0    0    0    0  0.00000000000E+00  0.00000000000E+00  0.34996269501E-01  0.35000000000E-01  0.51099999109E-03 0. -1.
       11   -1    0    0    0    0 -0.00000000000E+00 -0.00000000000E+00 -0.34996269501E-01  0.35000000000E-01  0.51099999109E-03 0.  1.
       22    1    1    2    0    0  0.18733058652E-01  0.11638341976E-01  0.27135943224E-01  0.34967669426E-01  0.00000000000E+00 0. -1.
       22    1    1    2    0    0 -0.20563566501E-03 -0.15930193153E-03 -0.83330586110E-03  0.87296150559E-03  0.00000000000E+00 0.  1.
       22    1    1    2    0    0 -0.18527422987E-01 -0.11479040045E-01 -0.26302637363E-01  0.34159369068E-01  0.00000000000E+00 0.  1.
</event>
<event>
 5   0  0.4146200E+04  0.9118800E+02  0.7546771E-02  0.1180000E+00
      -11   -1    0    0    0    0  0.00000000000E+00  0.00000000000E+00  0.34996269501E-01  0.35000000000E-01  0.51099999109E-03 0. -1.
       11   -1    0    0    0    0 -0.00000000000E+00 -0.00000000000E+00 -0.34996269501E-01  0.35000000000E-01  0.51099999109E-03 0. -1.
       22    1    1    2    0    0 -0.36446493505E-03 -0.46255950437E-03 -0.16676881375E-02  0.17686095409E-02  0.00000000000E+00 0.  1.
       22    1    1    2    0    0 -0.49962989242E-03  0.68925767494E-03 -0.33270697032E-01  0.33281586308E-01  0.00000000000E+00 0. -1.
       22    1    1    2    0    0  0.86409482747E-03 -0.22669817057E-03  0.34938385170E-01  0.34949804151E-01  0.00000000000E+00 0. -1.
</event>
<event>
 5   0  0.4146200E+04  0.9118800E+02  0.7546771E-02  0.1180000E+00
      -11   -1    0    0    0    0  0.00000000000E+00  0.00000000000E+00  0.34996269501E-01  0.35000000000E-01  0.51099999109E-03 0. -1.
       11   -1    0    0    0    0 -0.00000000000E+00 -0.00000000000E+00 -0.34996269501E-01  0.35000000000E-01  0.51099999109E-03 0. -1.
       22    1    1    2    0    0 -0.87046957201E-02  0.92304782105E-02 -0.32216362667E-01  0.34624665761E-01  0.00000000000E+00 0. -1.
       22    1    1    2    0    0  0.87046957201E-02 -0.92304782105E-02  0.23891737963E-01  0.27051591422E-01  0.00000000000E+00 0.  1.
       22    1    1    2    0    0 -0.00000000000E+00 -0.00000000000E+00  0.83246247033E-02  0.83237428170E-02  0.00000000000E+00 0. -1.
</event>
<event>
 5   0  0.4146200E+04  0.9118800E+02  0.7546771E-02  0.1180000E+00
      -11   -1    0    0    0    0  0.00000000000E+00  0.00000000000E+00  0.34996269501E-01  0.35000000000E-01  0.51099999109E-03 0.  1.
       11   -1    0    0    0    0 -0.00000000000E+00 -0.00000000000E+00 -0.34996269501E-01  0.35000000000E-01  0.51099999109E-03 0. -1.
       22    1    1    2    0    0 -0.29437633899E-02  0.24579159096E-02 -0.83499403724E-02  0.91885035635E-02  0.00000000000E+00 0. -1.
       22    1    1    2    0    0  0.37383566929E-02 -0.31042596388E-02  0.34399903898E-01  0.34741403640E-01  0.00000000000E+00 0.  1.
       22    1    1    2    0    0 -0.79459330308E-03  0.64634372920E-03 -0.26049963526E-01  0.26070092797E-01  0.00000000000E+00 0. -1.
</event>
<event>
 5   0  0.4146200E+04  0.9118800E+02  0.7546771E-02  0.1180000E+00
      -11   -1    0    0    0    0  0.00000000000E+00  0.00000000000E+00  0.34996269501E-01  0.35000000000E-01  0.51099999109E-03 0.  1.
       11   -1    0    0    0    0 -0.00000000000E+00 -0.00000000000E+00 -0.34996269501E-01  0.35000000000E-01  0.51099999109E-03 0. -1.
       22    1    1    2    0    0  0.10113592254E-01 -0.13280516650E-01 -0.29442508737E-01  0.33845504746E-01  0.00000000000E+00 0. -1.
       22    1    1    2    0    0 -0.64137704299E-02  0.80106329841E-02  0.27616727758E-01  0.29461675851E-01  0.00000000000E+00 0.  1.
       22    1    1    2    0    0 -0.36998218238E-02  0.52698836656E-02  0.18257809795E-02  0.66928194030E-02  0.00000000000E+00 0.  1.
</event>
<event>
 5   0  0.4146200E+04  0.9118800E+02  0.7546771E-02  0.1180000E+00
      -11   -1    0    0    0    0  0.00000000000E+00  0.00000000000E+00  0.34996269501E-01  0.35000000000E-01  0.51099999109E-03 0. -1.
       11   -1    0    0    0    0 -0.00000000000E+00 -0.00000000000E+00 -0.34996269501E-01  0.35000000000E-01  0.51099999109E-03 0.  1.
       22    1    1    2    0    0  0.51359726834E-03  0.35163331835E-02  0.49257572159E-02  0.60738344859E-02  0.00000000000E+00 0. -1.
       22    1    1    2    0    0 -0.47811888566E-02  0.16742942135E-01  0.23196569783E-01  0.29004598393E-01  0.00000000000E+00 0. -1.
       22    1    1    2    0    0  0.42675915883E-02 -0.20259275319E-01 -0.28122326999E-01  0.34921567122E-01  0.00000000000E+00 0.  1.
</event>
<event>
 5   0  0.4146200E+04  0.9118800E+02  0.7546771E-02  0.1180000E+00
      -11   -1    0    0    0    0  0.00000000000E+00  0.00000000000E+00  0.34996269501E-01  0.35000000000E-01  0.51099999109E-03 0.  1.
       11   -1    0    0    0    0 -0.00000000000E+00 -0.00000000000E+00 -0.34996269501E-01  0.35000000000E-01  0.51099999109E-03 0. -1.
       22    1    1    2    0    0 -0.14516566165E-03 -0.13875633119E-02  0.34938102198E-01  0.34965946150E-01  0.00000000000E+00 0.  1.
       22    1    1    2    0    0  0.15329046537E-03 -0.19264097470E-03 -0.47740467139E-03  0.53714405160E-03  0.00000000000E+00 0.  1.
       22    1    1    2    0    0 -0.81248037174E-05  0.15802042866E-02 -0.34460697526E-01  0.34496909798E-01  0.00000000000E+00 0. -1.
</event>
<event>
 5   0  0.4146200E+04  0.9118800E+02  0.7546771E-02  0.1180000E+00
      -11   -1    0    0    0    0  0.00000000000E+00  0.00000000000E+00  0.34996269501E-01  0.35000000000E-01  0.51099999109E-03 0. -1.
       11   -1    0    0    0    0 -0.00000000000E+00 -0.00000000000E+00 -0.34996269501E-01  0.35000000000E-01  0.51099999109E-03 0.  1.
       22    1    1    2    0    0 -0.11229626611E-02  0.16557578917E-02 -0.34517226484E-01  0.34575157316E-01  0.00000000000E+00 0.  1.
       22    1    1    2    0    0 -0.24718446346E-03  0.12537387918E-03 -0.37167965993E-03  0.46364268372E-03  0.00000000000E+00 0. -1.
       22    1    1    2    0    0  0.13701471246E-02 -0.17811317709E-02  0.34888906144E-01  0.34961200000E-01  0.00000000000E+00 0. -1.
</event>
<event>
 5   0  0.4146200E+04  0.9118800E+02  0.7546771E-02  0.1180000E+00
      -11   -1    0    0    0    0  0.00000000000E+00  0.00000000000E+00  0.34996269501E-01  0.35000000000E-01  0.51099999109E-03 0.  1.
       11   -1    0    0    0    0 -0.00000000000E+00 -0.00000000000E+00 -0.34996269501E-01  0.35000000000E-01  0.51099999109E-03 0. -1.
       22    1    1    2    0    0 -0.90750086622E-02 -0.13625886467E-01  0.30573550799E-01  0.34680867531E-01  0.00000000000E+00 0.  1.
       22    1    1    2    0    0 -0.31308829182E-04  0.10258911872E-03  0.34725038634E-03  0.36343857924E-03  0.00000000000E+00 0.  1.
       22    1    1    2    0    0  0.91063174914E-02  0.13523297348E-01 -0.30920801185E-01  0.34955693890E-01  0.00000000000E+00 0. -1.
</event>
<event>
 5   0  0.4146200E+04  0.9118800E+02  0.7546771E-02  0.1180000E+00
      -11   -1    0    0    0    0  0.00000000000E+00  0.00000000000E+00  0.34996269501E-01  0.35000000000E-01  0.51099999109E-03 0. -1.
       11   -1    0    0    0    0 -0.00000000000E+00 -0.00000000000E+00 -0.34996269501E-01  0.35000000000E-01  0.51099999109E-03 0.  1.
       22    1    1    2    0    0 -0.57623610087E-03  0.13001098633E-02  0.13826659617E-02  0.19834562920E-02  0.00000000000E+00 0. -1.
       22    1    1    2    0    0 -0.12197628567E-01 -0.13727878607E-01  0.28098425873E-01  0.33567221069E-01  0.00000000000E+00 0. -1.
       22    1    1    2    0    0  0.12773864668E-01  0.12427768744E-01 -0.29481091835E-01  0.34449322639E-01  0.00000000000E+00 0.  1.
</event>
<event>
 5   0  0.4146200E+04  0.9118800E+02  0.7546771E-02  0.1180000E+00
      -11   -1    0    0    0    0  0.00000000000E+00  0.00000000000E+00  0.34996269501E-01  0.35000000000E-01  0.51099999109E-03 0.  1.
       11   -1    0    0    0    0 -0.00000000000E+00 -0.00000000000E+00 -0.34996269501E-01  0.35000000000E-01  0.51099999109E-03 0. -1.
       22    1    1    2    0    0  0.39587801197E-04  0.41463612251E-04 -0.55060465644E-03  0.55358099032E-03  0.00000000000E+00 0. -1.
       22    1    1    2    0    0  0.20033859650E-02 -0.21937864848E-01  0.27130865033E-01  0.34948065853E-01  0.00000000000E+00 0.  1.
       22    1    1    2    0    0 -0.20429737662E-02  0.21896401236E-01 -0.26580260376E-01  0.34498353157E-01  0.00000000000E+00 0. -1.
</event>
<event>
 5   0  0.4146200E+04  0.9118800E+02  0.7546771E-02  0.1180000E+00
      -11   -1    0    0    0    0  0.00000000000E+00  0.00000000000E+00  0.34996269501E-01  0.35000000000E-01  0.51099999109E-03 0.  1.
       11   -1    0    0    0    0 -0.00000000000E+00 -0.00000000000E+00 -0.34996269501E-01  0.35000000000E-01  0.51099999109E-03 0. -1.
       22    1    1    2    0    0 -0.13102003128E-01  0.29708134333E-02  0.22526379876E-01  0.26228343614E-01  0.00000000000E+00 0.  1.
       22    1    1    2    0    0  0.17394082666E-02  0.68114406317E-03  0.94539956484E-02  0.96367801714E-02  0.00000000000E+00 0.  1.
       22    1    1    2    0    0  0.11362594862E-01 -0.36519574965E-02 -0.31980375524E-01  0.34134876215E-01  0.00000000000E+00 0. -1.
</event>
<event>
 5   0  0.4146200E+04  0.9118800E+02  0.7546771E-02  0.1180000E+00
      -11   -1    0    0    0    0  0.00000000000E+00  0.00000000000E+00  0.34996269501E-01  0.35000000000E-01  0.51099999109E-03 0. -1.
       11   -1    0    0    0    0 -0.00000000000E+00 -0.00000000000E+00 -0.34996269501E-01  0.35000000000E-01  0.51099999109E-03 0.  1.
       22    1    1    2    0    0  0.47709563239E-02 -0.50213558201E-02  0.33411803009E-01  0.34122201260E-01  0.00000000000E+00 0. -1.
       22    1    1    2    0    0  0.60872824248E-03  0.80603742794E-04 -0.23788423748E-01  0.23796347439E-01  0.00000000000E+00 0.  1.
       22    1    1    2    0    0 -0.53796845664E-02  0.49407520773E-02 -0.96233792614E-02  0.12081451301E-01  0.00000000000E+00 0.  1.
</event>
<event>
 5   0  0.4146200E+04  0.9118800E+02  0.7546771E-02  0.1180000E+00
      -11   -1    0    0    0    0  0.00000000000E+00  0.00000000000E+00  0.34996269501E-01  0.35000000000E-01  0.51099999109E-03 0.  1.
       11   -1    0    0    0    0 -0.00000000000E+00 -0.00000000000E+00 -0.34996269501E-01  0.35000000000E-01  0.51099999109E-03 0. -1.
       22    1    1    2    0    0  0.15497969840E-01 -0.52169214382E-02 -0.30078646303E-01  0.34236359355E-01  0.00000000000E+00 0. -1.
       22    1    1    2    0    0 -0.14249451574E-01  0.61118777314E-02  0.30461525216E-01  0.34180497920E-01  0.00000000000E+00 0.  1.
       22    1    1    2    0    0 -0.12485182663E-02 -0.89495629321E-03 -0.38287891313E-03  0.15831427257E-02  0.00000000000E+00 0. -1.
</event>
<event>
 5   0  0.4146200E+04  0.9118800E+02  0.7546771E-02  0.1180000E+00
      -11   -1    0    0    0    0  0.00000000000E+00  0.00000000000E+00  0.34996269501E-01  0.35000000000E-01  0.51099999109E-03 0. -1.
       11   -1    0    0    0    0 -0.00000000000E+00 -0.00000000000E+00 -0.34996269501E-01  0.35000000000E-01  0.51099999109E-03 0.  1.
       22    1    1    2    0    0 -0.12978081336E-01  0.31546778516E-02  0.31710569000E-01  0.34408469508E-01  0.00000000000E+00 0. -1.
       22    1    1    2    0    0  0.13069858787E-01 -0.31129394289E-02 -0.32305585222E-01  0.34988032770E-01  0.00000000000E+00 0.  1.
       22    1    1    2    0    0 -0.91777450423E-04 -0.41738422648E-04  0.59501622182E-03  0.60349772208E-03  0.00000000000E+00 0. -1.
</event>
<event>
 5   0  0.4146200E+04  0.9118800E+02  0.7546771E-02  0.1180000E+00
      -11   -1    0    0    0    0  0.00000000000E+00  0.00000000000E+00  0.34996269501E-01  0.35000000000E-01  0.51099999109E-03 0. -1.
       11   -1    0    0    0    0 -0.00000000000E+00 -0.00000000000E+00 -0.34996269501E-01  0.35000000000E-01  0.51099999109E-03 0.  1.
       22    1    1    2    0    0 -0.56508397906E-03  0.32671399865E-04 -0.14287587413E-02  0.15367949976E-02  0.00000000000E+00 0. -1.
       22    1    1    2    0    0 -0.85751764651E-02 -0.31023018579E-01  0.12176112826E-01  0.34412484024E-01  0.00000000000E+00 0. -1.
       22    1    1    2    0    0  0.91402604442E-02  0.30990347180E-01 -0.10747354084E-01  0.34050720978E-01  0.00000000000E+00 0.  1.
</event>
<event>
 5   0  0.4146200E+04  0.9118800E+02  0.7546771E-02  0.1180000E+00
      -11   -1    0    0    0    0  0.00000000000E+00  0.00000000000E+00  0.34996269501E-01  0.35000000000E-01  0.51099999109E-03 0. -1.
       11   -1    0    0    0    0 -0.00000000000E+00 -0.00000000000E+00 -0.34996269501E-01  0.35000000000E-01  0.51099999109E-03 0.  1.
       22    1    1    2    0    0 -0.25201731094E-02 -0.13428299032E-01 -0.32175484658E-01  0.34956148248E-01  0.00000000000E+00 0.  1.
       22    1    1    2    0    0 -0.18504869022E-04  0.11798732707E-05  0.10574427898E-02  0.10576053498E-02  0.00000000000E+00 0. -1.
       22    1    1    2    0    0  0.25386779784E-02  0.13427119159E-01  0.31118041868E-01  0.33986246402E-01  0.00000000000E+00 0. -1.
</event>
<event>
 5   0  0.4146200E+04  0.9118800E+02  0.7546771E-02  0.1180000E+00
      -11   -1    0    0    0    0  0.00000000000E+00  0.00000000000E+00  0.34996269501E-01  0.35000000000E-01  0.51099999109E-03 0. -1.
       11   -1    0    0    0    0 -0.00000000000E+00 -0.00000000000E+00 -0.34996269501E-01  0.35000000000E-01  0.51099999109E-03 0.  1.
       22    1    1    2    0    0 -0.37417306585E-03 -0.29079645688E-03 -0.64433706954E-02  0.64607734816E-02  0.00000000000E+00 0.  1.
       22    1    1    2    0    0 -0.12835119692E-01 -0.47144161543E-02  0.31743260658E-01  0.34562994870E-01  0.00000000000E+00 0. -1.
       22    1    1    2    0    0  0.13209292758E-01  0.50052126112E-02 -0.25299889962E-01  0.28976231649E-01  0.00000000000E+00 0.  1.
</event>
<event>
 5   0  0.4146200E+04  0.9118800E+02  0.7546771E-02  0.1180000E+00
      -11   -1    0    0    0    0  0.00000000000E+00  0.00000000000E+00  0.34996269501E-01  0.35000000000E-01  0.51099999109E-03 0. -1.
       11   -1    0    0    0    0 -0.00000000000E+00 -0.00000000000E+00 -0.34996269501E-01  0.35000000000E-01  0.51099999109E-03 0.  1.
       22    1    1    2    0    0  0.18850565130E-03  0.47926197282E-03 -0.19327756889E-01  0.19334616955E-01  0.00000000000E+00 0.  1.
       22    1    1    2    0    0  0.52794050989E-02 -0.85538212477E-02  0.32646101691E-01  0.34158570400E-01  0.00000000000E+00 0. -1.
       22    1    1    2    0    0 -0.54679107502E-02  0.80745592748E-02 -0.13318344802E-01  0.16506812646E-01  0.00000000000E+00 0.  1.
</event>
<event>
 5   0  0.4146200E+04  0.9118800E+02  0.7546771E-02  0.1180000E+00
      -11   -1    0    0    0    0  0.00000000000E+00  0.00000000000E+00  0.34996269501E-01  0.35000000000E-01  0.51099999109E-03 0.  1.
       11   -1    0    0    0    0 -0.00000000000E+00 -0.00000000000E+00 -0.34996269501E-01  0.35000000000E-01  0.51099999109E-03 0. -1.
       22    1    1    2    0    0 -0.12642216972E-01  0.37900392962E-02  0.32401029366E-01  0.34985950777E-01  0.00000000000E+00 0.  1.
       22    1    1    2    0    0  0.28471251337E-04  0.40728002466E-04 -0.41534662592E-03  0.41830874005E-03  0.00000000000E+00 0.  1.
       22    1    1    2    0    0  0.12613745720E-01 -0.38307672987E-02 -0.31985682740E-01  0.34595740483E-01  0.00000000000E+00 0. -1.
</event>
<event>
 5   0  0.4146200E+04  0.9118800E+02  0.7546771E-02  0.1180000E+00
      -11   -1    0    0    0    0  0.00000000000E+00  0.00000000000E+00  0.34996269501E-01  0.35000000000E-01  0.51099999109E-03 0.  1.
       11   -1    0    0    0    0 -0.00000000000E+00 -0.00000000000E+00 -0.34996269501E-01  0.35000000000E-01  0.51099999109E-03 0.  1.
       22    1    1    2    0    0  0.10565696672E-01 -0.10452648638E-01  0.11143814010E-01  0.18576232137E-01  0.00000000000E+00 0. -1.
       22    1    1    2    0    0 -0.10633631970E-01  0.10535081338E-01 -0.29493066189E-01  0.33074204766E-01  0.00000000000E+00 0.  1.
       22    1    1    2    0    0  0.67935298106E-04 -0.82432700611E-04  0.18349252179E-01  0.18349563097E-01  0.00000000000E+00 0.  1.
</event>
<event>
 5   0  0.4146200E+04  0.9118800E+02  0.7546771E-02  0.1180000E+00
      -11   -1    0    0    0    0  0.00000000000E+00  0.00000000000E+00  0.34996269501E-01  0.35000000000E-01  0.51099999109E-03 0. -1.
       11   -1    0    0    0    0 -0.00000000000E+00 -0.00000000000E+00 -0.34996269501E-01  0.35000000000E-01  0.51099999109E-03 0.  1.
       22    1    1    2    0    0 -0.54104611387E-03 -0.41385647462E-03 -0.10101060696E-02  0.12183276861E-02  0.00000000000E+00 0.  1.
       22    1    1    2    0    0  0.78799583801E-02 -0.29329198364E-01 -0.15375611532E-01  0.34039756913E-01  0.00000000000E+00 0.  1.
       22    1    1    2    0    0 -0.73389122662E-02  0.29743054838E-01  0.16385717602E-01  0.34741915401E-01  0.00000000000E+00 0. -1.
</event>
<event>
 5   0  0.4146200E+04  0.9118800E+02  0.7546771E-02  0.1180000E+00
      -11   -1    0    0    0    0  0.00000000000E+00  0.00000000000E+00  0.34996269501E-01  0.35000000000E-01  0.51099999109E-03 0. -1.
       11   -1    0    0    0    0 -0.00000000000E+00 -0.00000000000E+00 -0.34996269501E-01  0.35000000000E-01  0.51099999109E-03 0. -1.
       22    1    1    2    0    0  0.38746705011E-03  0.18628022448E-03  0.34936446255E-01  0.34939091401E-01  0.00000000000E+00 0. -1.
       22    1    1    2    0    0  0.38071096883E-03 -0.16349962545E-03 -0.68305696527E-03  0.79889910947E-03  0.00000000000E+00 0. -1.
       22    1    1    2    0    0 -0.76817801895E-03 -0.22780599032E-04 -0.34253389289E-01  0.34262009489E-01  0.00000000000E+00 0. -1.
</event>
<event>
 5   0  0.4146200E+04  0.9118800E+02  0.7546771E-02  0.1180000E+00
      -11   -1    0    0    0    0  0.00000000000E+00  0.00000000000E+00  0.34996269501E-01  0.35000000000E-01  0.51099999109E-03 0. -1.
       11   -1    0    0    0    0 -0.00000000000E+00 -0.00000000000E+00 -0.34996269501E-01  0.35000000000E-01  0.51099999109E-03 0.  1.
       22    1    1    2    0    0  0.57736015078E-02  0.21122152704E-02  0.12147629502E-02  0.62667038182E-02  0.00000000000E+00 0. -1.
       22    1    1    2    0    0  0.81490981715E-02  0.48896926714E-02  0.28574715768E-01  0.30113639379E-01  0.00000000000E+00 0. -1.
       22    1    1    2    0    0 -0.13922699679E-01 -0.70019079417E-02 -0.29789478719E-01  0.33619656802E-01  0.00000000000E+00 0.  1.
</event>
<event>
 5   0  0.4146200E+04  0.9118800E+02  0.7546771E-02  0.1180000E+00
      -11   -1    0    0    0    0  0.00000000000E+00  0.00000000000E+00  0.34996269501E-01  0.35000000000E-01  0.51099999109E-03 0.  1.
       11   -1    0    0    0    0 -0.00000000000E+00 -0.00000000000E+00 -0.34996269501E-01  0.35000000000E-01  0.51099999109E-03 0. -1.
       22    1    1    2    0    0  0.34379149849E-02  0.13694480225E-01 -0.30197981154E-01  0.33335808282E-01  0.00000000000E+00 0. -1.
       22    1    1    2    0    0  0.34192144574E-02 -0.23560515565E-02  0.54842413428E-03  0.41884096592E-02  0.00000000000E+00 0. -1.
       22    1    1    2    0    0 -0.68571294423E-02 -0.11338428668E-01  0.29649557020E-01  0.32475782058E-01  0.00000000000E+00 0.  1.
</event>
<event>
 5   0  0.4146200E+04  0.9118800E+02  0.7546771E-02  0.1180000E+00
      -11   -1    0    0    0    0  0.00000000000E+00  0.00000000000E+00  0.34996269501E-01  0.35000000000E-01  0.51099999109E-03 0. -1.
       11   -1    0    0    0    0 -0.00000000000E+00 -0.00000000000E+00 -0.34996269501E-01  0.35000000000E-01  0.51099999109E-03 0.  1.
       22    1    1    2    0    0  0.76948557279E-04  0.50391560672E-03  0.20340240871E-02  0.20969277541E-02  0.00000000000E+00 0.  1.
       22    1    1    2    0    0  0.15365770988E-01  0.18319538100E-01  0.22861307620E-01  0.33080988201E-01  0.00000000000E+00 0. -1.
       22    1    1    2    0    0 -0.15442719545E-01 -0.18823453707E-01 -0.24895331707E-01  0.34822084045E-01  0.00000000000E+00 0.  1.
</event>
<event>
 5   0  0.4146200E+04  0.9118800E+02  0.7546771E-02  0.1180000E+00
      -11   -1    0    0    0    0  0.00000000000E+00  0.00000000000E+00  0.34996269501E-01  0.35000000000E-01  0.51099999109E-03 0.  1.
       11   -1    0    0    0    0 -0.00000000000E+00 -0.00000000000E+00 -0.34996269501E-01  0.35000000000E-01  0.51099999109E-03 0. -1.
       22    1    1    2    0    0  0.00000000000E+00  0.00000000000E+00  0.34926737882E-01  0.34923929839E-01  0.00000000000E+00 0.  1.
       22    1    1    2    0    0 -0.54929639732E-03  0.12830667949E-03 -0.10276194368E-02  0.11722588635E-02  0.00000000000E+00 0.  1.
       22    1    1    2    0    0  0.54929639732E-03 -0.12830667949E-03 -0.33899118445E-01  0.33903811298E-01  0.00000000000E+00 0. -1.
</event>
<event>
 5   0  0.4146200E+04  0.9118800E+02  0.7546771E-02  0.1180000E+00
      -11   -1    0    0    0    0  0.00000000000E+00  0.00000000000E+00  0.34996269501E-01  0.35000000000E-01  0.51099999109E-03 0. -1.
       11   -1    0    0    0    0 -0.00000000000E+00 -0.00000000000E+00 -0.34996269501E-01  0.35000000000E-01  0.51099999109E-03 0.  1.
       22    1    1    2    0    0 -0.36773851473E-03 -0.33252661427E-03 -0.30650907763E-02  0.31049294728E-02  0.00000000000E+00 0. -1.
       22    1    1    2    0    0  0.11076405836E-01  0.11216716169E-01  0.31159141886E-01  0.34919816880E-01  0.00000000000E+00 0. -1.
       22    1    1    2    0    0 -0.10708667321E-01 -0.10884189555E-01 -0.28094051110E-01  0.31975253647E-01  0.00000000000E+00 0.  1.
</event>
<event>
 5   0  0.4146200E+04  0.9118800E+02  0.7546771E-02  0.1180000E+00
      -11   -1    0    0    0    0  0.00000000000E+00  0.00000000000E+00  0.34996269501E-01  0.35000000000E-01  0.51099999109E-03 0.  1.
       11   -1    0    0    0    0 -0.00000000000E+00 -0.00000000000E+00 -0.34996269501E-01  0.35000000000E-01  0.51099999109E-03 0. -1.
       22    1    1    2    0    0 -0.65812761711E-03 -0.91843861823E-03  0.15376632944E-01  0.15418090095E-01  0.00000000000E+00 0.  1.
       22    1    1    2    0    0 -0.48072248845E-02  0.13475152370E-01 -0.30797258748E-01  0.33958213865E-01  0.00000000000E+00 0. -1.
       22    1    1    2    0    0  0.54653525016E-02 -0.12556713752E-01  0.15420625804E-01  0.20623696041E-01  0.00000000000E+00 0.  1.
</event>
<event>
 5   0  0.4146200E+04  0.9118800E+02  0.7546771E-02  0.1180000E+00
      -11   -1    0    0    0    0  0.00000000000E+00  0.00000000000E+00  0.34996269501E-01  0.35000000000E-01  0.51099999109E-03 0. -1.
       11   -1    0    0    0    0 -0.00000000000E+00 -0.00000000000E+00 -0.34996269501E-01  0.35000000000E-01  0.51099999109E-03 0.  1.
       22    1    1    2    0    0 -0.26424797966E-03 -0.19430611417E-02 -0.60284042821E-02  0.63393195047E-02  0.00000000000E+00 0. -1.
       22    1    1    2    0    0  0.11205672489E-01 -0.51488345309E-02 -0.26165844225E-01  0.28926268287E-01  0.00000000000E+00 0.  1.
       22    1    1    2    0    0 -0.10941424509E-01  0.70918956726E-02  0.32194248507E-01  0.34734412209E-01  0.00000000000E+00 0. -1.
</event>
<event>
 5   0  0.4146200E+04  0.9118800E+02  0.7546771E-02  0.1180000E+00
      -11   -1    0    0    0    0  0.00000000000E+00  0.00000000000E+00  0.34996269501E-01  0.35000000000E-01  0.51099999109E-03 0. -1.
       11   -1    0    0    0    0 -0.00000000000E+00 -0.00000000000E+00 -0.34996269501E-01  0.35000000000E-01  0.51099999109E-03 0.  1.
       22    1    1    2    0    0 -0.25070004693E-02 -0.51796012530E-02 -0.21431494438E-01  0.22190589770E-01  0.00000000000E+00 0.  1.
       22    1    1    2    0    0  0.19840845263E-02  0.11107775232E-01  0.32958663041E-01  0.34836657869E-01  0.00000000000E+00 0. -1.
       22    1    1    2    0    0  0.52291594296E-03 -0.59281739793E-02 -0.11527168603E-01  0.12972752361E-01  0.00000000000E+00 0.  1.
</event>
<event>
 5   0  0.4146200E+04  0.9118800E+02  0.7546771E-02  0.1180000E+00
      -11   -1    0    0    0    0  0.00000000000E+00  0.00000000000E+00  0.34996269501E-01  0.35000000000E-01  0.51099999109E-03 0.  1.
       11   -1    0    0    0    0 -0.00000000000E+00 -0.00000000000E+00 -0.34996269501E-01  0.35000000000E-01  0.51099999109E-03 0. -1.
       22    1    1    2    0    0 -0.75314402584E-03  0.41325197255E-03  0.41809600448E-02  0.42683052858E-02  0.00000000000E+00 0.  1.
       22    1    1    2    0    0 -0.60990001869E-02  0.10813669739E-01 -0.32346078181E-01  0.34646818471E-01  0.00000000000E+00 0. -1.
       22    1    1    2    0    0  0.68521442127E-02 -0.11226921712E-01  0.28165118136E-01  0.31084876243E-01  0.00000000000E+00 0.  1.
</event>
<event>
 5   0  0.4146200E+04  0.9118800E+02  0.7546771E-02  0.1180000E+00
      -11   -1    0    0    0    0  0.00000000000E+00  0.00000000000E+00  0.34996269501E-01  0.35000000000E-01  0.51099999109E-03 0. -1.
       11   -1    0    0    0    0 -0.00000000000E+00 -0.00000000000E+00 -0.34996269501E-01  0.35000000000E-01  0.51099999109E-03 0.  1.
       22    1    1    2    0    0 -0.91139791618E-02  0.50826761462E-02  0.17698877396E-01  0.20546252068E-01  0.00000000000E+00 0. -1.
       22    1    1    2    0    0 -0.11072880557E-02  0.11574712273E-02  0.14764918984E-01  0.14851554097E-01  0.00000000000E+00 0. -1.
       22    1    1    2    0    0  0.10221267217E-01 -0.62401473734E-02 -0.32463796380E-01  0.34602193835E-01  0.00000000000E+00 0.  1.
</event>
<event>
 5   0  0.4146200E+04  0.9118800E+02  0.7546771E-02  0.1180000E+00
      -11   -1    0    0    0    0  0.00000000000E+00  0.00000000000E+00  0.34996269501E-01  0.35000000000E-01  0.51099999109E-03 0. -1.
       11   -1    0    0    0    0 -0.00000000000E+00 -0.00000000000E+00 -0.34996269501E-01  0.35000000000E-01  0.51099999109E-03 0.  1.
       22    1    1    2    0    0  0.29535099375E-02  0.96310032819E-02  0.33442572265E-01  0.34926853349E-01  0.00000000000E+00 0. -1.
       22    1    1    2    0    0 -0.69644311361E-03 -0.14276803064E-02 -0.23427642339E-02  0.28305208572E-02  0.00000000000E+00 0.  1.
       22    1    1    2    0    0 -0.22570668239E-02 -0.82033229754E-02 -0.31099808031E-01  0.32242625794E-01  0.00000000000E+00 0.  1.
</event>
<event>
 5   0  0.4146200E+04  0.9118800E+02  0.7546771E-02  0.1180000E+00
      -11   -1    0    0    0    0  0.00000000000E+00  0.00000000000E+00  0.34996269501E-01  0.35000000000E-01  0.51099999109E-03 0. -1.
       11   -1    0    0    0    0 -0.00000000000E+00 -0.00000000000E+00 -0.34996269501E-01  0.35000000000E-01  0.51099999109E-03 0.  1.
       22    1    1    2    0    0 -0.18116586193E-01  0.15647432382E-01  0.24979692185E-01  0.34598234884E-01  0.00000000000E+00 0. -1.
       22    1    1    2    0    0  0.16648863969E-01 -0.16430662671E-01 -0.22854949185E-01  0.32703211609E-01  0.00000000000E+00 0.  1.
       22    1    1    2    0    0  0.14677222243E-02  0.78323028934E-03 -0.21247429999E-02  0.26985535069E-02  0.00000000000E+00 0.  1.
</event>
<event>
 5   0  0.4146200E+04  0.9118800E+02  0.7546771E-02  0.1180000E+00
      -11   -1    0    0    0    0  0.00000000000E+00  0.00000000000E+00  0.34996269501E-01  0.35000000000E-01  0.51099999109E-03 0. -1.
       11   -1    0    0    0    0 -0.00000000000E+00 -0.00000000000E+00 -0.34996269501E-01  0.35000000000E-01  0.51099999109E-03 0.  1.
       22    1    1    2    0    0 -0.21234017078E-01 -0.11058278488E-01 -0.25482512181E-01  0.34964659750E-01  0.00000000000E+00 0.  1.
       22    1    1    2    0    0  0.10131418748E-03 -0.61865363814E-04  0.33839991303E-03  0.35861732942E-03  0.00000000000E+00 0. -1.
       22    1    1    2    0    0  0.21132702891E-01  0.11120143852E-01  0.25144112268E-01  0.34676722920E-01  0.00000000000E+00 0. -1.
</event>
<event>
 5   0  0.4146200E+04  0.9118800E+02  0.7546771E-02  0.1180000E+00
      -11   -1    0    0    0    0  0.00000000000E+00  0.00000000000E+00  0.34996269501E-01  0.35000000000E-01  0.51099999109E-03 0. -1.
       11   -1    0    0    0    0 -0.00000000000E+00 -0.00000000000E+00 -0.34996269501E-01  0.35000000000E-01  0.51099999109E-03 0.  1.
       22    1    1    2    0    0  0.27844013232E-01  0.19337965826E-02  0.20498767049E-01  0.34629872835E-01  0.00000000000E+00 0. -1.
       22    1    1    2    0    0 -0.55278261684E-02 -0.63596064710E-03 -0.80432723385E-02  0.97803649219E-02  0.00000000000E+00 0.  1.
       22    1    1    2    0    0 -0.22316187063E-01 -0.12978359355E-02 -0.12455494710E-01  0.25589762243E-01  0.00000000000E+00 0.  1.
</event>
<event>
 5   0  0.4146200E+04  0.9118800E+02  0.7546771E-02  0.1180000E+00
      -11   -1    0    0    0    0  0.00000000000E+00  0.00000000000E+00  0.34996269501E-01  0.35000000000E-01  0.51099999109E-03 0. -1.
       11   -1    0    0    0    0 -0.00000000000E+00 -0.00000000000E+00 -0.34996269501E-01  0.35000000000E-01  0.51099999109E-03 0.  1.
       22    1    1    2    0    0  0.39947775081E-02 -0.95540875905E-02  0.31414531229E-01  0.33077357957E-01  0.00000000000E+00 0. -1.
       22    1    1    2    0    0 -0.89527475394E-02  0.11027955775E-01 -0.23829034405E-01  0.27741491988E-01  0.00000000000E+00 0. -1.
       22    1    1    2    0    0  0.49579700312E-02 -0.14738681845E-02 -0.75854968248E-02  0.91811500551E-02  0.00000000000E+00 0.  1.
</event>
<event>
 5   0  0.4146200E+04  0.9118800E+02  0.7546771E-02  0.1180000E+00
      -11   -1    0    0    0    0  0.00000000000E+00  0.00000000000E+00  0.34996269501E-01  0.35000000000E-01  0.51099999109E-03 0.  1.
       11   -1    0    0    0    0 -0.00000000000E+00 -0.00000000000E+00 -0.34996269501E-01  0.35000000000E-01  0.51099999109E-03 0. -1.
       22    1    1    2    0    0  0.11328520944E-01 -0.18525886555E-01 -0.25877374873E-01  0.33781391176E-01  0.00000000000E+00 0. -1.
       22    1    1    2    0    0 -0.38260134114E-03  0.36052083702E-03  0.92615598873E-02  0.92764675716E-02  0.00000000000E+00 0.  1.
       22    1    1    2    0    0 -0.10945919603E-01  0.18165365718E-01  0.16615814986E-01  0.26942141253E-01  0.00000000000E+00 0.  1.
</event>
<event>
 5   0  0.4146200E+04  0.9118800E+02  0.7546771E-02  0.1180000E+00
      -11   -1    0    0    0    0  0.00000000000E+00  0.00000000000E+00  0.34996269501E-01  0.35000000000E-01  0.51099999109E-03 0.  1.
       11   -1    0    0    0    0 -0.00000000000E+00 -0.00000000000E+00 -0.34996269501E-01  0.35000000000E-01  0.51099999109E-03 0. -1.
       22    1    1    2    0    0 -0.12771815620E-01  0.92857297291E-02  0.31189618704E-01  0.34959067003E-01  0.00000000000E+00 0.  1.
       22    1    1    2    0    0  0.12763537172E-01 -0.93698581288E-02 -0.30684998887E-01  0.34529281475E-01  0.00000000000E+00 0. -1.
       22    1    1    2    0    0  0.82784472787E-05  0.84128399731E-04 -0.50461981699E-03  0.51165152207E-03  0.00000000000E+00 0. -1.
</event>
<event>
 5   0  0.4146200E+04  0.9118800E+02  0.7546771E-02  0.1180000E+00
      -11   -1    0    0    0    0  0.00000000000E+00  0.00000000000E+00  0.34996269501E-01  0.35000000000E-01  0.51099999109E-03 0.  1.
       11   -1    0    0    0    0 -0.00000000000E+00 -0.00000000000E+00 -0.34996269501E-01  0.35000000000E-01  0.51099999109E-03 0. -1.
       22    1    1    2    0    0 -0.73425434723E-02  0.74302288784E-02  0.33303421513E-01  0.34903282514E-01  0.00000000000E+00 0.  1.
       22    1    1    2    0    0  0.45105834509E-02 -0.65187413269E-02 -0.26745244863E-01  0.27895294843E-01  0.00000000000E+00 0. -1.
       22    1    1    2    0    0  0.28319600215E-02 -0.91148755154E-03 -0.65581766493E-02  0.72014226430E-02  0.00000000000E+00 0. -1.
</event>
<event>
 5   0  0.4146200E+04  0.9118800E+02  0.7546771E-02  0.1180000E+00
      -11   -1    0    0    0    0  0.00000000000E+00  0.00000000000E+00  0.34996269501E-01  0.35000000000E-01  0.51099999109E-03 0. -1.
       11   -1    0    0    0    0 -0.00000000000E+00 -0.00000000000E+00 -0.34996269501E-01  0.35000000000E-01  0.51099999109E-03 0.  1.
       22    1    1    2    0    0 -0.35121969748E-03 -0.26826084475E-03 -0.62521920998E-02  0.62677926904E-02  0.00000000000E+00 0.  1.
       22    1    1    2    0    0 -0.96359492972E-02 -0.27697307537E-02 -0.27041492448E-01  0.28840340517E-01  0.00000000000E+00 0.  1.
       22    1    1    2    0    0  0.99871689946E-02  0.30379915985E-02  0.33293684548E-01  0.34891866793E-01  0.00000000000E+00 0. -1.
</event>
<event>
 5   0  0.4146200E+04  0.9118800E+02  0.7546771E-02  0.1180000E+00
      -11   -1    0    0    0    0  0.00000000000E+00  0.00000000000E+00  0.34996269501E-01  0.35000000000E-01  0.51099999109E-03 0. -1.
       11   -1    0    0    0    0 -0.00000000000E+00 -0.00000000000E+00 -0.34996269501E-01  0.35000000000E-01  0.51099999109E-03 0.  1.
       22    1    1    2    0    0 -0.90028113618E-02  0.10017009610E-01 -0.29676723973E-01  0.32589860996E-01  0.00000000000E+00 0.  1.
       22    1    1    2    0    0  0.89645762717E-02 -0.85047181896E-02  0.32188000228E-01  0.34478416696E-01  0.00000000000E+00 0. -1.
       22    1    1    2    0    0  0.38235090099E-04 -0.15122914209E-02 -0.25112762543E-02  0.29317223077E-02  0.00000000000E+00 0. -1.
</event>
<event>
 5   0  0.4146200E+04  0.9118800E+02  0.7546771E-02  0.1180000E+00
      -11   -1    0    0    0    0  0.00000000000E+00  0.00000000000E+00  0.34996269501E-01  0.35000000000E-01  0.51099999109E-03 0. -1.
       11   -1    0    0    0    0 -0.00000000000E+00 -0.00000000000E+00 -0.34996269501E-01  0.35000000000E-01  0.51099999109E-03 0.  1.
       22    1    1    2    0    0  0.69748466458E-03 -0.30434378695E-04  0.72639937958E-02  0.72974664764E-02  0.00000000000E+00 0. -1.
       22    1    1    2    0    0  0.20816194664E-01  0.23056545112E-02  0.19274964701E-01  0.28463209012E-01  0.00000000000E+00 0. -1.
       22    1    1    2    0    0 -0.21513679329E-01 -0.22752201325E-02 -0.26538958497E-01  0.34239324512E-01  0.00000000000E+00 0.  1.
</event>
<event>
 5   0  0.4146200E+04  0.9118800E+02  0.7546771E-02  0.1180000E+00
      -11   -1    0    0    0    0  0.00000000000E+00  0.00000000000E+00  0.34996269501E-01  0.35000000000E-01  0.51099999109E-03 0.  1.
       11   -1    0    0    0    0 -0.00000000000E+00 -0.00000000000E+00 -0.34996269501E-01  0.35000000000E-01  0.51099999109E-03 0.  1.
       22    1    1    2    0    0 -0.47476141523E-03  0.12507217871E-02 -0.17530063836E-02  0.22051609400E-02  0.00000000000E+00 0. -1.
       22    1    1    2    0    0  0.49482784123E-03 -0.97816070686E-03  0.34764717904E-01  0.34781996261E-01  0.00000000000E+00 0.  1.
       22    1    1    2    0    0 -0.20066425995E-04 -0.27256108029E-03 -0.33011711520E-01  0.33012842799E-01  0.00000000000E+00 0.  1.
</event>
<event>
 5   0  0.4146200E+04  0.9118800E+02  0.7546771E-02  0.1180000E+00
      -11   -1    0    0    0    0  0.00000000000E+00  0.00000000000E+00  0.34996269501E-01  0.35000000000E-01  0.51099999109E-03 0. -1.
       11   -1    0    0    0    0 -0.00000000000E+00 -0.00000000000E+00 -0.34996269501E-01  0.35000000000E-01  0.51099999109E-03 0.  1.
       22    1    1    2    0    0  0.55213114552E-02 -0.15567459581E-01  0.30251121994E-01  0.34466810991E-01  0.00000000000E+00 0. -1.
       22    1    1    2    0    0 -0.27955263189E-02  0.15041981076E-01 -0.28195394144E-01  0.32078909162E-01  0.00000000000E+00 0.  1.
       22    1    1    2    0    0 -0.27257851363E-02  0.52547850546E-03 -0.20557278497E-02  0.34542798470E-02  0.00000000000E+00 0.  1.
</event>
<event>
 5   0  0.4146200E+04  0.9118800E+02  0.7546771E-02  0.1180000E+00
      -11   -1    0    0    0    0  0.00000000000E+00  0.00000000000E+00  0.34996269501E-01  0.35000000000E-01  0.51099999109E-03 0. -1.
       11   -1    0    0    0    0 -0.00000000000E+00 -0.00000000000E+00 -0.34996269501E-01  0.35000000000E-01  0.51099999109E-03 0.  1.
       22    1    1    2    0    0  0.22972883557E-03 -0.41175353425E-03 -0.45168452927E-03  0.65294350816E-03  0.00000000000E+00 0. -1.
       22    1    1    2    0    0 -0.12252036853E-01  0.14554302369E-01 -0.28911124802E-01  0.34609149972E-01  0.00000000000E+00 0.  1.
       22    1    1    2    0    0  0.12022308017E-01 -0.14142548835E-01  0.29362809331E-01  0.34737906520E-01  0.00000000000E+00 0. -1.
</event>
<event>
 5   0  0.4146200E+04  0.9118800E+02  0.7546771E-02  0.1180000E+00
      -11   -1    0    0    0    0  0.00000000000E+00  0.00000000000E+00  0.34996269501E-01  0.35000000000E-01  0.51099999109E-03 0.  1.
       11   -1    0    0    0    0 -0.00000000000E+00 -0.00000000000E+00 -0.34996269501E-01  0.35000000000E-01  0.51099999109E-03 0. -1.
       22    1    1    2    0    0 -0.73487686853E-02  0.15081938761E-01 -0.29679943992E-01  0.34093523628E-01  0.00000000000E+00 0. -1.
       22    1    1    2    0    0  0.68468552959E-02 -0.11855439086E-01  0.29630915834E-01  0.32640803246E-01  0.00000000000E+00 0.  1.
       22    1    1    2    0    0  0.50191338946E-03 -0.32264996757E-02  0.49028157349E-04  0.32656731264E-02  0.00000000000E+00 0.  1.
</event>
<event>
 5   0  0.4146200E+04  0.9118800E+02  0.7546771E-02  0.1180000E+00
      -11   -1    0    0    0    0  0.00000000000E+00  0.00000000000E+00  0.34996269501E-01  0.35000000000E-01  0.51099999109E-03 0. -1.
       11   -1    0    0    0    0 -0.00000000000E+00 -0.00000000000E+00 -0.34996269501E-01  0.35000000000E-01  0.51099999109E-03 0.  1.
       22    1    1    2    0    0 -0.16053357133E-01 -0.23983662368E-02  0.28639253088E-01  0.32919132025E-01  0.00000000000E+00 0. -1.
       22    1    1    2    0    0  0.15437123544E-01  0.25127694119E-02 -0.30954973604E-01  0.34681827868E-01  0.00000000000E+00 0.  1.
       22    1    1    2    0    0  0.61623358861E-03 -0.11440317511E-03  0.23157205168E-02  0.23990401068E-02  0.00000000000E+00 0. -1.
</event>
<event>
 5   0  0.4146200E+04  0.9118800E+02  0.7546771E-02  0.1180000E+00
      -11   -1    0    0    0    0  0.00000000000E+00  0.00000000000E+00  0.34996269501E-01  0.35000000000E-01  0.51099999109E-03 0. -1.
       11   -1    0    0    0    0 -0.00000000000E+00 -0.00000000000E+00 -0.34996269501E-01  0.35000000000E-01  0.51099999109E-03 0.  1.
       22    1    1    2    0    0  0.11814624708E-01  0.37330582320E-02  0.32664627611E-01  0.34935640508E-01  0.00000000000E+00 0. -1.
       22    1    1    2    0    0  0.12473225290E-03 -0.55329021385E-04 -0.12399604003E-02  0.12474458825E-02  0.00000000000E+00 0. -1.
       22    1    1    2    0    0 -0.11939356961E-01 -0.36777292106E-02 -0.31424667211E-01  0.33816913610E-01  0.00000000000E+00 0.  1.
</event>
<event>
 5   0  0.4146200E+04  0.9118800E+02  0.7546771E-02  0.1180000E+00
      -11   -1    0    0    0    0  0.00000000000E+00  0.00000000000E+00  0.34996269501E-01  0.35000000000E-01  0.51099999109E-03 0.  1.
       11   -1    0    0    0    0 -0.00000000000E+00 -0.00000000000E+00 -0.34996269501E-01  0.35000000000E-01  0.51099999109E-03 0. -1.
       22    1    1    2    0    0 -0.19100198732E-01  0.25984077001E-02 -0.28810465334E-01  0.34664278832E-01  0.00000000000E+00 0. -1.
       22    1    1    2    0    0  0.19292906686E-01 -0.24823544641E-02  0.29079112463E-01  0.34985327120E-01  0.00000000000E+00 0.  1.
       22    1    1    2    0    0 -0.19270795400E-03 -0.11605323601E-03 -0.26864712825E-03  0.35039404767E-03  0.00000000000E+00 0.  1.
</event>
<event>
 5   0  0.4146200E+04  0.9118800E+02  0.7546771E-02  0.1180000E+00
      -11   -1    0    0    0    0  0.00000000000E+00  0.00000000000E+00  0.34996269501E-01  0.35000000000E-01  0.51099999109E-03 0. -1.
       11   -1    0    0    0    0 -0.00000000000E+00 -0.00000000000E+00 -0.34996269501E-01  0.35000000000E-01  0.51099999109E-03 0.  1.
       22    1    1    2    0    0 -0.90940215243E-02 -0.12537893118E-01  0.40262676112E-03  0.15493937512E-01  0.00000000000E+00 0. -1.
       22    1    1    2    0    0 -0.24158868868E-02 -0.63380034812E-03  0.24194706036E-01  0.24323281285E-01  0.00000000000E+00 0. -1.
       22    1    1    2    0    0  0.11509908411E-01  0.13171693466E-01 -0.24597332797E-01  0.30182781202E-01  0.00000000000E+00 0.  1.
</event>
<event>
 5   0  0.4146200E+04  0.9118800E+02  0.7546771E-02  0.1180000E+00
      -11   -1    0    0    0    0  0.00000000000E+00  0.00000000000E+00  0.34996269501E-01  0.35000000000E-01  0.51099999109E-03 0.  1.
       11   -1    0    0    0    0 -0.00000000000E+00 -0.00000000000E+00 -0.34996269501E-01  0.35000000000E-01  0.51099999109E-03 0. -1.
       22    1    1    2    0    0  0.61972282683E-03  0.19731419598E-03  0.34909842779E-01  0.34915900563E-01  0.00000000000E+00 0.  1.
       22    1    1    2    0    0 -0.11673695048E-02  0.41786680793E-03 -0.32735771559E-01  0.32759244555E-01  0.00000000000E+00 0. -1.
       22    1    1    2    0    0  0.54764667799E-03 -0.61518100390E-03 -0.21740712200E-02  0.23248548817E-02  0.00000000000E+00 0.  1.
</event>
<event>
 5   0  0.4146200E+04  0.9118800E+02  0.7546771E-02  0.1180000E+00
      -11   -1    0    0    0    0  0.00000000000E+00  0.00000000000E+00  0.34996269501E-01  0.35000000000E-01  0.51099999109E-03 0.  1.
       11   -1    0    0    0    0 -0.00000000000E+00 -0.00000000000E+00 -0.34996269501E-01  0.35000000000E-01  0.51099999109E-03 0. -1.
       22    1    1    2    0    0 -0.73519426075E-05 -0.13827063754E-03 -0.39946486281E-03  0.42278244629E-03  0.00000000000E+00 0. -1.
       22    1    1    2    0    0 -0.19207785063E-03 -0.17995002252E-02 -0.34538053567E-01  0.34585433916E-01  0.00000000000E+00 0. -1.
       22    1    1    2    0    0  0.19942979324E-03  0.19377708627E-02  0.34937518429E-01  0.34991783638E-01  0.00000000000E+00 0.  1.
</event>
<event>
 5   0  0.4146200E+04  0.9118800E+02  0.7546771E-02  0.1180000E+00
      -11   -1    0    0    0    0  0.00000000000E+00  0.00000000000E+00  0.34996269501E-01  0.35000000000E-01  0.51099999109E-03 0.  1.
       11   -1    0    0    0    0 -0.00000000000E+00 -0.00000000000E+00 -0.34996269501E-01  0.35000000000E-01  0.51099999109E-03 0. -1.
       22    1    1    2    0    0 -0.19580079109E-01 -0.90648940098E-02 -0.27065682848E-01  0.34613624331E-01  0.00000000000E+00 0. -1.
       22    1    1    2    0    0 -0.37087535355E-03 -0.36591405809E-03  0.80904221436E-04  0.52724483765E-03  0.00000000000E+00 0.  1.
       22    1    1    2    0    0  0.19950954462E-01  0.94308080679E-02  0.26984778627E-01  0.34859130831E-01  0.00000000000E+00 0.  1.
</event>
<event>
 5   0  0.4146200E+04  0.9118800E+02  0.7546771E-02  0.1180000E+00
      -11   -1    0    0    0    0  0.00000000000E+00  0.00000000000E+00  0.34996269501E-01  0.35000000000E-01  0.51099999109E-03 0. -1.
       11   -1    0    0    0    0 -0.00000000000E+00 -0.00000000000E+00 -0.34996269501E-01  0.35000000000E-01  0.51099999109E-03 0.  1.
       22    1    1    2    0    0  0.83447972226E-02 -0.29211675359E-02  0.33747300797E-01  0.34886231833E-01  0.00000000000E+00 0. -1.
       22    1    1    2    0    0  0.10530887579E-03 -0.52996172778E-03 -0.13197321907E-02  0.14260583605E-02  0.00000000000E+00 0. -1.
       22    1    1    2    0    0 -0.84501060984E-02  0.34511292637E-02 -0.32427568606E-01  0.33687709806E-01  0.00000000000E+00 0.  1.
</event>
<event>
 5   0  0.4146200E+04  0.9118800E+02  0.7546771E-02  0.1180000E+00
      -11   -1    0    0    0    0  0.00000000000E+00  0.00000000000E+00  0.34996269501E-01  0.35000000000E-01  0.51099999109E-03 0. -1.
       11   -1    0    0    0    0 -0.00000000000E+00 -0.00000000000E+00 -0.34996269501E-01  0.35000000000E-01  0.51099999109E-03 0.  1.
       22    1    1    2    0    0  0.14940554534E-04 -0.15730563897E-03  0.66156058749E-02  0.66174926804E-02  0.00000000000E+00 0. -1.
       22    1    1    2    0    0 -0.64774966064E-02 -0.10829741295E-01 -0.32317240848E-01  0.34693591841E-01  0.00000000000E+00 0.  1.
       22    1    1    2    0    0  0.64625560519E-02  0.10987046934E-01  0.25701634973E-01  0.28688915479E-01  0.00000000000E+00 0. -1.
</event>
<event>
 5   0  0.4146200E+04  0.9118800E+02  0.7546771E-02  0.1180000E+00
      -11   -1    0    0    0    0  0.00000000000E+00  0.00000000000E+00  0.34996269501E-01  0.35000000000E-01  0.51099999109E-03 0. -1.
       11   -1    0    0    0    0 -0.00000000000E+00 -0.00000000000E+00 -0.34996269501E-01  0.35000000000E-01  0.51099999109E-03 0.  1.
       22    1    1    2    0    0 -0.14848480665E-01 -0.29011200425E-02 -0.21136685215E-01  0.25993332558E-01  0.00000000000E+00 0.  1.
       22    1    1    2    0    0  0.13498181093E-01  0.37887656368E-02  0.30994198731E-01  0.34017583583E-01  0.00000000000E+00 0. -1.
       22    1    1    2    0    0  0.13502995722E-02 -0.88764559426E-03 -0.98575135156E-02  0.99890838592E-02  0.00000000000E+00 0.  1.
</event>
<event>
 5   0  0.4146200E+04  0.9118800E+02  0.7546771E-02  0.1180000E+00
      -11   -1    0    0    0    0  0.00000000000E+00  0.00000000000E+00  0.34996269501E-01  0.35000000000E-01  0.51099999109E-03 0. -1.
       11   -1    0    0    0    0 -0.00000000000E+00 -0.00000000000E+00 -0.34996269501E-01  0.35000000000E-01  0.51099999109E-03 0.  1.
       22    1    1    2    0    0 -0.11742652862E-01 -0.19598337383E-01 -0.26456027207E-01  0.34955773486E-01  0.00000000000E+00 0.  1.
       22    1    1    2    0    0  0.11731190672E-01  0.19617318473E-01  0.26126230243E-01  0.34713684988E-01  0.00000000000E+00 0. -1.
       22    1    1    2    0    0  0.11462190070E-04 -0.18981090555E-04  0.32979696355E-03  0.33054152654E-03  0.00000000000E+00 0. -1.
</event>
<event>
 5   0  0.4146200E+04  0.9118800E+02  0.7546771E-02  0.1180000E+00
      -11   -1    0    0    0    0  0.00000000000E+00  0.00000000000E+00  0.34996269501E-01  0.35000000000E-01  0.51099999109E-03 0. -1.
       11   -1    0    0    0    0 -0.00000000000E+00 -0.00000000000E+00 -0.34996269501E-01  0.35000000000E-01  0.51099999109E-03 0.  1.
       22    1    1    2    0    0  0.44189839307E-02  0.57820551227E-02 -0.33347960093E-01  0.34132770511E-01  0.00000000000E+00 0.  1.
       22    1    1    2    0    0 -0.38632847126E-02 -0.57756632163E-02  0.34173098581E-01  0.34872394828E-01  0.00000000000E+00 0. -1.
       22    1    1    2    0    0 -0.55569921808E-03 -0.63919064269E-05 -0.82513848852E-03  0.99483466097E-03  0.00000000000E+00 0.  1.
</event>
<event>
 5   0  0.4146200E+04  0.9118800E+02  0.7546771E-02  0.1180000E+00
      -11   -1    0    0    0    0  0.00000000000E+00  0.00000000000E+00  0.34996269501E-01  0.35000000000E-01  0.51099999109E-03 0. -1.
       11   -1    0    0    0    0 -0.00000000000E+00 -0.00000000000E+00 -0.34996269501E-01  0.35000000000E-01  0.51099999109E-03 0.  1.
       22    1    1    2    0    0  0.29263563229E-01  0.37101790584E-02 -0.18302021095E-01  0.34714341959E-01  0.00000000000E+00 0.  1.
       22    1    1    2    0    0 -0.29064234267E-01 -0.36575107405E-02  0.18758425559E-01  0.34784847676E-01  0.00000000000E+00 0. -1.
       22    1    1    2    0    0 -0.19932896137E-03 -0.52668317974E-04 -0.45640446457E-03  0.50081036515E-03  0.00000000000E+00 0. -1.
</event>
<event>
 5   0  0.4146200E+04  0.9118800E+02  0.7546771E-02  0.1180000E+00
      -11   -1    0    0    0    0  0.00000000000E+00  0.00000000000E+00  0.34996269501E-01  0.35000000000E-01  0.51099999109E-03 0. -1.
       11   -1    0    0    0    0 -0.00000000000E+00 -0.00000000000E+00 -0.34996269501E-01  0.35000000000E-01  0.51099999109E-03 0.  1.
       22    1    1    2    0    0  0.20687730420E-03  0.97486738086E-04 -0.63914945590E-03  0.67883275559E-03  0.00000000000E+00 0. -1.
       22    1    1    2    0    0 -0.87270193545E-02  0.29479990951E-02  0.33756126866E-01  0.34990393917E-01  0.00000000000E+00 0. -1.
       22    1    1    2    0    0  0.85201420503E-02 -0.30454858332E-02 -0.33116977410E-01  0.34330773328E-01  0.00000000000E+00 0.  1.
</event>
<event>
 5   0  0.4146200E+04  0.9118800E+02  0.7546771E-02  0.1180000E+00
      -11   -1    0    0    0    0  0.00000000000E+00  0.00000000000E+00  0.34996269501E-01  0.35000000000E-01  0.51099999109E-03 0. -1.
       11   -1    0    0    0    0 -0.00000000000E+00 -0.00000000000E+00 -0.34996269501E-01  0.35000000000E-01  0.51099999109E-03 0.  1.
       22    1    1    2    0    0  0.45161332533E-04 -0.51289085183E-03 -0.19321709693E-02  0.19995952657E-02  0.00000000000E+00 0. -1.
       22    1    1    2    0    0  0.33422430512E-03 -0.20120268648E-01  0.28170122012E-01  0.34619253177E-01  0.00000000000E+00 0. -1.
       22    1    1    2    0    0 -0.37938563765E-03  0.20633159499E-01 -0.26237951043E-01  0.33381151558E-01  0.00000000000E+00 0.  1.
</event>
<event>
 5   0  0.4146200E+04  0.9118800E+02  0.7546771E-02  0.1180000E+00
      -11   -1    0    0    0    0  0.00000000000E+00  0.00000000000E+00  0.34996269501E-01  0.35000000000E-01  0.51099999109E-03 0.  1.
       11   -1    0    0    0    0 -0.00000000000E+00 -0.00000000000E+00 -0.34996269501E-01  0.35000000000E-01  0.51099999109E-03 0. -1.
       22    1    1    2    0    0 -0.18613956060E-02 -0.11256324359E-02 -0.30415156026E-02  0.37393393993E-02  0.00000000000E+00 0. -1.
       22    1    1    2    0    0 -0.28710630790E-02  0.96869369818E-02 -0.30076493320E-01  0.31728145261E-01  0.00000000000E+00 0. -1.
       22    1    1    2    0    0  0.47324586850E-02 -0.85613045459E-02  0.33118008922E-01  0.34532515340E-01  0.00000000000E+00 0.  1.
</event>
<event>
 5   0  0.4146200E+04  0.9118800E+02  0.7546771E-02  0.1180000E+00
      -11   -1    0    0    0    0  0.00000000000E+00  0.00000000000E+00  0.34996269501E-01  0.35000000000E-01  0.51099999109E-03 0.  1.
       11   -1    0    0    0    0 -0.00000000000E+00 -0.00000000000E+00 -0.34996269501E-01  0.35000000000E-01  0.51099999109E-03 0. -1.
       22    1    1    2    0    0  0.16813409449E-01 -0.87514087890E-02  0.24368872035E-01  0.30872638652E-01  0.00000000000E+00 0.  1.
       22    1    1    2    0    0 -0.12276157947E-01 -0.18567086246E-02 -0.28111249718E-03  0.12418955073E-01  0.00000000000E+00 0.  1.
       22    1    1    2    0    0 -0.45372515017E-02  0.10608117414E-01 -0.24087759537E-01  0.26708406276E-01  0.00000000000E+00 0. -1.
</event>
<event>
 5   0  0.4146200E+04  0.9118800E+02  0.7546771E-02  0.1180000E+00
      -11   -1    0    0    0    0  0.00000000000E+00  0.00000000000E+00  0.34996269501E-01  0.35000000000E-01  0.51099999109E-03 0. -1.
       11   -1    0    0    0    0 -0.00000000000E+00 -0.00000000000E+00 -0.34996269501E-01  0.35000000000E-01  0.51099999109E-03 0.  1.
       22    1    1    2    0    0  0.30824306038E-02  0.54399252467E-03  0.11683741505E-02  0.33410184749E-02  0.00000000000E+00 0.  1.
       22    1    1    2    0    0  0.25296534357E-02 -0.23731475082E-01  0.22681859668E-01  0.32924896569E-01  0.00000000000E+00 0. -1.
       22    1    1    2    0    0 -0.56120840394E-02  0.23187482558E-01 -0.23850233819E-01  0.33734084956E-01  0.00000000000E+00 0.  1.
</event>
<event>
 5   0  0.4146200E+04  0.9118800E+02  0.7546771E-02  0.1180000E+00
      -11   -1    0    0    0    0  0.00000000000E+00  0.00000000000E+00  0.34996269501E-01  0.35000000000E-01  0.51099999109E-03 0.  1.
       11   -1    0    0    0    0 -0.00000000000E+00 -0.00000000000E+00 -0.34996269501E-01  0.35000000000E-01  0.51099999109E-03 0.  1.
       22    1    1    2    0    0  0.15504986277E-02  0.21083534626E-03 -0.32902382797E-01  0.32939570295E-01  0.00000000000E+00 0.  1.
       22    1    1    2    0    0  0.18157623067E-03 -0.99420386880E-04  0.34618793858E-01  0.34619412798E-01  0.00000000000E+00 0.  1.
       22    1    1    2    0    0 -0.17320748584E-02 -0.11141495938E-03 -0.17164110608E-02  0.24410169065E-02  0.00000000000E+00 0. -1.
</event>
<event>
 5   0  0.4146200E+04  0.9118800E+02  0.7546771E-02  0.1180000E+00
      -11   -1    0    0    0    0  0.00000000000E+00  0.00000000000E+00  0.34996269501E-01  0.35000000000E-01  0.51099999109E-03 0. -1.
       11   -1    0    0    0    0 -0.00000000000E+00 -0.00000000000E+00 -0.34996269501E-01  0.35000000000E-01  0.51099999109E-03 0. -1.
       22    1    1    2    0    0 -0.65022627990E-03 -0.11729407339E-02  0.32465082637E-01  0.32492771116E-01  0.00000000000E+00 0. -1.
       22    1    1    2    0    0 -0.78668975500E-02 -0.30238689788E-02 -0.97513875226E-02  0.12888809847E-01  0.00000000000E+00 0.  1.
       22    1    1    2    0    0  0.85171238299E-02  0.41968097127E-02 -0.22713695115E-01  0.24618419036E-01  0.00000000000E+00 0. -1.
</event>
<event>
 5   0  0.4146200E+04  0.9118800E+02  0.7546771E-02  0.1180000E+00
      -11   -1    0    0    0    0  0.00000000000E+00  0.00000000000E+00  0.34996269501E-01  0.35000000000E-01  0.51099999109E-03 0.  1.
       11   -1    0    0    0    0 -0.00000000000E+00 -0.00000000000E+00 -0.34996269501E-01  0.35000000000E-01  0.51099999109E-03 0.  1.
       22    1    1    2    0    0 -0.14661602567E-03 -0.11903341475E-03 -0.47989345244E-03  0.51571594750E-03  0.00000000000E+00 0.  1.
       22    1    1    2    0    0 -0.32714852039E-03 -0.41758521788E-03  0.34976364371E-01  0.34980386907E-01  0.00000000000E+00 0.  1.
       22    1    1    2    0    0  0.47376454606E-03  0.53661863264E-03 -0.34496470918E-01  0.34503897145E-01  0.00000000000E+00 0.  1.
</event>
<event>
 5   0  0.4146200E+04  0.9118800E+02  0.7546771E-02  0.1180000E+00
      -11   -1    0    0    0    0  0.00000000000E+00  0.00000000000E+00  0.34996269501E-01  0.35000000000E-01  0.51099999109E-03 0. -1.
       11   -1    0    0    0    0 -0.00000000000E+00 -0.00000000000E+00 -0.34996269501E-01  0.35000000000E-01  0.51099999109E-03 0.  1.
       22    1    1    2    0    0  0.38389841431E-04 -0.67847067065E-02  0.30009279022E-01  0.30766711658E-01  0.00000000000E+00 0. -1.
       22    1    1    2    0    0 -0.11590473532E-01  0.72767449794E-02 -0.17123295128E-01  0.21920249320E-01  0.00000000000E+00 0.  1.
       22    1    1    2    0    0  0.11552083691E-01 -0.49203827287E-03 -0.12885983893E-01  0.17313039022E-01  0.00000000000E+00 0. -1.
</event>
<event>
 5   0  0.4146200E+04  0.9118800E+02  0.7546771E-02  0.1180000E+00
      -11   -1    0    0    0    0  0.00000000000E+00  0.00000000000E+00  0.34996269501E-01  0.35000000000E-01  0.51099999109E-03 0. -1.
       11   -1    0    0    0    0 -0.00000000000E+00 -0.00000000000E+00 -0.34996269501E-01  0.35000000000E-01  0.51099999109E-03 0.  1.
       22    1    1    2    0    0 -0.12424407031E-01 -0.86733323865E-03 -0.32296854339E-01  0.34615097244E-01  0.00000000000E+00 0.  1.
       22    1    1    2    0    0  0.12361694095E-01  0.84219280513E-03  0.32703863301E-01  0.34972323978E-01  0.00000000000E+00 0. -1.
       22    1    1    2    0    0  0.62712935406E-04  0.25140433513E-04 -0.40700896180E-03  0.41257877872E-03  0.00000000000E+00 0. -1.
</event>
<event>
 5   0  0.4146200E+04  0.9118800E+02  0.7546771E-02  0.1180000E+00
      -11   -1    0    0    0    0  0.00000000000E+00  0.00000000000E+00  0.34996269501E-01  0.35000000000E-01  0.51099999109E-03 0.  1.
       11   -1    0    0    0    0 -0.00000000000E+00 -0.00000000000E+00 -0.34996269501E-01  0.35000000000E-01  0.51099999109E-03 0. -1.
       22    1    1    2    0    0  0.14642642988E-01 -0.19863367507E-01 -0.24521068148E-01  0.34788549057E-01  0.00000000000E+00 0. -1.
       22    1    1    2    0    0 -0.14941299119E-01  0.19160702343E-01  0.24407023874E-01  0.34439479497E-01  0.00000000000E+00 0.  1.
       22    1    1    2    0    0  0.29865613065E-03  0.70266516350E-03  0.11404427405E-03  0.77197144560E-03  0.00000000000E+00 0.  1.
</event>
<event>
 5   0  0.4146200E+04  0.9118800E+02  0.7546771E-02  0.1180000E+00
      -11   -1    0    0    0    0  0.00000000000E+00  0.00000000000E+00  0.34996269501E-01  0.35000000000E-01  0.51099999109E-03 0. -1.
       11   -1    0    0    0    0 -0.00000000000E+00 -0.00000000000E+00 -0.34996269501E-01  0.35000000000E-01  0.51099999109E-03 0.  1.
       22    1    1    2    0    0 -0.17687429129E-01  0.77852882794E-02  0.21195686489E-01  0.28682973844E-01  0.00000000000E+00 0. -1.
       22    1    1    2    0    0  0.16907080018E-01 -0.10282860692E-01 -0.27851312074E-01  0.34165511309E-01  0.00000000000E+00 0.  1.
       22    1    1    2    0    0  0.78034911063E-03  0.24975724127E-02  0.66556255848E-02  0.71515148476E-02  0.00000000000E+00 0.  1.
</event>
<event>
 5   0  0.4146200E+04  0.9118800E+02  0.7546771E-02  0.1180000E+00
      -11   -1    0    0    0    0  0.00000000000E+00  0.00000000000E+00  0.34996269501E-01  0.35000000000E-01  0.51099999109E-03 0. -1.
       11   -1    0    0    0    0 -0.00000000000E+00 -0.00000000000E+00 -0.34996269501E-01  0.35000000000E-01  0.51099999109E-03 0.  1.
       22    1    1    2    0    0  0.61742028779E-02 -0.11287942680E-02 -0.69358642034E-02  0.93542060018E-02  0.00000000000E+00 0.  1.
       22    1    1    2    0    0 -0.30677289967E-01 -0.12196795211E-02  0.15742688659E-01  0.34502405483E-01  0.00000000000E+00 0. -1.
       22    1    1    2    0    0  0.24503087090E-01  0.23484737890E-02 -0.88068244560E-02  0.26143388515E-01  0.00000000000E+00 0.  1.
</event>
<event>
 5   0  0.4146200E+04  0.9118800E+02  0.7546771E-02  0.1180000E+00
      -11   -1    0    0    0    0  0.00000000000E+00  0.00000000000E+00  0.34996269501E-01  0.35000000000E-01  0.51099999109E-03 0. -1.
       11   -1    0    0    0    0 -0.00000000000E+00 -0.00000000000E+00 -0.34996269501E-01  0.35000000000E-01  0.51099999109E-03 0.  1.
       22    1    1    2    0    0 -0.48675194440E-02  0.16633408674E-01  0.30282809829E-01  0.34891425892E-01  0.00000000000E+00 0. -1.
       22    1    1    2    0    0  0.13856533346E-02 -0.67299271375E-02 -0.15723982953E-01  0.17159708458E-01  0.00000000000E+00 0.  1.
       22    1    1    2    0    0  0.34818661094E-02 -0.99034815360E-02 -0.14558826876E-01  0.17948865651E-01  0.00000000000E+00 0.  1.
</event>
<event>
 5   0  0.4146200E+04  0.9118800E+02  0.7546771E-02  0.1180000E+00
      -11   -1    0    0    0    0  0.00000000000E+00  0.00000000000E+00  0.34996269501E-01  0.35000000000E-01  0.51099999109E-03 0. -1.
       11   -1    0    0    0    0 -0.00000000000E+00 -0.00000000000E+00 -0.34996269501E-01  0.35000000000E-01  0.51099999109E-03 0.  1.
       22    1    1    2    0    0 -0.33260665644E-01  0.25356496738E-02  0.22439452794E-02  0.33432569281E-01  0.00000000000E+00 0.  1.
       22    1    1    2    0    0  0.27996196622E-02  0.13726836526E-02 -0.48289016088E-02  0.57480798020E-02  0.00000000000E+00 0. -1.
       22    1    1    2    0    0  0.30461045982E-01 -0.39083333264E-02  0.25849563293E-02  0.30819350917E-01  0.00000000000E+00 0. -1.
</event>
<event>
 5   0  0.4146200E+04  0.9118800E+02  0.7546771E-02  0.1180000E+00
      -11   -1    0    0    0    0  0.00000000000E+00  0.00000000000E+00  0.34996269501E-01  0.35000000000E-01  0.51099999109E-03 0.  1.
       11   -1    0    0    0    0 -0.00000000000E+00 -0.00000000000E+00 -0.34996269501E-01  0.35000000000E-01  0.51099999109E-03 0. -1.
       22    1    1    2    0    0  0.10416132957E-01  0.17955502634E-01  0.25321638482E-01  0.32742652245E-01  0.00000000000E+00 0.  1.
       22    1    1    2    0    0 -0.44505591237E-03 -0.50778720038E-03  0.26952244618E-02  0.27785171415E-02  0.00000000000E+00 0.  1.
       22    1    1    2    0    0 -0.99710770444E-02 -0.17447715434E-01 -0.28016862944E-01  0.34478830614E-01  0.00000000000E+00 0. -1.
</event>
<event>
 5   0  0.4146200E+04  0.9118800E+02  0.7546771E-02  0.1180000E+00
      -11   -1    0    0    0    0  0.00000000000E+00  0.00000000000E+00  0.34996269501E-01  0.35000000000E-01  0.51099999109E-03 0. -1.
       11   -1    0    0    0    0 -0.00000000000E+00 -0.00000000000E+00 -0.34996269501E-01  0.35000000000E-01  0.51099999109E-03 0.  1.
       22    1    1    2    0    0  0.19126030383E-01 -0.62922815149E-02 -0.28496772481E-01  0.34892175150E-01  0.00000000000E+00 0.  1.
       22    1    1    2    0    0 -0.29887129042E-02  0.20496386100E-02  0.71269169989E-02  0.79953967485E-02  0.00000000000E+00 0. -1.
       22    1    1    2    0    0 -0.16137317479E-01  0.42426429049E-02  0.21369855482E-01  0.27112428101E-01  0.00000000000E+00 0. -1.
</event>
<event>
 5   0  0.4146200E+04  0.9118800E+02  0.7546771E-02  0.1180000E+00
      -11   -1    0    0    0    0  0.00000000000E+00  0.00000000000E+00  0.34996269501E-01  0.35000000000E-01  0.51099999109E-03 0.  1.
       11   -1    0    0    0    0 -0.00000000000E+00 -0.00000000000E+00 -0.34996269501E-01  0.35000000000E-01  0.51099999109E-03 0. -1.
       22    1    1    2    0    0  0.16385590181E-01  0.16727113882E-01  0.18698963827E-01  0.29965566115E-01  0.00000000000E+00 0.  1.
       22    1    1    2    0    0 -0.10519449057E-02 -0.12894160321E-01  0.29117779380E-02  0.13260633817E-01  0.00000000000E+00 0. -1.
       22    1    1    2    0    0 -0.15333645275E-01 -0.38329535607E-02 -0.21610741765E-01  0.26773800068E-01  0.00000000000E+00 0. -1.
</event>
<event>
 5   0  0.4146200E+04  0.9118800E+02  0.7546771E-02  0.1180000E+00
      -11   -1    0    0    0    0  0.00000000000E+00  0.00000000000E+00  0.34996269501E-01  0.35000000000E-01  0.51099999109E-03 0. -1.
       11   -1    0    0    0    0 -0.00000000000E+00 -0.00000000000E+00 -0.34996269501E-01  0.35000000000E-01  0.51099999109E-03 0.  1.
       22    1    1    2    0    0 -0.15201805878E-01  0.69715942825E-02 -0.30063372856E-01  0.34402099010E-01  0.00000000000E+00 0.  1.
       22    1    1    2    0    0  0.15066846384E-01 -0.70435246745E-02  0.22230711275E-01  0.27763746570E-01  0.00000000000E+00 0. -1.
       22    1    1    2    0    0  0.13495949422E-03  0.71930392011E-04  0.78326615810E-02  0.78341544208E-02  0.00000000000E+00 0.  1.
</event>
<event>
 5   0  0.4146200E+04  0.9118800E+02  0.7546771E-02  0.1180000E+00
      -11   -1    0    0    0    0  0.00000000000E+00  0.00000000000E+00  0.34996269501E-01  0.35000000000E-01  0.51099999109E-03 0.  1.
       11   -1    0    0    0    0 -0.00000000000E+00 -0.00000000000E+00 -0.34996269501E-01  0.35000000000E-01  0.51099999109E-03 0. -1.
       22    1    1    2    0    0  0.16608039702E-03 -0.12860068964E-03 -0.36741492727E-03  0.42321928646E-03  0.00000000000E+00 0. -1.
       22    1    1    2    0    0 -0.32347767522E-01 -0.12881969555E-01  0.14376439030E-02  0.34848099277E-01  0.00000000000E+00 0. -1.
       22    1    1    2    0    0  0.32181687124E-01  0.13010570244E-01 -0.10702289757E-02  0.34728681437E-01  0.00000000000E+00 0.  1.
</event>
<event>
 5   0  0.4146200E+04  0.9118800E+02  0.7546771E-02  0.1180000E+00
      -11   -1    0    0    0    0  0.00000000000E+00  0.00000000000E+00  0.34996269501E-01  0.35000000000E-01  0.51099999109E-03 0.  1.
       11   -1    0    0    0    0 -0.00000000000E+00 -0.00000000000E+00 -0.34996269501E-01  0.35000000000E-01  0.51099999109E-03 0. -1.
       22    1    1    2    0    0 -0.16922625884E-02 -0.19427549661E-01  0.28585117727E-01  0.34603502626E-01  0.00000000000E+00 0.  1.
       22    1    1    2    0    0  0.22986520912E-02  0.19669141038E-01 -0.28546264475E-01  0.34742598148E-01  0.00000000000E+00 0. -1.
       22    1    1    2    0    0 -0.60638950280E-03 -0.24159137706E-03 -0.38853252264E-04  0.65389922602E-03  0.00000000000E+00 0. -1.
</event>
<event>
 5   0  0.4146200E+04  0.9118800E+02  0.7546771E-02  0.1180000E+00
      -11   -1    0    0    0    0  0.00000000000E+00  0.00000000000E+00  0.34996269501E-01  0.35000000000E-01  0.51099999109E-03 0. -1.
       11   -1    0    0    0    0 -0.00000000000E+00 -0.00000000000E+00 -0.34996269501E-01  0.35000000000E-01  0.51099999109E-03 0.  1.
       22    1    1    2    0    0 -0.11238539326E-01  0.95332572872E-02 -0.29821365588E-01  0.33264118901E-01  0.00000000000E+00 0.  1.
       22    1    1    2    0    0  0.12917263492E-03  0.75248749020E-04 -0.18333464848E-02  0.18394312374E-02  0.00000000000E+00 0. -1.
       22    1    1    2    0    0  0.11109366691E-01 -0.96085060362E-02  0.31654712073E-01  0.34896449862E-01  0.00000000000E+00 0. -1.
</event>
<event>
 5   0  0.4146200E+04  0.9118800E+02  0.7546771E-02  0.1180000E+00
      -11   -1    0    0    0    0  0.00000000000E+00  0.00000000000E+00  0.34996269501E-01  0.35000000000E-01  0.51099999109E-03 0.  1.
       11   -1    0    0    0    0 -0.00000000000E+00 -0.00000000000E+00 -0.34996269501E-01  0.35000000000E-01  0.51099999109E-03 0. -1.
       22    1    1    2    0    0  0.16145512873E-01 -0.11228326978E-01 -0.27532197209E-01  0.33834520771E-01  0.00000000000E+00 0. -1.
       22    1    1    2    0    0 -0.11620145029E-01  0.10124809043E-02  0.99404254442E-02  0.15325304111E-01  0.00000000000E+00 0.  1.
       22    1    1    2    0    0 -0.45253678441E-02  0.10215846074E-01  0.17591771764E-01  0.20840175118E-01  0.00000000000E+00 0.  1.
</event>
<event>
 5   0  0.4146200E+04  0.9118800E+02  0.7546771E-02  0.1180000E+00
      -11   -1    0    0    0    0  0.00000000000E+00  0.00000000000E+00  0.34996269501E-01  0.35000000000E-01  0.51099999109E-03 0.  1.
       11   -1    0    0    0    0 -0.00000000000E+00 -0.00000000000E+00 -0.34996269501E-01  0.35000000000E-01  0.51099999109E-03 0. -1.
       22    1    1    2    0    0  0.95863250716E-02 -0.11747120158E-01 -0.31414837254E-01  0.34882437703E-01  0.00000000000E+00 0. -1.
       22    1    1    2    0    0 -0.94314843438E-02  0.12077847906E-01  0.30822446181E-01  0.34421657362E-01  0.00000000000E+00 0.  1.
       22    1    1    2    0    0 -0.15484072784E-03 -0.33072774813E-03  0.59239107363E-03  0.69590493496E-03  0.00000000000E+00 0. -1.
</event>
<event>
 5   0  0.4146200E+04  0.9118800E+02  0.7546771E-02  0.1180000E+00
      -11   -1    0    0    0    0  0.00000000000E+00  0.00000000000E+00  0.34996269501E-01  0.35000000000E-01  0.51099999109E-03 0.  1.
       11   -1    0    0    0    0 -0.00000000000E+00 -0.00000000000E+00 -0.34996269501E-01  0.35000000000E-01  0.51099999109E-03 0. -1.
       22    1    1    2    0    0  0.99799306949E-02 -0.14535352648E-01  0.29412762102E-01  0.34292653262E-01  0.00000000000E+00 0.  1.
       22    1    1    2    0    0 -0.83424320240E-02  0.15665826689E-01 -0.28360516047E-01  0.33456436875E-01  0.00000000000E+00 0. -1.
       22    1    1    2    0    0 -0.16374986709E-02 -0.11304740406E-02 -0.10522460544E-02  0.22509098633E-02  0.00000000000E+00 0.  1.
</event>
<event>
 5   0  0.4146200E+04  0.9118800E+02  0.7546771E-02  0.1180000E+00
      -11   -1    0    0    0    0  0.00000000000E+00  0.00000000000E+00  0.34996269501E-01  0.35000000000E-01  0.51099999109E-03 0.  1.
       11   -1    0    0    0    0 -0.00000000000E+00 -0.00000000000E+00 -0.34996269501E-01  0.35000000000E-01  0.51099999109E-03 0. -1.
       22    1    1    2    0    0 -0.20610826945E-01 -0.72702015625E-02  0.13684108153E-01  0.25785981348E-01  0.00000000000E+00 0.  1.
       22    1    1    2    0    0 -0.19633343064E-02  0.12114312774E-02  0.10400082366E-01  0.10652885082E-01  0.00000000000E+00 0. -1.
       22    1    1    2    0    0  0.22574161252E-01  0.60587702851E-02 -0.24084190519E-01  0.33561133571E-01  0.00000000000E+00 0. -1.
</event>
<event>
 5   0  0.4146200E+04  0.9118800E+02  0.7546771E-02  0.1180000E+00
      -11   -1    0    0    0    0  0.00000000000E+00  0.00000000000E+00  0.34996269501E-01  0.35000000000E-01  0.51099999109E-03 0.  1.
       11   -1    0    0    0    0 -0.00000000000E+00 -0.00000000000E+00 -0.34996269501E-01  0.35000000000E-01  0.51099999109E-03 0. -1.
       22    1    1    2    0    0  0.22111749725E-03 -0.32567010757E-02 -0.33563237430E-02  0.46818697026E-02  0.00000000000E+00 0.  1.
       22    1    1    2    0    0  0.22179906049E-02 -0.61852580195E-03 -0.30785062549E-01  0.30871056552E-01  0.00000000000E+00 0. -1.
       22    1    1    2    0    0 -0.24391081021E-02  0.38752268776E-02  0.34141386292E-01  0.34447073745E-01  0.00000000000E+00 0.  1.
</event>
<event>
 5   0  0.4146200E+04  0.9118800E+02  0.7546771E-02  0.1180000E+00
      -11   -1    0    0    0    0  0.00000000000E+00  0.00000000000E+00  0.34996269501E-01  0.35000000000E-01  0.51099999109E-03 0.  1.
       11   -1    0    0    0    0 -0.00000000000E+00 -0.00000000000E+00 -0.34996269501E-01  0.35000000000E-01  0.51099999109E-03 0. -1.
       22    1    1    2    0    0 -0.37831357686E-02  0.25908892648E-02 -0.29410652796E-01  0.29765942306E-01  0.00000000000E+00 0. -1.
       22    1    1    2    0    0  0.37623873267E-02 -0.22484431405E-02 -0.45232157014E-02  0.62984549878E-02  0.00000000000E+00 0.  1.
       22    1    1    2    0    0  0.20748441901E-04 -0.34244612427E-03  0.33933868498E-01  0.33935602707E-01  0.00000000000E+00 0.  1.
</event>
<event>
 5   0  0.4146200E+04  0.9118800E+02  0.7546771E-02  0.1180000E+00
      -11   -1    0    0    0    0  0.00000000000E+00  0.00000000000E+00  0.34996269501E-01  0.35000000000E-01  0.51099999109E-03 0.  1.
       11   -1    0    0    0    0 -0.00000000000E+00 -0.00000000000E+00 -0.34996269501E-01  0.35000000000E-01  0.51099999109E-03 0. -1.
       22    1    1    2    0    0 -0.74246489050E-02  0.20221453945E-01 -0.27336909273E-01  0.34804298867E-01  0.00000000000E+00 0. -1.
       22    1    1    2    0    0  0.77671045907E-02 -0.20286824522E-01  0.27225396797E-01  0.34829662554E-01  0.00000000000E+00 0.  1.
       22    1    1    2    0    0 -0.34245568578E-03  0.65370576304E-04  0.11151247594E-03  0.36603857893E-03  0.00000000000E+00 0. -1.
</event>
<event>
 5   0  0.4146200E+04  0.9118800E+02  0.7546771E-02  0.1180000E+00
      -11   -1    0    0    0    0  0.00000000000E+00  0.00000000000E+00  0.34996269501E-01  0.35000000000E-01  0.51099999109E-03 0.  1.
       11   -1    0    0    0    0 -0.00000000000E+00 -0.00000000000E+00 -0.34996269501E-01  0.35000000000E-01  0.51099999109E-03 0. -1.
       22    1    1    2    0    0 -0.73250779508E-04 -0.20045234261E-03 -0.37525269533E-03  0.43169596212E-03  0.00000000000E+00 0.  1.
       22    1    1    2    0    0  0.13807695549E-02 -0.17977727216E-02  0.34893750629E-01  0.34967303932E-01  0.00000000000E+00 0.  1.
       22    1    1    2    0    0 -0.13075187754E-02  0.19982250642E-02 -0.34518497933E-01  0.34601000106E-01  0.00000000000E+00 0. -1.
</event>
<event>
 5   0  0.4146200E+04  0.9118800E+02  0.7546771E-02  0.1180000E+00
      -11   -1    0    0    0    0  0.00000000000E+00  0.00000000000E+00  0.34996269501E-01  0.35000000000E-01  0.51099999109E-03 0. -1.
       11   -1    0    0    0    0 -0.00000000000E+00 -0.00000000000E+00 -0.34996269501E-01  0.35000000000E-01  0.51099999109E-03 0.  1.
       22    1    1    2    0    0 -0.30500937887E-03  0.36350919948E-02 -0.39875265334E-02  0.54043771506E-02  0.00000000000E+00 0. -1.
       22    1    1    2    0    0  0.56919937737E-02  0.16905199919E-01 -0.23725069901E-01  0.29682714149E-01  0.00000000000E+00 0.  1.
       22    1    1    2    0    0 -0.53869843949E-02 -0.20540291914E-01  0.27712596435E-01  0.34912908700E-01  0.00000000000E+00 0. -1.
</event>
<event>
 5   0  0.4146200E+04  0.9118800E+02  0.7546771E-02  0.1180000E+00
      -11   -1    0    0    0    0  0.00000000000E+00  0.00000000000E+00  0.34996269501E-01  0.35000000000E-01  0.51099999109E-03 0. -1.
       11   -1    0    0    0    0 -0.00000000000E+00 -0.00000000000E+00 -0.34996269501E-01  0.35000000000E-01  0.51099999109E-03 0.  1.
       22    1    1    2    0    0  0.69446727089E-02  0.17729069188E-01  0.22698853034E-01  0.29627458587E-01  0.00000000000E+00 0.  1.
       22    1    1    2    0    0  0.76821099055E-03 -0.30278977813E-03  0.59266159253E-02  0.59838621393E-02  0.00000000000E+00 0.  1.
       22    1    1    2    0    0 -0.77128836995E-02 -0.17426279409E-01 -0.28625468959E-01  0.34388679273E-01  0.00000000000E+00 0. -1.
</event>
<event>
 5   0  0.4146200E+04  0.9118800E+02  0.7546771E-02  0.1180000E+00
      -11   -1    0    0    0    0  0.00000000000E+00  0.00000000000E+00  0.34996269501E-01  0.35000000000E-01  0.51099999109E-03 0. -1.
       11   -1    0    0    0    0 -0.00000000000E+00 -0.00000000000E+00 -0.34996269501E-01  0.35000000000E-01  0.51099999109E-03 0.  1.
       22    1    1    2    0    0  0.23732648377E-02  0.22922992551E-02 -0.43900924349E-02  0.54918060283E-02  0.00000000000E+00 0.  1.
       22    1    1    2    0    0 -0.14188466980E-02  0.29187234188E-03 -0.29986466244E-01  0.30021433564E-01  0.00000000000E+00 0.  1.
       22    1    1    2    0    0 -0.95441813966E-03 -0.25841715970E-02  0.34376558679E-01  0.34486760408E-01  0.00000000000E+00 0. -1.
</event>
<event>
 5   0  0.4146200E+04  0.9118800E+02  0.7546771E-02  0.1180000E+00
      -11   -1    0    0    0    0  0.00000000000E+00  0.00000000000E+00  0.34996269501E-01  0.35000000000E-01  0.51099999109E-03 0. -1.
       11   -1    0    0    0    0 -0.00000000000E+00 -0.00000000000E+00 -0.34996269501E-01  0.35000000000E-01  0.51099999109E-03 0.  1.
       22    1    1    2    0    0 -0.86329651694E-02 -0.15744899077E-01 -0.29960662819E-01  0.34929518335E-01  0.00000000000E+00 0.  1.
       22    1    1    2    0    0  0.21664089174E-03  0.63581980536E-04  0.14036304841E-02  0.14216731271E-02  0.00000000000E+00 0. -1.
       22    1    1    2    0    0  0.84163242776E-02  0.15681317097E-01  0.28557032335E-01  0.33648808538E-01  0.00000000000E+00 0. -1.
</event>
<event>
 5   0  0.4146200E+04  0.9118800E+02  0.7546771E-02  0.1180000E+00
      -11   -1    0    0    0    0  0.00000000000E+00  0.00000000000E+00  0.34996269501E-01  0.35000000000E-01  0.51099999109E-03 0.  1.
       11   -1    0    0    0    0 -0.00000000000E+00 -0.00000000000E+00 -0.34996269501E-01  0.35000000000E-01  0.51099999109E-03 0. -1.
       22    1    1    2    0    0  0.18851018527E-01  0.38574107398E-02  0.29144126968E-01  0.34923067646E-01  0.00000000000E+00 0.  1.
       22    1    1    2    0    0 -0.31315119636E-03  0.34605035523E-03 -0.11305953113E-02  0.12231354292E-02  0.00000000000E+00 0. -1.
       22    1    1    2    0    0 -0.18537867331E-01 -0.42034610950E-02 -0.28013531656E-01  0.33853796925E-01  0.00000000000E+00 0. -1.
</event>
<event>
 5   0  0.4146200E+04  0.9118800E+02  0.7546771E-02  0.1180000E+00
      -11   -1    0    0    0    0  0.00000000000E+00  0.00000000000E+00  0.34996269501E-01  0.35000000000E-01  0.51099999109E-03 0. -1.
       11   -1    0    0    0    0 -0.00000000000E+00 -0.00000000000E+00 -0.34996269501E-01  0.35000000000E-01  0.51099999109E-03 0.  1.
       22    1    1    2    0    0 -0.72662486736E-02 -0.15798945221E-01  0.28104804358E-01  0.33049736276E-01  0.00000000000E+00 0. -1.
       22    1    1    2    0    0  0.40311588660E-04  0.14560083769E-03  0.21353367877E-02  0.21406746192E-02  0.00000000000E+00 0. -1.
       22    1    1    2    0    0  0.72259370849E-02  0.15653344384E-01 -0.30240141146E-01  0.34809589105E-01  0.00000000000E+00 0.  1.
</event>
<event>
 5   0  0.4146200E+04  0.9118800E+02  0.7546771E-02  0.1180000E+00
      -11   -1    0    0    0    0  0.00000000000E+00  0.00000000000E+00  0.34996269501E-01  0.35000000000E-01  0.51099999109E-03 0.  1.
       11   -1    0    0    0    0 -0.00000000000E+00 -0.00000000000E+00 -0.34996269501E-01  0.35000000000E-01  0.51099999109E-03 0. -1.
       22    1    1    2    0    0  0.14560229492E-03 -0.14841530335E-03  0.34957711453E-01  0.34958329725E-01  0.00000000000E+00 0.  1.
       22    1    1    2    0    0 -0.30646694306E-03  0.28730926177E-03 -0.34721029889E-01  0.34723571031E-01  0.00000000000E+00 0. -1.
       22    1    1    2    0    0  0.16086464814E-03 -0.13889395842E-03 -0.23668156397E-03  0.31809924462E-03  0.00000000000E+00 0.  1.
</event>
<event>
 5   0  0.4146200E+04  0.9118800E+02  0.7546771E-02  0.1180000E+00
      -11   -1    0    0    0    0  0.00000000000E+00  0.00000000000E+00  0.34996269501E-01  0.35000000000E-01  0.51099999109E-03 0. -1.
       11   -1    0    0    0    0 -0.00000000000E+00 -0.00000000000E+00 -0.34996269501E-01  0.35000000000E-01  0.51099999109E-03 0.  1.
       22    1    1    2    0    0 -0.12231706855E-02  0.13420669581E-01 -0.31797738074E-01  0.34535585490E-01  0.00000000000E+00 0.  1.
       22    1    1    2    0    0 -0.22863441777E-02 -0.42952078811E-02  0.51756586373E-02  0.71037752478E-02  0.00000000000E+00 0. -1.
       22    1    1    2    0    0  0.35095148632E-02 -0.91254617001E-02  0.26622079437E-01  0.28360639262E-01  0.00000000000E+00 0. -1.
</event>
<event>
 5   0  0.4146200E+04  0.9118800E+02  0.7546771E-02  0.1180000E+00
      -11   -1    0    0    0    0  0.00000000000E+00  0.00000000000E+00  0.34996269501E-01  0.35000000000E-01  0.51099999109E-03 0. -1.
       11   -1    0    0    0    0 -0.00000000000E+00 -0.00000000000E+00 -0.34996269501E-01  0.35000000000E-01  0.51099999109E-03 0.  1.
       22    1    1    2    0    0 -0.16266529665E-02  0.97292899858E-03 -0.40382098484E-02  0.44609112846E-02  0.00000000000E+00 0. -1.
       22    1    1    2    0    0  0.65130504474E-03 -0.60298824379E-02 -0.30257235831E-01  0.30859099154E-01  0.00000000000E+00 0.  1.
       22    1    1    2    0    0  0.97534792174E-03  0.50569534393E-02  0.34295445679E-01  0.34679989561E-01  0.00000000000E+00 0. -1.
</event>
<event>
 5   0  0.4146200E+04  0.9118800E+02  0.7546771E-02  0.1180000E+00
      -11   -1    0    0    0    0  0.00000000000E+00  0.00000000000E+00  0.34996269501E-01  0.35000000000E-01  0.51099999109E-03 0. -1.
       11   -1    0    0    0    0 -0.00000000000E+00 -0.00000000000E+00 -0.34996269501E-01  0.35000000000E-01  0.51099999109E-03 0.  1.
       22    1    1    2    0    0 -0.57384041854E-02 -0.87904133376E-02  0.70371392816E-02  0.12638116098E-01  0.00000000000E+00 0. -1.
       22    1    1    2    0    0 -0.66932658004E-02 -0.10855581940E-01  0.18728100903E-01  0.22658005864E-01  0.00000000000E+00 0. -1.
       22    1    1    2    0    0  0.12431669986E-01  0.19645995277E-01 -0.25765240185E-01  0.34703878037E-01  0.00000000000E+00 0.  1.
</event>
<event>
 5   0  0.4146200E+04  0.9118800E+02  0.7546771E-02  0.1180000E+00
      -11   -1    0    0    0    0  0.00000000000E+00  0.00000000000E+00  0.34996269501E-01  0.35000000000E-01  0.51099999109E-03 0.  1.
       11   -1    0    0    0    0 -0.00000000000E+00 -0.00000000000E+00 -0.34996269501E-01  0.35000000000E-01  0.51099999109E-03 0. -1.
       22    1    1    2    0    0 -0.19589895744E-02  0.35076839735E-02  0.17397596199E-01  0.17855470885E-01  0.00000000000E+00 0.  1.
       22    1    1    2    0    0 -0.10302040000E-01 -0.35213823446E-02 -0.31575815968E-01  0.33400064608E-01  0.00000000000E+00 0. -1.
       22    1    1    2    0    0  0.12261029574E-01  0.13698371071E-04  0.14178219769E-01  0.18744464508E-01  0.00000000000E+00 0.  1.
</event>
<event>
 5   0  0.4146200E+04  0.9118800E+02  0.7546771E-02  0.1180000E+00
      -11   -1    0    0    0    0  0.00000000000E+00  0.00000000000E+00  0.34996269501E-01  0.35000000000E-01  0.51099999109E-03 0.  1.
       11   -1    0    0    0    0 -0.00000000000E+00 -0.00000000000E+00 -0.34996269501E-01  0.35000000000E-01  0.51099999109E-03 0.  1.
       22    1    1    2    0    0 -0.00000000000E+00  0.00000000000E+00  0.34961141953E-01  0.34957858346E-01  0.00000000000E+00 0.  1.
       22    1    1    2    0    0  0.23694737066E-03 -0.71578835054E-04 -0.34618825770E-01  0.34619710647E-01  0.00000000000E+00 0.  1.
       22    1    1    2    0    0 -0.23694737066E-03  0.71578835054E-04 -0.34231618358E-03  0.42243100695E-03  0.00000000000E+00 0. -1.
</event>
<event>
 5   0  0.4146200E+04  0.9118800E+02  0.7546771E-02  0.1180000E+00
      -11   -1    0    0    0    0  0.00000000000E+00  0.00000000000E+00  0.34996269501E-01  0.35000000000E-01  0.51099999109E-03 0.  1.
       11   -1    0    0    0    0 -0.00000000000E+00 -0.00000000000E+00 -0.34996269501E-01  0.35000000000E-01  0.51099999109E-03 0. -1.
       22    1    1    2    0    0  0.11308557026E-02  0.26768823721E-03 -0.32773823920E-01  0.32794420653E-01  0.00000000000E+00 0. -1.
       22    1    1    2    0    0 -0.31501899191E-03 -0.33928785970E-03  0.34912442716E-01  0.34915512449E-01  0.00000000000E+00 0.  1.
       22    1    1    2    0    0 -0.81583671066E-03  0.71599622493E-04 -0.21386187952E-02  0.22900668977E-02  0.00000000000E+00 0.  1.
</event>
<event>
 5   0  0.4146200E+04  0.9118800E+02  0.7546771E-02  0.1180000E+00
      -11   -1    0    0    0    0  0.00000000000E+00  0.00000000000E+00  0.34996269501E-01  0.35000000000E-01  0.51099999109E-03 0. -1.
       11   -1    0    0    0    0 -0.00000000000E+00 -0.00000000000E+00 -0.34996269501E-01  0.35000000000E-01  0.51099999109E-03 0.  1.
       22    1    1    2    0    0 -0.10913373769E-02 -0.53577900757E-04 -0.11904725869E-01  0.11954764150E-01  0.00000000000E+00 0.  1.
       22    1    1    2    0    0 -0.55365177423E-02  0.51249722534E-02  0.33790397025E-01  0.34622381496E-01  0.00000000000E+00 0. -1.
       22    1    1    2    0    0  0.66278551193E-02 -0.50713943527E-02 -0.21885671156E-01  0.23422854355E-01  0.00000000000E+00 0.  1.
</event>
<event>
 5   0  0.4146200E+04  0.9118800E+02  0.7546771E-02  0.1180000E+00
      -11   -1    0    0    0    0  0.00000000000E+00  0.00000000000E+00  0.34996269501E-01  0.35000000000E-01  0.51099999109E-03 0. -1.
       11   -1    0    0    0    0 -0.00000000000E+00 -0.00000000000E+00 -0.34996269501E-01  0.35000000000E-01  0.51099999109E-03 0.  1.
       22    1    1    2    0    0  0.15256399205E-03 -0.41293675987E-04  0.32791390226E-02  0.32829458827E-02  0.00000000000E+00 0.  1.
       22    1    1    2    0    0 -0.81114981688E-02 -0.90254426075E-02  0.29440893209E-01  0.31843699686E-01  0.00000000000E+00 0. -1.
       22    1    1    2    0    0  0.79589341767E-02  0.90667362835E-02 -0.32720032231E-01  0.34873354431E-01  0.00000000000E+00 0.  1.
</event>
<event>
 5   0  0.4146200E+04  0.9118800E+02  0.7546771E-02  0.1180000E+00
      -11   -1    0    0    0    0  0.00000000000E+00  0.00000000000E+00  0.34996269501E-01  0.35000000000E-01  0.51099999109E-03 0.  1.
       11   -1    0    0    0    0 -0.00000000000E+00 -0.00000000000E+00 -0.34996269501E-01  0.35000000000E-01  0.51099999109E-03 0. -1.
       22    1    1    2    0    0 -0.10129206199E-01  0.16096525404E-01  0.28233802591E-01  0.34041835395E-01  0.00000000000E+00 0.  1.
       22    1    1    2    0    0  0.89607922866E-04  0.16082743891E-02 -0.39941417803E-02  0.43067092602E-02  0.00000000000E+00 0.  1.
       22    1    1    2    0    0  0.10039598276E-01 -0.17704799793E-01 -0.24239660811E-01  0.31651455345E-01  0.00000000000E+00 0. -1.
</event>
<event>
 5   0  0.4146200E+04  0.9118800E+02  0.7546771E-02  0.1180000E+00
      -11   -1    0    0    0    0  0.00000000000E+00  0.00000000000E+00  0.34996269501E-01  0.35000000000E-01  0.51099999109E-03 0. -1.
       11   -1    0    0    0    0 -0.00000000000E+00 -0.00000000000E+00 -0.34996269501E-01  0.35000000000E-01  0.51099999109E-03 0. -1.
       22    1    1    2    0    0  0.00000000000E+00 -0.00000000000E+00  0.15356702212E-01  0.15356092810E-01  0.00000000000E+00 0. -1.
       22    1    1    2    0    0  0.17485086137E-01 -0.54977605113E-02 -0.27216184454E-01  0.32812715585E-01  0.00000000000E+00 0. -1.
       22    1    1    2    0    0 -0.17485086137E-01  0.54977605113E-02  0.11859482241E-01  0.21831191605E-01  0.00000000000E+00 0.  1.
</event>
<event>
 5   0  0.4146200E+04  0.9118800E+02  0.7546771E-02  0.1180000E+00
      -11   -1    0    0    0    0  0.00000000000E+00  0.00000000000E+00  0.34996269501E-01  0.35000000000E-01  0.51099999109E-03 0.  1.
       11   -1    0    0    0    0 -0.00000000000E+00 -0.00000000000E+00 -0.34996269501E-01  0.35000000000E-01  0.51099999109E-03 0. -1.
       22    1    1    2    0    0 -0.14032989224E-01  0.26944032244E-02 -0.14226162381E-01  0.20163538662E-01  0.00000000000E+00 0. -1.
       22    1    1    2    0    0 -0.14532706009E-02 -0.93854407123E-03 -0.15859464909E-01  0.15953541538E-01  0.00000000000E+00 0. -1.
       22    1    1    2    0    0  0.15486259825E-01 -0.17558591532E-02  0.30085627290E-01  0.33882919800E-01  0.00000000000E+00 0.  1.
</event>
<event>
 5   0  0.4146200E+04  0.9118800E+02  0.7546771E-02  0.1180000E+00
      -11   -1    0    0    0    0  0.00000000000E+00  0.00000000000E+00  0.34996269501E-01  0.35000000000E-01  0.51099999109E-03 0.  1.
       11   -1    0    0    0    0 -0.00000000000E+00 -0.00000000000E+00 -0.34996269501E-01  0.35000000000E-01  0.51099999109E-03 0. -1.
       22    1    1    2    0    0  0.12449552497E-01  0.38161806129E-02  0.99001407979E-03  0.13058894276E-01  0.00000000000E+00 0.  1.
       22    1    1    2    0    0 -0.13361193703E-01 -0.50043512932E-02 -0.27185917167E-01  0.30702428589E-01  0.00000000000E+00 0. -1.
       22    1    1    2    0    0  0.91164120592E-03  0.11881706803E-02  0.26195903087E-01  0.26238677135E-01  0.00000000000E+00 0.  1.
</event>
<event>
 5   0  0.4146200E+04  0.9118800E+02  0.7546771E-02  0.1180000E+00
      -11   -1    0    0    0    0  0.00000000000E+00  0.00000000000E+00  0.34996269501E-01  0.35000000000E-01  0.51099999109E-03 0. -1.
       11   -1    0    0    0    0 -0.00000000000E+00 -0.00000000000E+00 -0.34996269501E-01  0.35000000000E-01  0.51099999109E-03 0.  1.
       22    1    1    2    0    0 -0.49986804694E-03 -0.15241154667E-03 -0.12383936191E-03  0.53706008181E-03  0.00000000000E+00 0.  1.
       22    1    1    2    0    0 -0.96938026074E-02 -0.14742365885E-01 -0.29733375951E-01  0.34574279549E-01  0.00000000000E+00 0.  1.
       22    1    1    2    0    0  0.10193670654E-01  0.14894777432E-01  0.29857215313E-01  0.34888660370E-01  0.00000000000E+00 0. -1.
</event>
<event>
 5   0  0.4146200E+04  0.9118800E+02  0.7546771E-02  0.1180000E+00
      -11   -1    0    0    0    0  0.00000000000E+00  0.00000000000E+00  0.34996269501E-01  0.35000000000E-01  0.51099999109E-03 0. -1.
       11   -1    0    0    0    0 -0.00000000000E+00 -0.00000000000E+00 -0.34996269501E-01  0.35000000000E-01  0.51099999109E-03 0.  1.
       22    1    1    2    0    0 -0.43956382387E-02  0.21009006094E-02  0.32957335318E-01  0.33315482439E-01  0.00000000000E+00 0. -1.
       22    1    1    2    0    0  0.47537446283E-02  0.55008812570E-02 -0.23186773700E-01  0.24299881835E-01  0.00000000000E+00 0.  1.
       22    1    1    2    0    0 -0.35810638951E-03 -0.76017818663E-02 -0.97705616176E-02  0.12384635725E-01  0.00000000000E+00 0.  1.
</event>
<event>
 5   0  0.4146200E+04  0.9118800E+02  0.7546771E-02  0.1180000E+00
      -11   -1    0    0    0    0  0.00000000000E+00  0.00000000000E+00  0.34996269501E-01  0.35000000000E-01  0.51099999109E-03 0. -1.
       11   -1    0    0    0    0 -0.00000000000E+00 -0.00000000000E+00 -0.34996269501E-01  0.35000000000E-01  0.51099999109E-03 0.  1.
       22    1    1    2    0    0  0.31518546934E-03  0.15457468751E-02 -0.20500160308E-02  0.25867433209E-02  0.00000000000E+00 0.  1.
       22    1    1    2    0    0 -0.72406042285E-02  0.31557619329E-01  0.72941418307E-02  0.33189067362E-01  0.00000000000E+00 0. -1.
       22    1    1    2    0    0  0.69254187591E-02 -0.33103366204E-01 -0.52441258000E-02  0.34224189317E-01  0.00000000000E+00 0.  1.
</event>
<event>
 5   0  0.4146200E+04  0.9118800E+02  0.7546771E-02  0.1180000E+00
      -11   -1    0    0    0    0  0.00000000000E+00  0.00000000000E+00  0.34996269501E-01  0.35000000000E-01  0.51099999109E-03 0.  1.
       11   -1    0    0    0    0 -0.00000000000E+00 -0.00000000000E+00 -0.34996269501E-01  0.35000000000E-01  0.51099999109E-03 0. -1.
       22    1    1    2    0    0  0.10009829551E-01 -0.29269252586E-02  0.33298343564E-01  0.34893312586E-01  0.00000000000E+00 0.  1.
       22    1    1    2    0    0 -0.10046860544E-01  0.32437424653E-02 -0.30204699165E-01  0.31996642380E-01  0.00000000000E+00 0. -1.
       22    1    1    2    0    0  0.37030993149E-04 -0.31681720664E-03 -0.30936443996E-02  0.31100450331E-02  0.00000000000E+00 0.  1.
</event>
<event>
 5   0  0.4146200E+04  0.9118800E+02  0.7546771E-02  0.1180000E+00
      -11   -1    0    0    0    0  0.00000000000E+00  0.00000000000E+00  0.34996269501E-01  0.35000000000E-01  0.51099999109E-03 0.  1.
       11   -1    0    0    0    0 -0.00000000000E+00 -0.00000000000E+00 -0.34996269501E-01  0.35000000000E-01  0.51099999109E-03 0. -1.
       22    1    1    2    0    0  0.17861774431E-01  0.45572870573E-02 -0.29579162205E-01  0.34853101553E-01  0.00000000000E+00 0. -1.
       22    1    1    2    0    0 -0.18003394763E-01 -0.45493020531E-02  0.28226919629E-01  0.33787236702E-01  0.00000000000E+00 0.  1.
       22    1    1    2    0    0  0.14162033233E-03 -0.79850041795E-05  0.13522425753E-02  0.13596617452E-02  0.00000000000E+00 0. -1.
</event>
<event>
 5   0  0.4146200E+04  0.9118800E+02  0.7546771E-02  0.1180000E+00
      -11   -1    0    0    0    0  0.00000000000E+00  0.00000000000E+00  0.34996269501E-01  0.35000000000E-01  0.51099999109E-03 0. -1.
       11   -1    0    0    0    0 -0.00000000000E+00 -0.00000000000E+00 -0.34996269501E-01  0.35000000000E-01  0.51099999109E-03 0.  1.
       22    1    1    2    0    0 -0.22012702989E-02 -0.61052362600E-03  0.34434585937E-01  0.34510274393E-01  0.00000000000E+00 0. -1.
       22    1    1    2    0    0  0.16723224572E-03  0.28890783345E-02 -0.41954109631E-02  0.50966865115E-02  0.00000000000E+00 0. -1.
       22    1    1    2    0    0  0.20340380531E-02 -0.22785547085E-02 -0.30239174974E-01  0.30393039096E-01  0.00000000000E+00 0.  1.
</event>
<event>
 5   0  0.4146200E+04  0.9118800E+02  0.7546771E-02  0.1180000E+00
      -11   -1    0    0    0    0  0.00000000000E+00  0.00000000000E+00  0.34996269501E-01  0.35000000000E-01  0.51099999109E-03 0.  1.
       11   -1    0    0    0    0 -0.00000000000E+00 -0.00000000000E+00 -0.34996269501E-01  0.35000000000E-01  0.51099999109E-03 0. -1.
       22    1    1    2    0    0 -0.98482344834E-03  0.68433525277E-03 -0.32278887615E-01  0.32301157528E-01  0.00000000000E+00 0. -1.
       22    1    1    2    0    0  0.16759721067E-02  0.23565373976E-03 -0.24352645870E-02  0.29656245204E-02  0.00000000000E+00 0. -1.
       22    1    1    2    0    0 -0.69114865837E-03 -0.91998899254E-03  0.34714152202E-01  0.34733217952E-01  0.00000000000E+00 0.  1.
</event>
<event>
 5   0  0.4146200E+04  0.9118800E+02  0.7546771E-02  0.1180000E+00
      -11   -1    0    0    0    0  0.00000000000E+00  0.00000000000E+00  0.34996269501E-01  0.35000000000E-01  0.51099999109E-03 0.  1.
       11   -1    0    0    0    0 -0.00000000000E+00 -0.00000000000E+00 -0.34996269501E-01  0.35000000000E-01  0.51099999109E-03 0. -1.
       22    1    1    2    0    0 -0.65738286768E-02 -0.11840860851E-01 -0.31247734182E-01  0.34056454611E-01  0.00000000000E+00 0. -1.
       22    1    1    2    0    0  0.71039398459E-02  0.12829273170E-01  0.31541652809E-01  0.34784077871E-01  0.00000000000E+00 0.  1.
       22    1    1    2    0    0 -0.53011116914E-03 -0.98841231925E-03 -0.29391862704E-03  0.11594675174E-02  0.00000000000E+00 0.  1.
</event>
<event>
 5   0  0.4146200E+04  0.9118800E+02  0.7546771E-02  0.1180000E+00
      -11   -1    0    0    0    0  0.00000000000E+00  0.00000000000E+00  0.34996269501E-01  0.35000000000E-01  0.51099999109E-03 0. -1.
       11   -1    0    0    0    0 -0.00000000000E+00 -0.00000000000E+00 -0.34996269501E-01  0.35000000000E-01  0.51099999109E-03 0.  1.
       22    1    1    2    0    0 -0.33688402799E-03  0.43111047142E-03  0.21874117788E-02  0.22547987443E-02  0.00000000000E+00 0. -1.
       22    1    1    2    0    0  0.15585117125E-01 -0.76404491989E-02  0.28128733055E-01  0.33052956949E-01  0.00000000000E+00 0. -1.
       22    1    1    2    0    0 -0.15248233097E-01  0.72093387275E-02 -0.30316144834E-01  0.34692244307E-01  0.00000000000E+00 0.  1.
</event>
<event>
 5   0  0.4146200E+04  0.9118800E+02  0.7546771E-02  0.1180000E+00
      -11   -1    0    0    0    0  0.00000000000E+00  0.00000000000E+00  0.34996269501E-01  0.35000000000E-01  0.51099999109E-03 0. -1.
       11   -1    0    0    0    0 -0.00000000000E+00 -0.00000000000E+00 -0.34996269501E-01  0.35000000000E-01  0.51099999109E-03 0.  1.
       22    1    1    2    0    0  0.27663058245E-03 -0.67713991330E-03  0.90549245293E-03  0.11640272865E-02  0.00000000000E+00 0. -1.
       22    1    1    2    0    0  0.70161459405E-02 -0.16397450904E-01  0.28758758456E-01  0.33840344087E-01  0.00000000000E+00 0. -1.
       22    1    1    2    0    0 -0.72927765229E-02  0.17074590817E-01 -0.29664250909E-01  0.34995628627E-01  0.00000000000E+00 0.  1.
</event>
<event>
 5   0  0.4146200E+04  0.9118800E+02  0.7546771E-02  0.1180000E+00
      -11   -1    0    0    0    0  0.00000000000E+00  0.00000000000E+00  0.34996269501E-01  0.35000000000E-01  0.51099999109E-03 0. -1.
       11   -1    0    0    0    0 -0.00000000000E+00 -0.00000000000E+00 -0.34996269501E-01  0.35000000000E-01  0.51099999109E-03 0.  1.
       22    1    1    2    0    0  0.38540909434E-02 -0.11546306782E-01 -0.32001064015E-01  0.34237980598E-01  0.00000000000E+00 0.  1.
       22    1    1    2    0    0 -0.15683773672E-02 -0.16656012097E-02  0.73836811934E-02  0.77299924270E-02  0.00000000000E+00 0.  1.
       22    1    1    2    0    0 -0.22857135762E-02  0.13211907992E-01  0.24617382822E-01  0.28032026975E-01  0.00000000000E+00 0. -1.
</event>
<event>
 5   0  0.4146200E+04  0.9118800E+02  0.7546771E-02  0.1180000E+00
      -11   -1    0    0    0    0  0.00000000000E+00  0.00000000000E+00  0.34996269501E-01  0.35000000000E-01  0.51099999109E-03 0. -1.
       11   -1    0    0    0    0 -0.00000000000E+00 -0.00000000000E+00 -0.34996269501E-01  0.35000000000E-01  0.51099999109E-03 0.  1.
       22    1    1    2    0    0  0.11453062532E-01  0.18428693798E-02  0.32959010391E-01  0.34940881141E-01  0.00000000000E+00 0. -1.
       22    1    1    2    0    0  0.28313935427E-04 -0.16260965266E-03 -0.18351416364E-02  0.18425494305E-02  0.00000000000E+00 0. -1.
       22    1    1    2    0    0 -0.11481376468E-01 -0.16802597271E-02 -0.31123868755E-01  0.33216569429E-01  0.00000000000E+00 0.  1.
</event>
<event>
 5   0  0.4146200E+04  0.9118800E+02  0.7546771E-02  0.1180000E+00
      -11   -1    0    0    0    0  0.00000000000E+00  0.00000000000E+00  0.34996269501E-01  0.35000000000E-01  0.51099999109E-03 0.  1.
       11   -1    0    0    0    0 -0.00000000000E+00 -0.00000000000E+00 -0.34996269501E-01  0.35000000000E-01  0.51099999109E-03 0. -1.
       22    1    1    2    0    0 -0.61734545678E-02 -0.10942051866E-01 -0.26413383210E-01  0.29249048753E-01  0.00000000000E+00 0.  1.
       22    1    1    2    0    0  0.30964412001E-02 -0.83599913873E-02  0.14280525623E-02  0.90286620394E-02  0.00000000000E+00 0.  1.
       22    1    1    2    0    0  0.30770133677E-02  0.19302043254E-01  0.24985330647E-01  0.31722289208E-01  0.00000000000E+00 0. -1.
</event>
<event>
 5   0  0.4146200E+04  0.9118800E+02  0.7546771E-02  0.1180000E+00
      -11   -1    0    0    0    0  0.00000000000E+00  0.00000000000E+00  0.34996269501E-01  0.35000000000E-01  0.51099999109E-03 0.  1.
       11   -1    0    0    0    0 -0.00000000000E+00 -0.00000000000E+00 -0.34996269501E-01  0.35000000000E-01  0.51099999109E-03 0. -1.
       22    1    1    2    0    0  0.49158748810E-02 -0.21336067221E-01  0.27071454272E-01  0.34817484497E-01  0.00000000000E+00 0.  1.
       22    1    1    2    0    0  0.46423224805E-03  0.42110629855E-03 -0.10676538316E-03  0.63579945097E-03  0.00000000000E+00 0.  1.
       22    1    1    2    0    0 -0.53801071291E-02  0.20914960923E-01 -0.26964688888E-01  0.34546716052E-01  0.00000000000E+00 0. -1.
</event>
<event>
 5   0  0.4146200E+04  0.9118800E+02  0.7546771E-02  0.1180000E+00
      -11   -1    0    0    0    0  0.00000000000E+00  0.00000000000E+00  0.34996269501E-01  0.35000000000E-01  0.51099999109E-03 0. -1.
       11   -1    0    0    0    0 -0.00000000000E+00 -0.00000000000E+00 -0.34996269501E-01  0.35000000000E-01  0.51099999109E-03 0.  1.
       22    1    1    2    0    0 -0.98705857381E-02  0.81894994190E-02 -0.30897544539E-01  0.33453768429E-01  0.00000000000E+00 0.  1.
       22    1    1    2    0    0  0.38849168178E-03 -0.49831439011E-03 -0.16592145084E-02  0.17754536894E-02  0.00000000000E+00 0. -1.
       22    1    1    2    0    0  0.94820940564E-02 -0.76911850289E-02  0.32556759047E-01  0.34770777882E-01  0.00000000000E+00 0. -1.
</event>
<event>
 5   0  0.4146200E+04  0.9118800E+02  0.7546771E-02  0.1180000E+00
      -11   -1    0    0    0    0  0.00000000000E+00  0.00000000000E+00  0.34996269501E-01  0.35000000000E-01  0.51099999109E-03 0. -1.
       11   -1    0    0    0    0 -0.00000000000E+00 -0.00000000000E+00 -0.34996269501E-01  0.35000000000E-01  0.51099999109E-03 0.  1.
       22    1    1    2    0    0 -0.34245969330E-02  0.21496968176E-01  0.10347002354E-01  0.24102032334E-01  0.00000000000E+00 0. -1.
       22    1    1    2    0    0  0.27776291238E-03 -0.44941741314E-03  0.13743525100E-01  0.13753676252E-01  0.00000000000E+00 0.  1.
       22    1    1    2    0    0  0.31468340206E-02 -0.21047550763E-01 -0.24090527455E-01  0.32144291414E-01  0.00000000000E+00 0.  1.
</event>
<event>
 5   0  0.4146200E+04  0.9118800E+02  0.7546771E-02  0.1180000E+00
      -11   -1    0    0    0    0  0.00000000000E+00  0.00000000000E+00  0.34996269501E-01  0.35000000000E-01  0.51099999109E-03 0. -1.
       11   -1    0    0    0    0 -0.00000000000E+00 -0.00000000000E+00 -0.34996269501E-01  0.35000000000E-01  0.51099999109E-03 0.  1.
       22    1    1    2    0    0 -0.69782107643E-02 -0.14973977964E-01 -0.29598122398E-01  0.33896375781E-01  0.00000000000E+00 0.  1.
       22    1    1    2    0    0  0.25670077069E-02 -0.60894239250E-03  0.33704261844E-03  0.26596874123E-02  0.00000000000E+00 0. -1.
       22    1    1    2    0    0  0.44112030574E-02  0.15582920357E-01  0.29261079780E-01  0.33443936807E-01  0.00000000000E+00 0. -1.
</event>
<event>
 5   0  0.4146200E+04  0.9118800E+02  0.7546771E-02  0.1180000E+00
      -11   -1    0    0    0    0  0.00000000000E+00  0.00000000000E+00  0.34996269501E-01  0.35000000000E-01  0.51099999109E-03 0. -1.
       11   -1    0    0    0    0 -0.00000000000E+00 -0.00000000000E+00 -0.34996269501E-01  0.35000000000E-01  0.51099999109E-03 0.  1.
       22    1    1    2    0    0  0.10281545468E-02 -0.13886480412E-01 -0.28327795744E-01  0.31565098633E-01  0.00000000000E+00 0.  1.
       22    1    1    2    0    0  0.27656273282E-02  0.64698077134E-02 -0.17286144422E-02  0.72453581179E-02  0.00000000000E+00 0. -1.
       22    1    1    2    0    0 -0.37937818750E-02  0.74166726983E-02  0.30056410186E-01  0.31189543249E-01  0.00000000000E+00 0. -1.
</event>
<event>
 5   0  0.4146200E+04  0.9118800E+02  0.7546771E-02  0.1180000E+00
      -11   -1    0    0    0    0  0.00000000000E+00  0.00000000000E+00  0.34996269501E-01  0.35000000000E-01  0.51099999109E-03 0. -1.
       11   -1    0    0    0    0 -0.00000000000E+00 -0.00000000000E+00 -0.34996269501E-01  0.35000000000E-01  0.51099999109E-03 0.  1.
       22    1    1    2    0    0 -0.89377504814E-02  0.78984409713E-02  0.32827424622E-01  0.34927189419E-01  0.00000000000E+00 0. -1.
       22    1    1    2    0    0  0.42036807748E-04  0.14092223221E-03 -0.18503515360E-02  0.18561861370E-02  0.00000000000E+00 0.  1.
       22    1    1    2    0    0  0.88957136736E-02 -0.80393632035E-02 -0.30977073086E-01  0.33216624444E-01  0.00000000000E+00 0.  1.
</event>
<event>
 5   0  0.4146200E+04  0.9118800E+02  0.7546771E-02  0.1180000E+00
      -11   -1    0    0    0    0  0.00000000000E+00  0.00000000000E+00  0.34996269501E-01  0.35000000000E-01  0.51099999109E-03 0.  1.
       11   -1    0    0    0    0 -0.00000000000E+00 -0.00000000000E+00 -0.34996269501E-01  0.35000000000E-01  0.51099999109E-03 0. -1.
       22    1    1    2    0    0 -0.31565794167E-03  0.53980790338E-03 -0.16289190798E-04  0.62553804555E-03  0.00000000000E+00 0.  1.
       22    1    1    2    0    0 -0.72907753004E-02 -0.17903008470E-01  0.28934088157E-01  0.34797335735E-01  0.00000000000E+00 0.  1.
       22    1    1    2    0    0  0.76064332421E-02  0.17363200567E-01 -0.28917798966E-01  0.34577126220E-01  0.00000000000E+00 0. -1.
</event>
<event>
 5   0  0.4146200E+04  0.9118800E+02  0.7546771E-02  0.1180000E+00
      -11   -1    0    0    0    0  0.00000000000E+00  0.00000000000E+00  0.34996269501E-01  0.35000000000E-01  0.51099999109E-03 0. -1.
       11   -1    0    0    0    0 -0.00000000000E+00 -0.00000000000E+00 -0.34996269501E-01  0.35000000000E-01  0.51099999109E-03 0.  1.
       22    1    1    2    0    0  0.23372147982E-03 -0.11238204447E-02 -0.17598206647E-02  0.21010870743E-02  0.00000000000E+00 0. -1.
       22    1    1    2    0    0 -0.12951728917E-01  0.50924514345E-03 -0.30541736831E-01  0.33178370985E-01  0.00000000000E+00 0.  1.
       22    1    1    2    0    0  0.12718007438E-01  0.61457530129E-03  0.32301557496E-01  0.34720541940E-01  0.00000000000E+00 0. -1.
</event>
<event>
 5   0  0.4146200E+04  0.9118800E+02  0.7546771E-02  0.1180000E+00
      -11   -1    0    0    0    0  0.00000000000E+00  0.00000000000E+00  0.34996269501E-01  0.35000000000E-01  0.51099999109E-03 0. -1.
       11   -1    0    0    0    0 -0.00000000000E+00 -0.00000000000E+00 -0.34996269501E-01  0.35000000000E-01  0.51099999109E-03 0.  1.
       22    1    1    2    0    0  0.11398651030E-03 -0.45226716451E-03 -0.27127172824E-03  0.53956173249E-03  0.00000000000E+00 0.  1.
       22    1    1    2    0    0  0.18302502853E-01  0.87217916433E-02 -0.28093343412E-01  0.34645161339E-01  0.00000000000E+00 0.  1.
       22    1    1    2    0    0 -0.18416489363E-01 -0.82695244788E-02  0.28364615140E-01  0.34815276929E-01  0.00000000000E+00 0. -1.
</event>
<event>
 5   0  0.4146200E+04  0.9118800E+02  0.7546771E-02  0.1180000E+00
      -11   -1    0    0    0    0  0.00000000000E+00  0.00000000000E+00  0.34996269501E-01  0.35000000000E-01  0.51099999109E-03 0.  1.
       11   -1    0    0    0    0 -0.00000000000E+00 -0.00000000000E+00 -0.34996269501E-01  0.35000000000E-01  0.51099999109E-03 0. -1.
       22    1    1    2    0    0 -0.76566561129E-03 -0.23305959239E-01 -0.24729524715E-01  0.33989753934E-01  0.00000000000E+00 0. -1.
       22    1    1    2    0    0  0.19413482885E-03  0.24606652201E-01  0.22368334252E-01  0.33254584617E-01  0.00000000000E+00 0.  1.
       22    1    1    2    0    0  0.57153078243E-03 -0.13006929621E-02  0.23611904634E-02  0.27556614490E-02  0.00000000000E+00 0.  1.
</event>
<event>
 5   0  0.4146200E+04  0.9118800E+02  0.7546771E-02  0.1180000E+00
      -11   -1    0    0    0    0  0.00000000000E+00  0.00000000000E+00  0.34996269501E-01  0.35000000000E-01  0.51099999109E-03 0. -1.
       11   -1    0    0    0    0 -0.00000000000E+00 -0.00000000000E+00 -0.34996269501E-01  0.35000000000E-01  0.51099999109E-03 0. -1.
       22    1    1    2    0    0 -0.59430399816E-03  0.14398618105E-02 -0.19234688469E-02  0.24751023576E-02  0.00000000000E+00 0.  1.
       22    1    1    2    0    0 -0.35594838631E-03 -0.16150031153E-02 -0.32773139072E-01  0.32814837787E-01  0.00000000000E+00 0. -1.
       22    1    1    2    0    0  0.95025238447E-03  0.17514130480E-03  0.34696607919E-01  0.34710059856E-01  0.00000000000E+00 0. -1.
</event>
<event>
 5   0  0.4146200E+04  0.9118800E+02  0.7546771E-02  0.1180000E+00
      -11   -1    0    0    0    0  0.00000000000E+00  0.00000000000E+00  0.34996269501E-01  0.35000000000E-01  0.51099999109E-03 0. -1.
       11   -1    0    0    0    0 -0.00000000000E+00 -0.00000000000E+00 -0.34996269501E-01  0.35000000000E-01  0.51099999109E-03 0.  1.
       22    1    1    2    0    0  0.12682411409E-01 -0.10777495809E-01  0.30366749017E-01  0.34628563656E-01  0.00000000000E+00 0. -1.
       22    1    1    2    0    0 -0.51329707187E-04  0.26008914945E-03 -0.58429257687E-02  0.58489368815E-02  0.00000000000E+00 0. -1.
       22    1    1    2    0    0 -0.12631081702E-01  0.10517406660E-01 -0.24523823248E-01  0.29522499462E-01  0.00000000000E+00 0.  1.
</event>
<event>
 5   0  0.4146200E+04  0.9118800E+02  0.7546771E-02  0.1180000E+00
      -11   -1    0    0    0    0  0.00000000000E+00  0.00000000000E+00  0.34996269501E-01  0.35000000000E-01  0.51099999109E-03 0. -1.
       11   -1    0    0    0    0 -0.00000000000E+00 -0.00000000000E+00 -0.34996269501E-01  0.35000000000E-01  0.51099999109E-03 0.  1.
       22    1    1    2    0    0  0.28368828722E-02  0.14229904858E-01  0.31653172399E-01  0.34820416706E-01  0.00000000000E+00 0. -1.
       22    1    1    2    0    0 -0.64063592661E-03 -0.38185319757E-03 -0.24691710870E-03  0.78561715455E-03  0.00000000000E+00 0. -1.
       22    1    1    2    0    0 -0.21962469455E-02 -0.13848051661E-01 -0.31406255290E-01  0.34393966139E-01  0.00000000000E+00 0.  1.
</event>
<event>
 5   0  0.4146200E+04  0.9118800E+02  0.7546771E-02  0.1180000E+00
      -11   -1    0    0    0    0  0.00000000000E+00  0.00000000000E+00  0.34996269501E-01  0.35000000000E-01  0.51099999109E-03 0.  1.
       11   -1    0    0    0    0 -0.00000000000E+00 -0.00000000000E+00 -0.34996269501E-01  0.35000000000E-01  0.51099999109E-03 0. -1.
       22    1    1    2    0    0  0.86117929748E-04 -0.50887135260E-04  0.18686474582E-02  0.18713228266E-02  0.00000000000E+00 0.  1.
       22    1    1    2    0    0  0.57646564009E-02 -0.23552272053E-01  0.22947213951E-01  0.33384358769E-01  0.00000000000E+00 0.  1.
       22    1    1    2    0    0 -0.58507743306E-02  0.23603159188E-01 -0.24815861409E-01  0.34744318405E-01  0.00000000000E+00 0. -1.
</event>
<event>
 5   0  0.4146200E+04  0.9118800E+02  0.7546771E-02  0.1180000E+00
      -11   -1    0    0    0    0  0.00000000000E+00  0.00000000000E+00  0.34996269501E-01  0.35000000000E-01  0.51099999109E-03 0.  1.
       11   -1    0    0    0    0 -0.00000000000E+00 -0.00000000000E+00 -0.34996269501E-01  0.35000000000E-01  0.51099999109E-03 0. -1.
       22    1    1    2    0    0  0.10415852667E-03 -0.79718034230E-04 -0.43629571080E-02  0.43649282572E-02  0.00000000000E+00 0. -1.
       22    1    1    2    0    0  0.72003803464E-02  0.73607949000E-02 -0.28968668222E-01  0.30744276171E-01  0.00000000000E+00 0. -1.
       22    1    1    2    0    0 -0.73045388731E-02 -0.72810768658E-02  0.33331625330E-01  0.34890795572E-01  0.00000000000E+00 0.  1.
</event>
<event>
 5   0  0.4146200E+04  0.9118800E+02  0.7546771E-02  0.1180000E+00
      -11   -1    0    0    0    0  0.00000000000E+00  0.00000000000E+00  0.34996269501E-01  0.35000000000E-01  0.51099999109E-03 0. -1.
       11   -1    0    0    0    0 -0.00000000000E+00 -0.00000000000E+00 -0.34996269501E-01  0.35000000000E-01  0.51099999109E-03 0.  1.
       22    1    1    2    0    0  0.14567220155E-01  0.42452274585E-02  0.14426035808E-01  0.20936484145E-01  0.00000000000E+00 0. -1.
       22    1    1    2    0    0  0.51915139129E-03  0.15527672608E-03  0.15368761614E-01  0.15378311434E-01  0.00000000000E+00 0. -1.
       22    1    1    2    0    0 -0.15086371546E-01 -0.44005041846E-02 -0.29794797421E-01  0.33685204421E-01  0.00000000000E+00 0.  1.
</event>
<event>
 5   0  0.4146200E+04  0.9118800E+02  0.7546771E-02  0.1180000E+00
      -11   -1    0    0    0    0  0.00000000000E+00  0.00000000000E+00  0.34996269501E-01  0.35000000000E-01  0.51099999109E-03 0.  1.
       11   -1    0    0    0    0 -0.00000000000E+00 -0.00000000000E+00 -0.34996269501E-01  0.35000000000E-01  0.51099999109E-03 0. -1.
       22    1    1    2    0    0  0.11894165502E-01  0.10226098025E-02 -0.13617678629E-01  0.18109612781E-01  0.00000000000E+00 0. -1.
       22    1    1    2    0    0 -0.11157499999E-01 -0.38374429442E-03  0.31789270477E-01  0.33692651771E-01  0.00000000000E+00 0.  1.
       22    1    1    2    0    0 -0.73666550287E-03 -0.63886550804E-03 -0.18171591847E-01  0.18197735449E-01  0.00000000000E+00 0. -1.
</event>
<event>
 5   0  0.4146200E+04  0.9118800E+02  0.7546771E-02  0.1180000E+00
      -11   -1    0    0    0    0  0.00000000000E+00  0.00000000000E+00  0.34996269501E-01  0.35000000000E-01  0.51099999109E-03 0.  1.
       11   -1    0    0    0    0 -0.00000000000E+00 -0.00000000000E+00 -0.34996269501E-01  0.35000000000E-01  0.51099999109E-03 0. -1.
       22    1    1    2    0    0 -0.18460985250E-02 -0.93363885873E-02  0.13810400957E-01  0.16772102022E-01  0.00000000000E+00 0. -1.
       22    1    1    2    0    0  0.11596973257E-01  0.17853358516E-02  0.16647971562E-01  0.20367429145E-01  0.00000000000E+00 0.  1.
       22    1    1    2    0    0 -0.97508747322E-02  0.75510527357E-02 -0.30458372519E-01  0.32860468834E-01  0.00000000000E+00 0. -1.
</event>
<event>
 5   0  0.4146200E+04  0.9118800E+02  0.7546771E-02  0.1180000E+00
      -11   -1    0    0    0    0  0.00000000000E+00  0.00000000000E+00  0.34996269501E-01  0.35000000000E-01  0.51099999109E-03 0. -1.
       11   -1    0    0    0    0 -0.00000000000E+00 -0.00000000000E+00 -0.34996269501E-01  0.35000000000E-01  0.51099999109E-03 0.  1.
       22    1    1    2    0    0 -0.51277647760E-02  0.88572357740E-02 -0.29324078511E-01  0.31058753640E-01  0.00000000000E+00 0.  1.
       22    1    1    2    0    0  0.58220823388E-02 -0.63206295294E-02 -0.86589331281E-03  0.86369422620E-02  0.00000000000E+00 0. -1.
       22    1    1    2    0    0 -0.69431756274E-03 -0.25366062446E-02  0.30189971824E-01  0.30304304098E-01  0.00000000000E+00 0. -1.
</event>
<event>
 5   0  0.4146200E+04  0.9118800E+02  0.7546771E-02  0.1180000E+00
      -11   -1    0    0    0    0  0.00000000000E+00  0.00000000000E+00  0.34996269501E-01  0.35000000000E-01  0.51099999109E-03 0.  1.
       11   -1    0    0    0    0 -0.00000000000E+00 -0.00000000000E+00 -0.34996269501E-01  0.35000000000E-01  0.51099999109E-03 0.  1.
       22    1    1    2    0    0  0.00000000000E+00  0.00000000000E+00  0.34818696901E-01  0.34816067585E-01  0.00000000000E+00 0.  1.
       22    1    1    2    0    0  0.49324320881E-03 -0.11942456339E-02 -0.32530323304E-01  0.32555974041E-01  0.00000000000E+00 0.  1.
       22    1    1    2    0    0 -0.49324320881E-03  0.11942456339E-02 -0.22883735968E-02  0.26279583741E-02  0.00000000000E+00 0. -1.
</event>
<event>
 5   0  0.4146200E+04  0.9118800E+02  0.7546771E-02  0.1180000E+00
      -11   -1    0    0    0    0  0.00000000000E+00  0.00000000000E+00  0.34996269501E-01  0.35000000000E-01  0.51099999109E-03 0. -1.
       11   -1    0    0    0    0 -0.00000000000E+00 -0.00000000000E+00 -0.34996269501E-01  0.35000000000E-01  0.51099999109E-03 0.  1.
       22    1    1    2    0    0  0.99524598660E-02  0.10284909956E-01 -0.31847504393E-01  0.34915531877E-01  0.00000000000E+00 0.  1.
       22    1    1    2    0    0  0.15618935556E-03 -0.18508877080E-03  0.17541556269E-02  0.17707949998E-02  0.00000000000E+00 0. -1.
       22    1    1    2    0    0 -0.10108649222E-01 -0.10099821185E-01  0.30093348766E-01  0.33313673124E-01  0.00000000000E+00 0. -1.
</event>
<event>
 5   0  0.4146200E+04  0.9118800E+02  0.7546771E-02  0.1180000E+00
      -11   -1    0    0    0    0  0.00000000000E+00  0.00000000000E+00  0.34996269501E-01  0.35000000000E-01  0.51099999109E-03 0. -1.
       11   -1    0    0    0    0 -0.00000000000E+00 -0.00000000000E+00 -0.34996269501E-01  0.35000000000E-01  0.51099999109E-03 0.  1.
       22    1    1    2    0    0 -0.14909821098E-01  0.31402156531E-02 -0.30984343635E-01  0.34528151848E-01  0.00000000000E+00 0.  1.
       22    1    1    2    0    0 -0.19967868474E-03 -0.51555115452E-03 -0.30132229769E-03  0.62965045633E-03  0.00000000000E+00 0. -1.
       22    1    1    2    0    0  0.15109499782E-01 -0.26246644986E-02  0.31285665933E-01  0.34842197696E-01  0.00000000000E+00 0. -1.
</event>
<event>
 5   0  0.4146200E+04  0.9118800E+02  0.7546771E-02  0.1180000E+00
      -11   -1    0    0    0    0  0.00000000000E+00  0.00000000000E+00  0.34996269501E-01  0.35000000000E-01  0.51099999109E-03 0. -1.
       11   -1    0    0    0    0 -0.00000000000E+00 -0.00000000000E+00 -0.34996269501E-01  0.35000000000E-01  0.51099999109E-03 0.  1.
       22    1    1    2    0    0 -0.53804879043E-03  0.65902987292E-03  0.34349062124E-01  0.34359596704E-01  0.00000000000E+00 0. -1.
       22    1    1    2    0    0  0.41199601344E-02  0.19501853538E-02 -0.23187863095E-01  0.23631637466E-01  0.00000000000E+00 0.  1.
       22    1    1    2    0    0 -0.35819113439E-02 -0.26092152267E-02 -0.11161199029E-01  0.12008765829E-01  0.00000000000E+00 0. -1.
</event>
<event>
 5   0  0.4146200E+04  0.9118800E+02  0.7546771E-02  0.1180000E+00
      -11   -1    0    0    0    0  0.00000000000E+00  0.00000000000E+00  0.34996269501E-01  0.35000000000E-01  0.51099999109E-03 0. -1.
       11   -1    0    0    0    0 -0.00000000000E+00 -0.00000000000E+00 -0.34996269501E-01  0.35000000000E-01  0.51099999109E-03 0.  1.
       22    1    1    2    0    0 -0.22399258099E-02 -0.30811660867E-02  0.25393391339E-02  0.45781104535E-02  0.00000000000E+00 0.  1.
       22    1    1    2    0    0  0.55849242948E-02 -0.17366852254E-01  0.25006326616E-01  0.30953437732E-01  0.00000000000E+00 0. -1.
       22    1    1    2    0    0 -0.33449984849E-02  0.20448018341E-01 -0.27545665750E-01  0.34468451815E-01  0.00000000000E+00 0.  1.
</event>
<event>
 5   0  0.4146200E+04  0.9118800E+02  0.7546771E-02  0.1180000E+00
      -11   -1    0    0    0    0  0.00000000000E+00  0.00000000000E+00  0.34996269501E-01  0.35000000000E-01  0.51099999109E-03 0.  1.
       11   -1    0    0    0    0 -0.00000000000E+00 -0.00000000000E+00 -0.34996269501E-01  0.35000000000E-01  0.51099999109E-03 0. -1.
       22    1    1    2    0    0 -0.11734546017E-01  0.70904165846E-03 -0.13067745389E-01  0.17577493560E-01  0.00000000000E+00 0. -1.
       22    1    1    2    0    0  0.11323831653E-01  0.85532419082E-04  0.31755059073E-01  0.33713799190E-01  0.00000000000E+00 0.  1.
       22    1    1    2    0    0  0.41071436443E-03 -0.79457407754E-03 -0.18687313684E-01  0.18708707250E-01  0.00000000000E+00 0. -1.
</event>
<event>
 5   0  0.4146200E+04  0.9118800E+02  0.7546771E-02  0.1180000E+00
      -11   -1    0    0    0    0  0.00000000000E+00  0.00000000000E+00  0.34996269501E-01  0.35000000000E-01  0.51099999109E-03 0.  1.
       11   -1    0    0    0    0 -0.00000000000E+00 -0.00000000000E+00 -0.34996269501E-01  0.35000000000E-01  0.51099999109E-03 0. -1.
       22    1    1    2    0    0 -0.17823238732E-01 -0.34888329813E-02  0.29569673139E-01  0.34701662266E-01  0.00000000000E+00 0.  1.
       22    1    1    2    0    0  0.15954755062E-02 -0.15204267426E-02 -0.45953949206E-02  0.50965570777E-02  0.00000000000E+00 0. -1.
       22    1    1    2    0    0  0.16227763226E-01  0.50092597239E-02 -0.24974278218E-01  0.30201780656E-01  0.00000000000E+00 0. -1.
</event>
<event>
 5   0  0.4146200E+04  0.9118800E+02  0.7546771E-02  0.1180000E+00
      -11   -1    0    0    0    0  0.00000000000E+00  0.00000000000E+00  0.34996269501E-01  0.35000000000E-01  0.51099999109E-03 0.  1.
       11   -1    0    0    0    0 -0.00000000000E+00 -0.00000000000E+00 -0.34996269501E-01  0.35000000000E-01  0.51099999109E-03 0. -1.
       22    1    1    2    0    0  0.20491411816E-01 -0.11541161273E-01 -0.24868967943E-01  0.34228086833E-01  0.00000000000E+00 0. -1.
       22    1    1    2    0    0 -0.20537364425E-01  0.11353364419E-01  0.25768105960E-01  0.34852223830E-01  0.00000000000E+00 0.  1.
       22    1    1    2    0    0  0.45952609132E-04  0.18779685390E-03 -0.89913801743E-03  0.91968933614E-03  0.00000000000E+00 0. -1.
</event>
<event>
 5   0  0.4146200E+04  0.9118800E+02  0.7546771E-02  0.1180000E+00
      -11   -1    0    0    0    0  0.00000000000E+00  0.00000000000E+00  0.34996269501E-01  0.35000000000E-01  0.51099999109E-03 0.  1.
       11   -1    0    0    0    0 -0.00000000000E+00 -0.00000000000E+00 -0.34996269501E-01  0.35000000000E-01  0.51099999109E-03 0. -1.
       22    1    1    2    0    0 -0.21087561789E-01  0.72490723835E-02 -0.24627743409E-01  0.33222884554E-01  0.00000000000E+00 0. -1.
       22    1    1    2    0    0  0.20999628850E-01 -0.69051194364E-02  0.26706386085E-01  0.34668373830E-01  0.00000000000E+00 0.  1.
       22    1    1    2    0    0  0.87932938933E-04 -0.34395294710E-03 -0.20786426760E-02  0.21087416167E-02  0.00000000000E+00 0. -1.
</event>
<event>
 5   0  0.4146200E+04  0.9118800E+02  0.7546771E-02  0.1180000E+00
      -11   -1    0    0    0    0  0.00000000000E+00  0.00000000000E+00  0.34996269501E-01  0.35000000000E-01  0.51099999109E-03 0. -1.
       11   -1    0    0    0    0 -0.00000000000E+00 -0.00000000000E+00 -0.34996269501E-01  0.35000000000E-01  0.51099999109E-03 0.  1.
       22    1    1    2    0    0 -0.11836702102E-03  0.71343264813E-03 -0.16778602513E-03  0.74239413071E-03  0.00000000000E+00 0. -1.
       22    1    1    2    0    0 -0.15050178790E-01 -0.81000471518E-02  0.30263030624E-01  0.34755858039E-01  0.00000000000E+00 0. -1.
       22    1    1    2    0    0  0.15168545811E-01  0.73866145036E-02 -0.30095244599E-01  0.34501747830E-01  0.00000000000E+00 0.  1.
</event>
<event>
 5   0  0.4146200E+04  0.9118800E+02  0.7546771E-02  0.1180000E+00
      -11   -1    0    0    0    0  0.00000000000E+00  0.00000000000E+00  0.34996269501E-01  0.35000000000E-01  0.51099999109E-03 0.  1.
       11   -1    0    0    0    0 -0.00000000000E+00 -0.00000000000E+00 -0.34996269501E-01  0.35000000000E-01  0.51099999109E-03 0. -1.
       22    1    1    2    0    0 -0.23352511722E-01  0.22144246528E-02  0.25690672165E-01  0.34788706739E-01  0.00000000000E+00 0.  1.
       22    1    1    2    0    0 -0.21836519384E-03  0.23498011125E-03 -0.10611755636E-03  0.33787563737E-03  0.00000000000E+00 0.  1.
       22    1    1    2    0    0  0.23570876916E-01 -0.24494047640E-02 -0.25584554609E-01  0.34873417624E-01  0.00000000000E+00 0. -1.
</event>
<event>
 5   0  0.4146200E+04  0.9118800E+02  0.7546771E-02  0.1180000E+00
      -11   -1    0    0    0    0  0.00000000000E+00  0.00000000000E+00  0.34996269501E-01  0.35000000000E-01  0.51099999109E-03 0.  1.
       11   -1    0    0    0    0 -0.00000000000E+00 -0.00000000000E+00 -0.34996269501E-01  0.35000000000E-01  0.51099999109E-03 0. -1.
       22    1    1    2    0    0 -0.61013698674E-02 -0.29203971653E-01 -0.13536679376E-01  0.32761873620E-01  0.00000000000E+00 0. -1.
       22    1    1    2    0    0 -0.91635468169E-03  0.35329004606E-02 -0.39625547916E-02  0.53872935732E-02  0.00000000000E+00 0. -1.
       22    1    1    2    0    0  0.70177245491E-02  0.25671071193E-01  0.17499234167E-01  0.31850832807E-01  0.00000000000E+00 0.  1.
</event>
<event>
 5   0  0.4146200E+04  0.9118800E+02  0.7546771E-02  0.1180000E+00
      -11   -1    0    0    0    0  0.00000000000E+00  0.00000000000E+00  0.34996269501E-01  0.35000000000E-01  0.51099999109E-03 0. -1.
       11   -1    0    0    0    0 -0.00000000000E+00 -0.00000000000E+00 -0.34996269501E-01  0.35000000000E-01  0.51099999109E-03 0.  1.
       22    1    1    2    0    0  0.93625750070E-02  0.20656718105E-02 -0.32818860390E-01  0.34190677211E-01  0.00000000000E+00 0.  1.
       22    1    1    2    0    0 -0.18179384178E-03  0.26358473897E-03 -0.81056391340E-03  0.87151579058E-03  0.00000000000E+00 0. -1.
       22    1    1    2    0    0 -0.91807811653E-02 -0.23292565494E-02  0.33629424304E-01  0.34937806999E-01  0.00000000000E+00 0. -1.
</event>
<event>
 5   0  0.4146200E+04  0.9118800E+02  0.7546771E-02  0.1180000E+00
      -11   -1    0    0    0    0  0.00000000000E+00  0.00000000000E+00  0.34996269501E-01  0.35000000000E-01  0.51099999109E-03 0. -1.
       11   -1    0    0    0    0 -0.00000000000E+00 -0.00000000000E+00 -0.34996269501E-01  0.35000000000E-01  0.51099999109E-03 0.  1.
       22    1    1    2    0    0 -0.16715729977E-01 -0.14823886901E-01 -0.26502905279E-01  0.34663629928E-01  0.00000000000E+00 0.  1.
       22    1    1    2    0    0  0.16855728819E-01  0.14771736388E-01  0.24032833387E-01  0.32861784348E-01  0.00000000000E+00 0. -1.
       22    1    1    2    0    0 -0.13999884261E-03  0.52150512678E-04  0.24700718928E-02  0.24745857244E-02  0.00000000000E+00 0. -1.
</event>
<event>
 5   0  0.4146200E+04  0.9118800E+02  0.7546771E-02  0.1180000E+00
      -11   -1    0    0    0    0  0.00000000000E+00  0.00000000000E+00  0.34996269501E-01  0.35000000000E-01  0.51099999109E-03 0. -1.
       11   -1    0    0    0    0 -0.00000000000E+00 -0.00000000000E+00 -0.34996269501E-01  0.35000000000E-01  0.51099999109E-03 0. -1.
       22    1    1    2    0    0 -0.00000000000E+00  0.00000000000E+00  0.27274610698E-01  0.27273051336E-01  0.00000000000E+00 0. -1.
       22    1    1    2    0    0 -0.97554072369E-02 -0.77122413787E-02 -0.27615750984E-01  0.30286570288E-01  0.00000000000E+00 0. -1.
       22    1    1    2    0    0  0.97554072369E-02  0.77122413787E-02  0.34114028580E-03  0.12440378376E-01  0.00000000000E+00 0.  1.
</event>
<event>
 5   0  0.4146200E+04  0.9118800E+02  0.7546771E-02  0.1180000E+00
      -11   -1    0    0    0    0  0.00000000000E+00  0.00000000000E+00  0.34996269501E-01  0.35000000000E-01  0.51099999109E-03 0.  1.
       11   -1    0    0    0    0 -0.00000000000E+00 -0.00000000000E+00 -0.34996269501E-01  0.35000000000E-01  0.51099999109E-03 0. -1.
       22    1    1    2    0    0 -0.89071518851E-02 -0.73697599807E-02  0.33010916272E-01  0.34976725261E-01  0.00000000000E+00 0.  1.
       22    1    1    2    0    0  0.44831358270E-04  0.37579937204E-03 -0.68439505734E-03  0.78206880338E-03  0.00000000000E+00 0.  1.
       22    1    1    2    0    0  0.88623205268E-02  0.69939606087E-02 -0.32326521214E-01  0.34241205936E-01  0.00000000000E+00 0. -1.
</event>
<event>
 5   0  0.4146200E+04  0.9118800E+02  0.7546771E-02  0.1180000E+00
      -11   -1    0    0    0    0  0.00000000000E+00  0.00000000000E+00  0.34996269501E-01  0.35000000000E-01  0.51099999109E-03 0.  1.
       11   -1    0    0    0    0 -0.00000000000E+00 -0.00000000000E+00 -0.34996269501E-01  0.35000000000E-01  0.51099999109E-03 0.  1.
       22    1    1    2    0    0  0.14764434681E-02 -0.11512558577E-02 -0.27356042970E-02  0.33149368371E-02  0.00000000000E+00 0. -1.
       22    1    1    2    0    0 -0.18914656487E-03 -0.28633360594E-03  0.34680368904E-01  0.34682066701E-01  0.00000000000E+00 0.  1.
       22    1    1    2    0    0 -0.12872969032E-02  0.14375894636E-02 -0.31944764607E-01  0.32002996462E-01  0.00000000000E+00 0.  1.
</event>
<event>
 5   0  0.4146200E+04  0.9118800E+02  0.7546771E-02  0.1180000E+00
      -11   -1    0    0    0    0  0.00000000000E+00  0.00000000000E+00  0.34996269501E-01  0.35000000000E-01  0.51099999109E-03 0. -1.
       11   -1    0    0    0    0 -0.00000000000E+00 -0.00000000000E+00 -0.34996269501E-01  0.35000000000E-01  0.51099999109E-03 0.  1.
       22    1    1    2    0    0  0.14553233106E-02  0.28036520800E-02 -0.24336927171E-01  0.24541076893E-01  0.00000000000E+00 0.  1.
       22    1    1    2    0    0 -0.17116810555E-02 -0.73797647303E-02  0.33962875968E-01  0.34797524675E-01  0.00000000000E+00 0. -1.
       22    1    1    2    0    0  0.25635774493E-03  0.45761126503E-02 -0.96259487967E-02  0.10661398432E-01  0.00000000000E+00 0.  1.
</event>
<event>
 5   0  0.4146200E+04  0.9118800E+02  0.7546771E-02  0.1180000E+00
      -11   -1    0    0    0    0  0.00000000000E+00  0.00000000000E+00  0.34996269501E-01  0.35000000000E-01  0.51099999109E-03 0.  1.
       11   -1    0    0    0    0 -0.00000000000E+00 -0.00000000000E+00 -0.34996269501E-01  0.35000000000E-01  0.51099999109E-03 0. -1.
       22    1    1    2    0    0  0.54194584552E-02 -0.14884123885E-01 -0.17023562003E-01  0.23253157571E-01  0.00000000000E+00 0.  1.
       22    1    1    2    0    0 -0.48127097650E-02  0.13908093418E-01  0.30160519793E-01  0.33559710845E-01  0.00000000000E+00 0. -1.
       22    1    1    2    0    0 -0.60674869020E-03  0.97603046694E-03 -0.13136957790E-01  0.13187131584E-01  0.00000000000E+00 0. -1.
</event>
<event>
 5   0  0.4146200E+04  0.9118800E+02  0.7546771E-02  0.1180000E+00
      -11   -1    0    0    0    0  0.00000000000E+00  0.00000000000E+00  0.34996269501E-01  0.35000000000E-01  0.51099999109E-03 0.  1.
       11   -1    0    0    0    0 -0.00000000000E+00 -0.00000000000E+00 -0.34996269501E-01  0.35000000000E-01  0.51099999109E-03 0. -1.
       22    1    1    2    0    0 -0.15778250064E-01  0.15769226662E-01  0.26840939471E-01  0.34900683608E-01  0.00000000000E+00 0.  1.
       22    1    1    2    0    0  0.15574611115E-01 -0.15856539234E-01 -0.25884404283E-01  0.34117454960E-01  0.00000000000E+00 0. -1.
       22    1    1    2    0    0  0.20363894936E-03  0.87312571756E-04 -0.95653518757E-03  0.98186143215E-03  0.00000000000E+00 0.  1.
</event>
<event>
 5   0  0.4146200E+04  0.9118800E+02  0.7546771E-02  0.1180000E+00
      -11   -1    0    0    0    0  0.00000000000E+00  0.00000000000E+00  0.34996269501E-01  0.35000000000E-01  0.51099999109E-03 0. -1.
       11   -1    0    0    0    0 -0.00000000000E+00 -0.00000000000E+00 -0.34996269501E-01  0.35000000000E-01  0.51099999109E-03 0.  1.
       22    1    1    2    0    0 -0.50438021276E-02  0.10051088363E-01  0.32625345663E-01  0.34509092958E-01  0.00000000000E+00 0. -1.
       22    1    1    2    0    0  0.27597484458E-03  0.47768702282E-03 -0.10624866964E-01  0.10639179715E-01  0.00000000000E+00 0. -1.
       22    1    1    2    0    0  0.47678272831E-02 -0.10528775386E-01 -0.22000478699E-01  0.24851727327E-01  0.00000000000E+00 0.  1.
</event>
<event>
 5   0  0.4146200E+04  0.9118800E+02  0.7546771E-02  0.1180000E+00
      -11   -1    0    0    0    0  0.00000000000E+00  0.00000000000E+00  0.34996269501E-01  0.35000000000E-01  0.51099999109E-03 0. -1.
       11   -1    0    0    0    0 -0.00000000000E+00 -0.00000000000E+00 -0.34996269501E-01  0.35000000000E-01  0.51099999109E-03 0.  1.
       22    1    1    2    0    0  0.10711089913E-03  0.10827703985E-03  0.55609639581E-03  0.57657598242E-03  0.00000000000E+00 0. -1.
       22    1    1    2    0    0  0.10004508366E-01 -0.62103585639E-02 -0.32924969569E-01  0.34967304189E-01  0.00000000000E+00 0.  1.
       22    1    1    2    0    0 -0.10111619265E-01  0.61020815241E-02  0.32368873173E-01  0.34456119828E-01  0.00000000000E+00 0. -1.
</event>
<event>
 5   0  0.4146200E+04  0.9118800E+02  0.7546771E-02  0.1180000E+00
      -11   -1    0    0    0    0  0.00000000000E+00  0.00000000000E+00  0.34996269501E-01  0.35000000000E-01  0.51099999109E-03 0. -1.
       11   -1    0    0    0    0 -0.00000000000E+00 -0.00000000000E+00 -0.34996269501E-01  0.35000000000E-01  0.51099999109E-03 0.  1.
       22    1    1    2    0    0 -0.87017374196E-02  0.97778219000E-02 -0.32339019150E-01  0.34887507718E-01  0.00000000000E+00 0.  1.
       22    1    1    2    0    0  0.14317770481E-03 -0.19880863938E-03  0.38917845559E-02  0.38994886537E-02  0.00000000000E+00 0. -1.
       22    1    1    2    0    0  0.85585597147E-02 -0.95790132606E-02  0.28447234594E-01  0.31213003628E-01  0.00000000000E+00 0. -1.
</event>
<event>
 5   0  0.4146200E+04  0.9118800E+02  0.7546771E-02  0.1180000E+00
      -11   -1    0    0    0    0  0.00000000000E+00  0.00000000000E+00  0.34996269501E-01  0.35000000000E-01  0.51099999109E-03 0. -1.
       11   -1    0    0    0    0 -0.00000000000E+00 -0.00000000000E+00 -0.34996269501E-01  0.35000000000E-01  0.51099999109E-03 0.  1.
       22    1    1    2    0    0  0.11397284433E-01  0.16008243849E-03  0.32809522028E-01  0.34733103151E-01  0.00000000000E+00 0. -1.
       22    1    1    2    0    0 -0.11661414269E-03 -0.10254810727E-03 -0.81289896776E-02  0.81304728122E-02  0.00000000000E+00 0.  1.
       22    1    1    2    0    0 -0.11280670290E-01 -0.57534331224E-04 -0.24680532350E-01  0.27136424036E-01  0.00000000000E+00 0.  1.
</event>
<event>
 5   0  0.4146200E+04  0.9118800E+02  0.7546771E-02  0.1180000E+00
      -11   -1    0    0    0    0  0.00000000000E+00  0.00000000000E+00  0.34996269501E-01  0.35000000000E-01  0.51099999109E-03 0.  1.
       11   -1    0    0    0    0 -0.00000000000E+00 -0.00000000000E+00 -0.34996269501E-01  0.35000000000E-01  0.51099999109E-03 0. -1.
       22    1    1    2    0    0 -0.36338951577E-04  0.91673446022E-06  0.81999625337E-03  0.82080156880E-03  0.00000000000E+00 0.  1.
       22    1    1    2    0    0  0.10948405126E-01  0.92876027552E-02 -0.31885023577E-01  0.34968298046E-01  0.00000000000E+00 0. -1.
       22    1    1    2    0    0 -0.10912066175E-01 -0.92885194897E-02  0.31065027324E-01  0.34210900385E-01  0.00000000000E+00 0.  1.
</event>
<event>
 5   0  0.4146200E+04  0.9118800E+02  0.7546771E-02  0.1180000E+00
      -11   -1    0    0    0    0  0.00000000000E+00  0.00000000000E+00  0.34996269501E-01  0.35000000000E-01  0.51099999109E-03 0. -1.
       11   -1    0    0    0    0 -0.00000000000E+00 -0.00000000000E+00 -0.34996269501E-01  0.35000000000E-01  0.51099999109E-03 0.  1.
       22    1    1    2    0    0 -0.17073834282E-01  0.24682483076E-02 -0.23829570043E-01  0.29418641628E-01  0.00000000000E+00 0.  1.
       22    1    1    2    0    0  0.16292112793E-01 -0.23818161210E-02  0.30074683921E-01  0.34286915875E-01  0.00000000000E+00 0. -1.
       22    1    1    2    0    0  0.78172148891E-03 -0.86432186550E-04 -0.62451138773E-02  0.62944424971E-02  0.00000000000E+00 0. -1.
</event>
<event>
 5   0  0.4146200E+04  0.9118800E+02  0.7546771E-02  0.1180000E+00
      -11   -1    0    0    0    0  0.00000000000E+00  0.00000000000E+00  0.34996269501E-01  0.35000000000E-01  0.51099999109E-03 0.  1.
       11   -1    0    0    0    0 -0.00000000000E+00 -0.00000000000E+00 -0.34996269501E-01  0.35000000000E-01  0.51099999109E-03 0. -1.
       22    1    1    2    0    0 -0.49676386076E-02 -0.13729619797E-01 -0.30960766335E-01  0.34230818646E-01  0.00000000000E+00 0. -1.
       22    1    1    2    0    0 -0.23912678992E-03 -0.17436493578E-03  0.10421429466E-01  0.10425630766E-01  0.00000000000E+00 0. -1.
       22    1    1    2    0    0  0.52067653975E-02  0.13903984733E-01  0.20539336869E-01  0.25343550587E-01  0.00000000000E+00 0.  1.
</event>
<event>
 5   0  0.4146200E+04  0.9118800E+02  0.7546771E-02  0.1180000E+00
      -11   -1    0    0    0    0  0.00000000000E+00  0.00000000000E+00  0.34996269501E-01  0.35000000000E-01  0.51099999109E-03 0. -1.
       11   -1    0    0    0    0 -0.00000000000E+00 -0.00000000000E+00 -0.34996269501E-01  0.35000000000E-01  0.51099999109E-03 0. -1.
       22    1    1    2    0    0 -0.22785263434E-02 -0.99189825757E-03  0.34577267135E-01  0.34666452760E-01  0.00000000000E+00 0. -1.
       22    1    1    2    0    0  0.31661330292E-02  0.15427746036E-02 -0.80624863856E-02  0.87981951873E-02  0.00000000000E+00 0.  1.
       22    1    1    2    0    0 -0.88760668576E-03 -0.55087634606E-03 -0.26514780749E-01  0.26535352053E-01  0.00000000000E+00 0. -1.
</event>
<event>
 5   0  0.4146200E+04  0.9118800E+02  0.7546771E-02  0.1180000E+00
      -11   -1    0    0    0    0  0.00000000000E+00  0.00000000000E+00  0.34996269501E-01  0.35000000000E-01  0.51099999109E-03 0.  1.
       11   -1    0    0    0    0 -0.00000000000E+00 -0.00000000000E+00 -0.34996269501E-01  0.35000000000E-01  0.51099999109E-03 0. -1.
       22    1    1    2    0    0 -0.15528859359E-01 -0.14865410682E-01  0.27125959395E-01  0.34611321570E-01  0.00000000000E+00 0. -1.
       22    1    1    2    0    0  0.15357534440E-01  0.14841462690E-01 -0.27591835151E-01  0.34891721738E-01  0.00000000000E+00 0.  1.
       22    1    1    2    0    0  0.17132491841E-03  0.23947992407E-04  0.46587575526E-03  0.49695669162E-03  0.00000000000E+00 0. -1.
</event>
<event>
 5   0  0.4146200E+04  0.9118800E+02  0.7546771E-02  0.1180000E+00
      -11   -1    0    0    0    0  0.00000000000E+00  0.00000000000E+00  0.34996269501E-01  0.35000000000E-01  0.51099999109E-03 0.  1.
       11   -1    0    0    0    0 -0.00000000000E+00 -0.00000000000E+00 -0.34996269501E-01  0.35000000000E-01  0.51099999109E-03 0. -1.
       22    1    1    2    0    0 -0.38109384059E-02 -0.29141667103E-02  0.20213617510E-02  0.52059122618E-02  0.00000000000E+00 0.  1.
       22    1    1    2    0    0  0.18418373436E-01  0.67632305060E-02 -0.28327598807E-01  0.34459115210E-01  0.00000000000E+00 0. -1.
       22    1    1    2    0    0 -0.14607435030E-01 -0.38490637957E-02  0.26306237056E-01  0.30334972528E-01  0.00000000000E+00 0.  1.
</event>
<event>
 5   0  0.4146200E+04  0.9118800E+02  0.7546771E-02  0.1180000E+00
      -11   -1    0    0    0    0  0.00000000000E+00  0.00000000000E+00  0.34996269501E-01  0.35000000000E-01  0.51099999109E-03 0. -1.
       11   -1    0    0    0    0 -0.00000000000E+00 -0.00000000000E+00 -0.34996269501E-01  0.35000000000E-01  0.51099999109E-03 0.  1.
       22    1    1    2    0    0 -0.50933638233E-02  0.38763947378E-02  0.34367965474E-01  0.34958916488E-01  0.00000000000E+00 0. -1.
       22    1    1    2    0    0 -0.20782935629E-03 -0.10292444665E-03 -0.46864777917E-03  0.52289312863E-03  0.00000000000E+00 0.  1.
       22    1    1    2    0    0  0.53011931795E-02 -0.37734702911E-02 -0.33899317695E-01  0.34518190383E-01  0.00000000000E+00 0.  1.
</event>
<event>
 5   0  0.4146200E+04  0.9118800E+02  0.7546771E-02  0.1180000E+00
      -11   -1    0    0    0    0  0.00000000000E+00  0.00000000000E+00  0.34996269501E-01  0.35000000000E-01  0.51099999109E-03 0.  1.
       11   -1    0    0    0    0 -0.00000000000E+00 -0.00000000000E+00 -0.34996269501E-01  0.35000000000E-01  0.51099999109E-03 0. -1.
       22    1    1    2    0    0  0.91147151096E-03 -0.13102093070E-01 -0.27148470770E-01  0.30158499436E-01  0.00000000000E+00 0. -1.
       22    1    1    2    0    0  0.21167810010E-02 -0.55315048736E-02  0.17831718674E-01  0.18789584850E-01  0.00000000000E+00 0. -1.
       22    1    1    2    0    0 -0.30282525119E-02  0.18633597943E-01  0.93167520957E-02  0.21051915713E-01  0.00000000000E+00 0.  1.
</event>
<event>
 5   0  0.4146200E+04  0.9118800E+02  0.7546771E-02  0.1180000E+00
      -11   -1    0    0    0    0  0.00000000000E+00  0.00000000000E+00  0.34996269501E-01  0.35000000000E-01  0.51099999109E-03 0.  1.
       11   -1    0    0    0    0 -0.00000000000E+00 -0.00000000000E+00 -0.34996269501E-01  0.35000000000E-01  0.51099999109E-03 0. -1.
       22    1    1    2    0    0  0.48611303131E-02 -0.72583891571E-03 -0.14183872076E-01  0.15011317635E-01  0.00000000000E+00 0.  1.
       22    1    1    2    0    0 -0.75786636291E-02 -0.10667031032E-01 -0.17130061644E-01  0.21555990012E-01  0.00000000000E+00 0. -1.
       22    1    1    2    0    0  0.27175333160E-02  0.11392869947E-01  0.31313933721E-01  0.33432692354E-01  0.00000000000E+00 0.  1.
</event>
<event>
 5   0  0.4146200E+04  0.9118800E+02  0.7546771E-02  0.1180000E+00
      -11   -1    0    0    0    0  0.00000000000E+00  0.00000000000E+00  0.34996269501E-01  0.35000000000E-01  0.51099999109E-03 0.  1.
       11   -1    0    0    0    0 -0.00000000000E+00 -0.00000000000E+00 -0.34996269501E-01  0.35000000000E-01  0.51099999109E-03 0. -1.
       22    1    1    2    0    0  0.17213230614E-01 -0.16024609847E-01 -0.25646671669E-01  0.34797057298E-01  0.00000000000E+00 0. -1.
       22    1    1    2    0    0 -0.17320076912E-01  0.16315584189E-01  0.25193931367E-01  0.34654257016E-01  0.00000000000E+00 0.  1.
       22    1    1    2    0    0  0.10684629828E-03 -0.29097434181E-03  0.45274030294E-03  0.54868568502E-03  0.00000000000E+00 0. -1.
</event>
<event>
 5   0  0.4146200E+04  0.9118800E+02  0.7546771E-02  0.1180000E+00
      -11   -1    0    0    0    0  0.00000000000E+00  0.00000000000E+00  0.34996269501E-01  0.35000000000E-01  0.51099999109E-03 0. -1.
       11   -1    0    0    0    0 -0.00000000000E+00 -0.00000000000E+00 -0.34996269501E-01  0.35000000000E-01  0.51099999109E-03 0.  1.
       22    1    1    2    0    0  0.13437712123E-02  0.24263840209E-03 -0.10413057518E-01  0.10502207450E-01  0.00000000000E+00 0.  1.
       22    1    1    2    0    0  0.11283403725E-01  0.24881025511E-02  0.32176780395E-01  0.34188463705E-01  0.00000000000E+00 0. -1.
       22    1    1    2    0    0 -0.12627174938E-01 -0.27307409532E-02 -0.21763722877E-01  0.25309328844E-01  0.00000000000E+00 0.  1.
</event>
<event>
 5   0  0.4146200E+04  0.9118800E+02  0.7546771E-02  0.1180000E+00
      -11   -1    0    0    0    0  0.00000000000E+00  0.00000000000E+00  0.34996269501E-01  0.35000000000E-01  0.51099999109E-03 0. -1.
       11   -1    0    0    0    0 -0.00000000000E+00 -0.00000000000E+00 -0.34996269501E-01  0.35000000000E-01  0.51099999109E-03 0.  1.
       22    1    1    2    0    0 -0.54733623395E-03  0.12577891670E-02 -0.26785202134E-02  0.30093323304E-02  0.00000000000E+00 0.  1.
       22    1    1    2    0    0  0.17134799372E-01 -0.13513197414E-01  0.27250155686E-01  0.34911013144E-01  0.00000000000E+00 0. -1.
       22    1    1    2    0    0 -0.16587463138E-01  0.12255408247E-01 -0.24571635472E-01  0.32079654525E-01  0.00000000000E+00 0.  1.
</event>
<event>
 5   0  0.4146200E+04  0.9118800E+02  0.7546771E-02  0.1180000E+00
      -11   -1    0    0    0    0  0.00000000000E+00  0.00000000000E+00  0.34996269501E-01  0.35000000000E-01  0.51099999109E-03 0. -1.
       11   -1    0    0    0    0 -0.00000000000E+00 -0.00000000000E+00 -0.34996269501E-01  0.35000000000E-01  0.51099999109E-03 0.  1.
       22    1    1    2    0    0 -0.98305194889E-02 -0.18871065332E-01  0.27205292791E-01  0.34538155365E-01  0.00000000000E+00 0. -1.
       22    1    1    2    0    0  0.98273873395E-02  0.18865742485E-01 -0.27723252579E-01  0.34943848028E-01  0.00000000000E+00 0.  1.
       22    1    1    2    0    0  0.31321493670E-05  0.53228469743E-05  0.51795978781E-03  0.51799660698E-03  0.00000000000E+00 0.  1.
</event>
<event>
 5   0  0.4146200E+04  0.9118800E+02  0.7546771E-02  0.1180000E+00
      -11   -1    0    0    0    0  0.00000000000E+00  0.00000000000E+00  0.34996269501E-01  0.35000000000E-01  0.51099999109E-03 0. -1.
       11   -1    0    0    0    0 -0.00000000000E+00 -0.00000000000E+00 -0.34996269501E-01  0.35000000000E-01  0.51099999109E-03 0.  1.
       22    1    1    2    0    0 -0.58415370037E-02  0.18875912568E-01  0.26709248918E-01  0.33223600160E-01  0.00000000000E+00 0. -1.
       22    1    1    2    0    0 -0.62138838971E-04 -0.47650652116E-04  0.19662259458E-02  0.19677846147E-02  0.00000000000E+00 0.  1.
       22    1    1    2    0    0  0.59036758427E-02 -0.18828261916E-01 -0.28675474864E-01  0.34808615225E-01  0.00000000000E+00 0.  1.
</event>
<event>
 5   0  0.4146200E+04  0.9118800E+02  0.7546771E-02  0.1180000E+00
      -11   -1    0    0    0    0  0.00000000000E+00  0.00000000000E+00  0.34996269501E-01  0.35000000000E-01  0.51099999109E-03 0. -1.
       11   -1    0    0    0    0 -0.00000000000E+00 -0.00000000000E+00 -0.34996269501E-01  0.35000000000E-01  0.51099999109E-03 0.  1.
       22    1    1    2    0    0  0.12152401082E-02 -0.19302309782E-01  0.28188458517E-01  0.34185452535E-01  0.00000000000E+00 0. -1.
       22    1    1    2    0    0 -0.13506834048E-02  0.19292547829E-01 -0.29073907379E-01  0.34918746221E-01  0.00000000000E+00 0.  1.
       22    1    1    2    0    0  0.13544329661E-03  0.97619536208E-05  0.88544886208E-03  0.89580124453E-03  0.00000000000E+00 0.  1.
</event>
<event>
 5   0  0.4146200E+04  0.9118800E+02  0.7546771E-02  0.1180000E+00
      -11   -1    0    0    0    0  0.00000000000E+00  0.00000000000E+00  0.34996269501E-01  0.35000000000E-01  0.51099999109E-03 0. -1.
       11   -1    0    0    0    0 -0.00000000000E+00 -0.00000000000E+00 -0.34996269501E-01  0.35000000000E-01  0.51099999109E-03 0.  1.
       22    1    1    2    0    0  0.74299693234E-02  0.64071370065E-02 -0.28245767814E-01  0.29901157974E-01  0.00000000000E+00 0.  1.
       22    1    1    2    0    0 -0.62291458807E-02 -0.58173039446E-02 -0.28403694013E-02  0.89839290916E-02  0.00000000000E+00 0. -1.
       22    1    1    2    0    0 -0.12008234427E-02 -0.58983306196E-03  0.31086137215E-01  0.31114912935E-01  0.00000000000E+00 0. -1.
</event>
<event>
 5   0  0.4146200E+04  0.9118800E+02  0.7546771E-02  0.1180000E+00
      -11   -1    0    0    0    0  0.00000000000E+00  0.00000000000E+00  0.34996269501E-01  0.35000000000E-01  0.51099999109E-03 0. -1.
       11   -1    0    0    0    0 -0.00000000000E+00 -0.00000000000E+00 -0.34996269501E-01  0.35000000000E-01  0.51099999109E-03 0.  1.
       22    1    1    2    0    0  0.63527886285E-02 -0.57453520455E-02 -0.20950987583E-01  0.22634285370E-01  0.00000000000E+00 0.  1.
       22    1    1    2    0    0 -0.99006265604E-02  0.85046206059E-02 -0.97789355991E-02  0.16308849113E-01  0.00000000000E+00 0. -1.
       22    1    1    2    0    0  0.35478379319E-02 -0.27592685604E-02  0.30729923182E-01  0.31056865517E-01  0.00000000000E+00 0. -1.
</event>
<event>
 5   0  0.4146200E+04  0.9118800E+02  0.7546771E-02  0.1180000E+00
      -11   -1    0    0    0    0  0.00000000000E+00  0.00000000000E+00  0.34996269501E-01  0.35000000000E-01  0.51099999109E-03 0. -1.
       11   -1    0    0    0    0 -0.00000000000E+00 -0.00000000000E+00 -0.34996269501E-01  0.35000000000E-01  0.51099999109E-03 0.  1.
       22    1    1    2    0    0  0.16659399275E-01  0.45659311523E-02  0.30162676990E-01  0.34758745586E-01  0.00000000000E+00 0. -1.
       22    1    1    2    0    0 -0.16929928058E-01 -0.39405932566E-02 -0.27842422209E-01  0.32823028711E-01  0.00000000000E+00 0.  1.
       22    1    1    2    0    0  0.27052878264E-03 -0.62533789566E-03 -0.23202547805E-02  0.24182257034E-02  0.00000000000E+00 0.  1.
</event>
<event>
 5   0  0.4146200E+04  0.9118800E+02  0.7546771E-02  0.1180000E+00
      -11   -1    0    0    0    0  0.00000000000E+00  0.00000000000E+00  0.34996269501E-01  0.35000000000E-01  0.51099999109E-03 0.  1.
       11   -1    0    0    0    0 -0.00000000000E+00 -0.00000000000E+00 -0.34996269501E-01  0.35000000000E-01  0.51099999109E-03 0. -1.
       22    1    1    2    0    0 -0.23715433692E-01 -0.24328936671E-01 -0.77741140523E-02  0.34853347100E-01  0.00000000000E+00 0.  1.
       22    1    1    2    0    0  0.23558969913E-01  0.24385191460E-01  0.80271239340E-02  0.34843899675E-01  0.00000000000E+00 0. -1.
       22    1    1    2    0    0  0.15646377894E-03 -0.56254788517E-04 -0.25300988168E-03  0.30275322555E-03  0.00000000000E+00 0.  1.
</event>
<event>
 5   0  0.4146200E+04  0.9118800E+02  0.7546771E-02  0.1180000E+00
      -11   -1    0    0    0    0  0.00000000000E+00  0.00000000000E+00  0.34996269501E-01  0.35000000000E-01  0.51099999109E-03 0. -1.
       11   -1    0    0    0    0 -0.00000000000E+00 -0.00000000000E+00 -0.34996269501E-01  0.35000000000E-01  0.51099999109E-03 0.  1.
       22    1    1    2    0    0 -0.62809617506E-04 -0.29138833893E-04  0.93033512227E-03  0.93290811950E-03  0.00000000000E+00 0.  1.
       22    1    1    2    0    0  0.14632562149E-01  0.14193238164E-01  0.27431908898E-01  0.34177031913E-01  0.00000000000E+00 0. -1.
       22    1    1    2    0    0 -0.14569752532E-01 -0.14164099330E-01 -0.28362244020E-01  0.34890059967E-01  0.00000000000E+00 0.  1.
</event>
<event>
 5   0  0.4146200E+04  0.9118800E+02  0.7546771E-02  0.1180000E+00
      -11   -1    0    0    0    0  0.00000000000E+00  0.00000000000E+00  0.34996269501E-01  0.35000000000E-01  0.51099999109E-03 0.  1.
       11   -1    0    0    0    0 -0.00000000000E+00 -0.00000000000E+00 -0.34996269501E-01  0.35000000000E-01  0.51099999109E-03 0. -1.
       22    1    1    2    0    0 -0.33525104018E-03 -0.80067914733E-03  0.34970839183E-01  0.34981610505E-01  0.00000000000E+00 0.  1.
       22    1    1    2    0    0  0.19320426969E-03  0.74623028139E-03 -0.34693549998E-01  0.34702112313E-01  0.00000000000E+00 0. -1.
       22    1    1    2    0    0  0.14204677049E-03  0.54448865941E-04 -0.27728918476E-03  0.31627718222E-03  0.00000000000E+00 0. -1.
</event>
<event>
 5   0  0.4146200E+04  0.9118800E+02  0.7546771E-02  0.1180000E+00
      -11   -1    0    0    0    0  0.00000000000E+00  0.00000000000E+00  0.34996269501E-01  0.35000000000E-01  0.51099999109E-03 0. -1.
       11   -1    0    0    0    0 -0.00000000000E+00 -0.00000000000E+00 -0.34996269501E-01  0.35000000000E-01  0.51099999109E-03 0.  1.
       22    1    1    2    0    0  0.54070619673E-02 -0.26422258196E-02 -0.26854961642E-01  0.27521021805E-01  0.00000000000E+00 0.  1.
       22    1    1    2    0    0 -0.31104457723E-02 -0.67439768967E-03  0.34066987583E-01  0.34215337616E-01  0.00000000000E+00 0. -1.
       22    1    1    2    0    0 -0.22966161950E-02  0.33166235093E-02 -0.72120259413E-02  0.82636405795E-02  0.00000000000E+00 0. -1.
</event>
<event>
 5   0  0.4146200E+04  0.9118800E+02  0.7546771E-02  0.1180000E+00
      -11   -1    0    0    0    0  0.00000000000E+00  0.00000000000E+00  0.34996269501E-01  0.35000000000E-01  0.51099999109E-03 0.  1.
       11   -1    0    0    0    0 -0.00000000000E+00 -0.00000000000E+00 -0.34996269501E-01  0.35000000000E-01  0.51099999109E-03 0.  1.
       22    1    1    2    0    0 -0.22656073623E-04  0.18998743445E-03 -0.34494528757E-01  0.34495059395E-01  0.00000000000E+00 0.  1.
       22    1    1    2    0    0  0.22656073623E-04 -0.18998743445E-03 -0.48886120054E-03  0.52497028136E-03  0.00000000000E+00 0.  1.
       22    1    1    2    0    0  0.00000000000E+00  0.00000000000E+00  0.34983389958E-01  0.34979970323E-01  0.00000000000E+00 0.  1.
</event>
<event>
 5   0  0.4146200E+04  0.9118800E+02  0.7546771E-02  0.1180000E+00
      -11   -1    0    0    0    0  0.00000000000E+00  0.00000000000E+00  0.34996269501E-01  0.35000000000E-01  0.51099999109E-03 0. -1.
       11   -1    0    0    0    0 -0.00000000000E+00 -0.00000000000E+00 -0.34996269501E-01  0.35000000000E-01  0.51099999109E-03 0.  1.
       22    1    1    2    0    0  0.20393159400E-01  0.12016781705E-02 -0.27205381489E-01  0.34021430933E-01  0.00000000000E+00 0.  1.
       22    1    1    2    0    0 -0.19264987305E-01 -0.10260277450E-02  0.28395553004E-01  0.34329286319E-01  0.00000000000E+00 0. -1.
       22    1    1    2    0    0 -0.11281720955E-02 -0.17565042551E-03 -0.11901715145E-02  0.16492827481E-02  0.00000000000E+00 0.  1.
</event>
<event>
 5   0  0.4146200E+04  0.9118800E+02  0.7546771E-02  0.1180000E+00
      -11   -1    0    0    0    0  0.00000000000E+00  0.00000000000E+00  0.34996269501E-01  0.35000000000E-01  0.51099999109E-03 0.  1.
       11   -1    0    0    0    0 -0.00000000000E+00 -0.00000000000E+00 -0.34996269501E-01  0.35000000000E-01  0.51099999109E-03 0. -1.
       22    1    1    2    0    0 -0.23958843974E-03  0.22854541261E-03 -0.52942667835E-03  0.62444233828E-03  0.00000000000E+00 0. -1.
       22    1    1    2    0    0  0.69720651182E-02 -0.25435240210E-01  0.22960925891E-01  0.34968060488E-01  0.00000000000E+00 0.  1.
       22    1    1    2    0    0 -0.67324766785E-02  0.25206694797E-01 -0.22431499213E-01  0.34407497174E-01  0.00000000000E+00 0. -1.
</event>
<event>
 5   0  0.4146200E+04  0.9118800E+02  0.7546771E-02  0.1180000E+00
      -11   -1    0    0    0    0  0.00000000000E+00  0.00000000000E+00  0.34996269501E-01  0.35000000000E-01  0.51099999109E-03 0. -1.
       11   -1    0    0    0    0 -0.00000000000E+00 -0.00000000000E+00 -0.34996269501E-01  0.35000000000E-01  0.51099999109E-03 0.  1.
       22    1    1    2    0    0 -0.88616559879E-05 -0.37864986956E-03  0.13180195659E-01  0.13185636574E-01  0.00000000000E+00 0. -1.
       22    1    1    2    0    0  0.12661047210E-01 -0.18176857980E-01 -0.23327857765E-01  0.32169694285E-01  0.00000000000E+00 0.  1.
       22    1    1    2    0    0 -0.12652185554E-01  0.18555507850E-01  0.10147662105E-01  0.24644669141E-01  0.00000000000E+00 0. -1.
</event>
<event>
 5   0  0.4146200E+04  0.9118800E+02  0.7546771E-02  0.1180000E+00
      -11   -1    0    0    0    0  0.00000000000E+00  0.00000000000E+00  0.34996269501E-01  0.35000000000E-01  0.51099999109E-03 0. -1.
       11   -1    0    0    0    0 -0.00000000000E+00 -0.00000000000E+00 -0.34996269501E-01  0.35000000000E-01  0.51099999109E-03 0.  1.
       22    1    1    2    0    0 -0.71196401137E-02  0.50421600074E-02  0.33588920383E-01  0.34703432473E-01  0.00000000000E+00 0. -1.
       22    1    1    2    0    0 -0.13623018525E-03  0.16866495703E-03 -0.11046949799E-01  0.11049077174E-01  0.00000000000E+00 0. -1.
       22    1    1    2    0    0  0.72558702990E-02 -0.52108249644E-02 -0.22541970585E-01  0.24247490353E-01  0.00000000000E+00 0.  1.
</event>
<event>
 5   0  0.4146200E+04  0.9118800E+02  0.7546771E-02  0.1180000E+00
      -11   -1    0    0    0    0  0.00000000000E+00  0.00000000000E+00  0.34996269501E-01  0.35000000000E-01  0.51099999109E-03 0.  1.
       11   -1    0    0    0    0 -0.00000000000E+00 -0.00000000000E+00 -0.34996269501E-01  0.35000000000E-01  0.51099999109E-03 0. -1.
       22    1    1    2    0    0  0.43727338813E-02  0.56928578782E-02  0.56585940414E-02  0.91405207151E-02  0.00000000000E+00 0. -1.
       22    1    1    2    0    0 -0.14104706823E-01 -0.13472097404E-01  0.22673673572E-01  0.29908788613E-01  0.00000000000E+00 0.  1.
       22    1    1    2    0    0  0.97319729418E-02  0.77792395256E-02 -0.28332267614E-01  0.30950690672E-01  0.00000000000E+00 0. -1.
</event>
<event>
 5   0  0.4146200E+04  0.9118800E+02  0.7546771E-02  0.1180000E+00
      -11   -1    0    0    0    0  0.00000000000E+00  0.00000000000E+00  0.34996269501E-01  0.35000000000E-01  0.51099999109E-03 0.  1.
       11   -1    0    0    0    0 -0.00000000000E+00 -0.00000000000E+00 -0.34996269501E-01  0.35000000000E-01  0.51099999109E-03 0. -1.
       22    1    1    2    0    0  0.35539329928E-02 -0.22933278810E-01  0.25340677211E-01  0.34361543013E-01  0.00000000000E+00 0.  1.
       22    1    1    2    0    0 -0.15031371554E-03 -0.17210942547E-03  0.65428927077E-03  0.69304423903E-03  0.00000000000E+00 0.  1.
       22    1    1    2    0    0 -0.34036192773E-02  0.23105388236E-01 -0.25994966482E-01  0.34945412748E-01  0.00000000000E+00 0. -1.
</event>
<event>
 5   0  0.4146200E+04  0.9118800E+02  0.7546771E-02  0.1180000E+00
      -11   -1    0    0    0    0  0.00000000000E+00  0.00000000000E+00  0.34996269501E-01  0.35000000000E-01  0.51099999109E-03 0.  1.
       11   -1    0    0    0    0 -0.00000000000E+00 -0.00000000000E+00 -0.34996269501E-01  0.35000000000E-01  0.51099999109E-03 0. -1.
       22    1    1    2    0    0 -0.50223349022E-02  0.10396251934E-02  0.34188203733E-01  0.34570767173E-01  0.00000000000E+00 0.  1.
       22    1    1    2    0    0 -0.64439764797E-03  0.17424771417E-02 -0.24798359057E-02  0.30985578964E-02  0.00000000000E+00 0. -1.
       22    1    1    2    0    0  0.56667325502E-02 -0.27821023351E-02 -0.31708367828E-01  0.32330674931E-01  0.00000000000E+00 0. -1.
</event>
<event>
 5   0  0.4146200E+04  0.9118800E+02  0.7546771E-02  0.1180000E+00
      -11   -1    0    0    0    0  0.00000000000E+00  0.00000000000E+00  0.34996269501E-01  0.35000000000E-01  0.51099999109E-03 0. -1.
       11   -1    0    0    0    0 -0.00000000000E+00 -0.00000000000E+00 -0.34996269501E-01  0.35000000000E-01  0.51099999109E-03 0.  1.
       22    1    1    2    0    0 -0.27113583080E-03  0.16160377195E-03  0.36548566491E-03  0.48291840833E-03  0.00000000000E+00 0.  1.
       22    1    1    2    0    0  0.12239080007E-01 -0.13979676182E-03  0.32399687032E-01  0.34634583040E-01  0.00000000000E+00 0. -1.
       22    1    1    2    0    0 -0.11967944177E-01 -0.21807010131E-04 -0.32765172697E-01  0.34882498552E-01  0.00000000000E+00 0.  1.
</event>
<event>
 5   0  0.4146200E+04  0.9118800E+02  0.7546771E-02  0.1180000E+00
      -11   -1    0    0    0    0  0.00000000000E+00  0.00000000000E+00  0.34996269501E-01  0.35000000000E-01  0.51099999109E-03 0.  1.
       11   -1    0    0    0    0 -0.00000000000E+00 -0.00000000000E+00 -0.34996269501E-01  0.35000000000E-01  0.51099999109E-03 0. -1.
       22    1    1    2    0    0  0.88071267783E-03 -0.82181432822E-03 -0.21923984101E-02  0.25015284127E-02  0.00000000000E+00 0. -1.
       22    1    1    2    0    0 -0.73476742436E-03 -0.53431517293E-03  0.34825264699E-01  0.34837112929E-01  0.00000000000E+00 0.  1.
       22    1    1    2    0    0 -0.14594525346E-03  0.13561295012E-02 -0.32632866288E-01  0.32661358659E-01  0.00000000000E+00 0. -1.
</event>
<event>
 5   0  0.4146200E+04  0.9118800E+02  0.7546771E-02  0.1180000E+00
      -11   -1    0    0    0    0  0.00000000000E+00  0.00000000000E+00  0.34996269501E-01  0.35000000000E-01  0.51099999109E-03 0.  1.
       11   -1    0    0    0    0 -0.00000000000E+00 -0.00000000000E+00 -0.34996269501E-01  0.35000000000E-01  0.51099999109E-03 0. -1.
       22    1    1    2    0    0  0.90360305195E-02 -0.17801529473E-01 -0.27191635556E-01  0.33733208317E-01  0.00000000000E+00 0. -1.
       22    1    1    2    0    0  0.20927086423E-03 -0.31548544102E-04 -0.13493015286E-02  0.13657980160E-02  0.00000000000E+00 0.  1.
       22    1    1    2    0    0 -0.92453013838E-02  0.17833078017E-01  0.28540937085E-01  0.34900993667E-01  0.00000000000E+00 0.  1.
</event>
<event>
 5   0  0.4146200E+04  0.9118800E+02  0.7546771E-02  0.1180000E+00
      -11   -1    0    0    0    0  0.00000000000E+00  0.00000000000E+00  0.34996269501E-01  0.35000000000E-01  0.51099999109E-03 0. -1.
       11   -1    0    0    0    0 -0.00000000000E+00 -0.00000000000E+00 -0.34996269501E-01  0.35000000000E-01  0.51099999109E-03 0.  1.
       22    1    1    2    0    0  0.11998779753E-03 -0.76511606192E-04 -0.11835971901E-02  0.11921213889E-02  0.00000000000E+00 0.  1.
       22    1    1    2    0    0 -0.18922597230E-01  0.10382917342E-01  0.27438067499E-01  0.34910130428E-01  0.00000000000E+00 0. -1.
       22    1    1    2    0    0  0.18802609432E-01 -0.10306405735E-01 -0.26254470309E-01  0.33897748183E-01  0.00000000000E+00 0.  1.
</event>
<event>
 5   0  0.4146200E+04  0.9118800E+02  0.7546771E-02  0.1180000E+00
      -11   -1    0    0    0    0  0.00000000000E+00  0.00000000000E+00  0.34996269501E-01  0.35000000000E-01  0.51099999109E-03 0. -1.
       11   -1    0    0    0    0 -0.00000000000E+00 -0.00000000000E+00 -0.34996269501E-01  0.35000000000E-01  0.51099999109E-03 0.  1.
       22    1    1    2    0    0 -0.22186665924E-02 -0.15567420607E-01 -0.29576435024E-01  0.33496754687E-01  0.00000000000E+00 0.  1.
       22    1    1    2    0    0  0.16848758066E-03 -0.67866098010E-03  0.13625526554E-01  0.13643457871E-01  0.00000000000E+00 0. -1.
       22    1    1    2    0    0  0.20501790117E-02  0.16246081587E-01  0.15950908470E-01  0.22859787443E-01  0.00000000000E+00 0. -1.
</event>
<event>
 5   0  0.4146200E+04  0.9118800E+02  0.7546771E-02  0.1180000E+00
      -11   -1    0    0    0    0  0.00000000000E+00  0.00000000000E+00  0.34996269501E-01  0.35000000000E-01  0.51099999109E-03 0.  1.
       11   -1    0    0    0    0 -0.00000000000E+00 -0.00000000000E+00 -0.34996269501E-01  0.35000000000E-01  0.51099999109E-03 0. -1.
       22    1    1    2    0    0  0.12329355569E-02  0.83600209504E-03 -0.17977922718E-02  0.23347562278E-02  0.00000000000E+00 0.  1.
       22    1    1    2    0    0 -0.11670464242E-02 -0.13959792037E-02  0.34705270260E-01  0.34752935690E-01  0.00000000000E+00 0.  1.
       22    1    1    2    0    0 -0.65889132762E-04  0.55997710863E-03 -0.32907477988E-01  0.32912308082E-01  0.00000000000E+00 0. -1.
</event>
<event>
 5   0  0.4146200E+04  0.9118800E+02  0.7546771E-02  0.1180000E+00
      -11   -1    0    0    0    0  0.00000000000E+00  0.00000000000E+00  0.34996269501E-01  0.35000000000E-01  0.51099999109E-03 0. -1.
       11   -1    0    0    0    0 -0.00000000000E+00 -0.00000000000E+00 -0.34996269501E-01  0.35000000000E-01  0.51099999109E-03 0.  1.
       22    1    1    2    0    0  0.20399202218E-03  0.13281303376E-04  0.13580368641E-02  0.13733365438E-02  0.00000000000E+00 0. -1.
       22    1    1    2    0    0 -0.11553159694E-01  0.34162242718E-02  0.31483876058E-01  0.33710243827E-01  0.00000000000E+00 0. -1.
       22    1    1    2    0    0  0.11349167672E-01 -0.34295055752E-02 -0.32841912923E-01  0.34916419630E-01  0.00000000000E+00 0.  1.
</event>
<event>
 5   0  0.4146200E+04  0.9118800E+02  0.7546771E-02  0.1180000E+00
      -11   -1    0    0    0    0  0.00000000000E+00  0.00000000000E+00  0.34996269501E-01  0.35000000000E-01  0.51099999109E-03 0.  1.
       11   -1    0    0    0    0 -0.00000000000E+00 -0.00000000000E+00 -0.34996269501E-01  0.35000000000E-01  0.51099999109E-03 0. -1.
       22    1    1    2    0    0  0.83707111241E-02 -0.20297488531E-01 -0.26835624283E-01  0.34672865126E-01  0.00000000000E+00 0. -1.
       22    1    1    2    0    0 -0.82085096968E-02  0.20129443722E-01  0.23612460931E-01  0.32095520672E-01  0.00000000000E+00 0.  1.
       22    1    1    2    0    0 -0.16220142722E-03  0.16804480888E-03  0.32231633520E-02  0.32316142026E-02  0.00000000000E+00 0.  1.
</event>
<event>
 5   0  0.4146200E+04  0.9118800E+02  0.7546771E-02  0.1180000E+00
      -11   -1    0    0    0    0  0.00000000000E+00  0.00000000000E+00  0.34996269501E-01  0.35000000000E-01  0.51099999109E-03 0.  1.
       11   -1    0    0    0    0 -0.00000000000E+00 -0.00000000000E+00 -0.34996269501E-01  0.35000000000E-01  0.51099999109E-03 0. -1.
       22    1    1    2    0    0 -0.76010225561E-03  0.26749550268E-02 -0.35080996423E-02  0.44765950157E-02  0.00000000000E+00 0.  1.
       22    1    1    2    0    0  0.19551357447E-01  0.25097876645E-01  0.66032180945E-04  0.31814514775E-01  0.00000000000E+00 0.  1.
       22    1    1    2    0    0 -0.18791255191E-01 -0.27772831672E-01  0.34420674613E-02  0.33708890209E-01  0.00000000000E+00 0. -1.
</event>
<event>
 5   0  0.4146200E+04  0.9118800E+02  0.7546771E-02  0.1180000E+00
      -11   -1    0    0    0    0  0.00000000000E+00  0.00000000000E+00  0.34996269501E-01  0.35000000000E-01  0.51099999109E-03 0. -1.
       11   -1    0    0    0    0 -0.00000000000E+00 -0.00000000000E+00 -0.34996269501E-01  0.35000000000E-01  0.51099999109E-03 0.  1.
       22    1    1    2    0    0  0.76659224556E-02 -0.15753820966E-01 -0.29872358410E-01  0.34631012678E-01  0.00000000000E+00 0.  1.
       22    1    1    2    0    0 -0.63197795479E-02  0.16024116654E-01  0.25394666844E-01  0.30685518282E-01  0.00000000000E+00 0. -1.
       22    1    1    2    0    0 -0.13461429077E-02 -0.27029568813E-03  0.44776915662E-02  0.46834690400E-02  0.00000000000E+00 0. -1.
</event>
<event>
 5   0  0.4146200E+04  0.9118800E+02  0.7546771E-02  0.1180000E+00
      -11   -1    0    0    0    0  0.00000000000E+00  0.00000000000E+00  0.34996269501E-01  0.35000000000E-01  0.51099999109E-03 0. -1.
       11   -1    0    0    0    0 -0.00000000000E+00 -0.00000000000E+00 -0.34996269501E-01  0.35000000000E-01  0.51099999109E-03 0.  1.
       22    1    1    2    0    0 -0.21733691317E-01 -0.40062389083E-02 -0.12206502982E-01  0.25246821652E-01  0.00000000000E+00 0.  1.
       22    1    1    2    0    0  0.20543904300E-01 -0.30209728362E-03  0.24322479392E-01  0.31839068304E-01  0.00000000000E+00 0. -1.
       22    1    1    2    0    0  0.11897870168E-02  0.43083361920E-02 -0.12115976410E-01  0.12914110045E-01  0.00000000000E+00 0. -1.
</event>
<event>
 5   0  0.4146200E+04  0.9118800E+02  0.7546771E-02  0.1180000E+00
      -11   -1    0    0    0    0  0.00000000000E+00  0.00000000000E+00  0.34996269501E-01  0.35000000000E-01  0.51099999109E-03 0.  1.
       11   -1    0    0    0    0 -0.00000000000E+00 -0.00000000000E+00 -0.34996269501E-01  0.35000000000E-01  0.51099999109E-03 0. -1.
       22    1    1    2    0    0  0.17230076399E-03 -0.13460388675E-03  0.28003163448E-03  0.35527943355E-03  0.00000000000E+00 0.  1.
       22    1    1    2    0    0  0.77198776430E-02  0.12148378835E-01 -0.31852726719E-01  0.34953909918E-01  0.00000000000E+00 0. -1.
       22    1    1    2    0    0 -0.78921784070E-02 -0.12013774948E-01  0.31572695085E-01  0.34690810648E-01  0.00000000000E+00 0.  1.
</event>
<event>
 5   0  0.4146200E+04  0.9118800E+02  0.7546771E-02  0.1180000E+00
      -11   -1    0    0    0    0  0.00000000000E+00  0.00000000000E+00  0.34996269501E-01  0.35000000000E-01  0.51099999109E-03 0. -1.
       11   -1    0    0    0    0 -0.00000000000E+00 -0.00000000000E+00 -0.34996269501E-01  0.35000000000E-01  0.51099999109E-03 0.  1.
       22    1    1    2    0    0  0.10868094261E-01 -0.72925591081E-02 -0.31893539266E-01  0.34474552037E-01  0.00000000000E+00 0.  1.
       22    1    1    2    0    0 -0.12083789434E-01  0.61077997220E-02  0.25055307412E-01  0.28479670189E-01  0.00000000000E+00 0. -1.
       22    1    1    2    0    0  0.12156951730E-02  0.11847593860E-02  0.68382318539E-02  0.70457777742E-02  0.00000000000E+00 0.  1.
</event>
<event>
 5   0  0.4146200E+04  0.9118800E+02  0.7546771E-02  0.1180000E+00
      -11   -1    0    0    0    0  0.00000000000E+00  0.00000000000E+00  0.34996269501E-01  0.35000000000E-01  0.51099999109E-03 0.  1.
       11   -1    0    0    0    0 -0.00000000000E+00 -0.00000000000E+00 -0.34996269501E-01  0.35000000000E-01  0.51099999109E-03 0. -1.
       22    1    1    2    0    0  0.75408508244E-02 -0.77276395744E-02  0.76268438727E-03  0.10824164264E-01  0.00000000000E+00 0.  1.
       22    1    1    2    0    0  0.11816648300E-01  0.10590157060E-01  0.23281920822E-01  0.28175032223E-01  0.00000000000E+00 0.  1.
       22    1    1    2    0    0 -0.19357499125E-01 -0.28625174859E-02 -0.24044605210E-01  0.31000803512E-01  0.00000000000E+00 0. -1.
</event>
<event>
 5   0  0.4146200E+04  0.9118800E+02  0.7546771E-02  0.1180000E+00
      -11   -1    0    0    0    0  0.00000000000E+00  0.00000000000E+00  0.34996269501E-01  0.35000000000E-01  0.51099999109E-03 0.  1.
       11   -1    0    0    0    0 -0.00000000000E+00 -0.00000000000E+00 -0.34996269501E-01  0.35000000000E-01  0.51099999109E-03 0.  1.
       22    1    1    2    0    0  0.24180338669E-04 -0.63364476680E-03 -0.11546319107E-02  0.13172946627E-02  0.00000000000E+00 0. -1.
       22    1    1    2    0    0  0.10610393364E-02  0.39422494619E-02  0.34708938195E-01  0.34948212056E-01  0.00000000000E+00 0.  1.
       22    1    1    2    0    0 -0.10852196751E-02 -0.33086046951E-02 -0.33554306284E-01  0.33734493282E-01  0.00000000000E+00 0.  1.
</event>
<event>
 5   0  0.4146200E+04  0.9118800E+02  0.7546771E-02  0.1180000E+00
      -11   -1    0    0    0    0  0.00000000000E+00  0.00000000000E+00  0.34996269501E-01  0.35000000000E-01  0.51099999109E-03 0. -1.
       11   -1    0    0    0    0 -0.00000000000E+00 -0.00000000000E+00 -0.34996269501E-01  0.35000000000E-01  0.51099999109E-03 0.  1.
       22    1    1    2    0    0  0.18841535485E-03 -0.12918515196E-02 -0.23174756604E-02  0.26599011506E-02  0.00000000000E+00 0. -1.
       22    1    1    2    0    0  0.11799010626E-02  0.18101237992E-01  0.29922216295E-01  0.34991227634E-01  0.00000000000E+00 0. -1.
       22    1    1    2    0    0 -0.13683164175E-02 -0.16809386473E-01 -0.27604740634E-01  0.32348871215E-01  0.00000000000E+00 0.  1.
</event>
<event>
 5   0  0.4146200E+04  0.9118800E+02  0.7546771E-02  0.1180000E+00
      -11   -1    0    0    0    0  0.00000000000E+00  0.00000000000E+00  0.34996269501E-01  0.35000000000E-01  0.51099999109E-03 0. -1.
       11   -1    0    0    0    0 -0.00000000000E+00 -0.00000000000E+00 -0.34996269501E-01  0.35000000000E-01  0.51099999109E-03 0.  1.
       22    1    1    2    0    0  0.96530093567E-02 -0.88545271670E-02 -0.19756842985E-01  0.23704769261E-01  0.00000000000E+00 0.  1.
       22    1    1    2    0    0 -0.87220218476E-02  0.80929190429E-02  0.31923771259E-01  0.34068991402E-01  0.00000000000E+00 0. -1.
       22    1    1    2    0    0 -0.93098750915E-03  0.76160812404E-03 -0.12166928275E-01  0.12226239337E-01  0.00000000000E+00 0.  1.
</event>
<event>
 5   0  0.4146200E+04  0.9118800E+02  0.7546771E-02  0.1180000E+00
      -11   -1    0    0    0    0  0.00000000000E+00  0.00000000000E+00  0.34996269501E-01  0.35000000000E-01  0.51099999109E-03 0.  1.
       11   -1    0    0    0    0 -0.00000000000E+00 -0.00000000000E+00 -0.34996269501E-01  0.35000000000E-01  0.51099999109E-03 0. -1.
       22    1    1    2    0    0 -0.12276060883E-03  0.88137122783E-04 -0.47709403450E-03  0.50045682855E-03  0.00000000000E+00 0. -1.
       22    1    1    2    0    0 -0.97285952834E-02 -0.63078760056E-02 -0.32509887067E-01  0.34515614191E-01  0.00000000000E+00 0. -1.
       22    1    1    2    0    0  0.98513558922E-02  0.62197388828E-02  0.32986981102E-01  0.34983928980E-01  0.00000000000E+00 0.  1.
</event>
<event>
 5   0  0.4146200E+04  0.9118800E+02  0.7546771E-02  0.1180000E+00
      -11   -1    0    0    0    0  0.00000000000E+00  0.00000000000E+00  0.34996269501E-01  0.35000000000E-01  0.51099999109E-03 0. -1.
       11   -1    0    0    0    0 -0.00000000000E+00 -0.00000000000E+00 -0.34996269501E-01  0.35000000000E-01  0.51099999109E-03 0.  1.
       22    1    1    2    0    0 -0.18310026286E-01  0.92979244724E-02 -0.27052953901E-01  0.33964257343E-01  0.00000000000E+00 0.  1.
       22    1    1    2    0    0 -0.45528121986E-04  0.13154991122E-03 -0.11116469740E-02  0.11203290515E-02  0.00000000000E+00 0.  1.
       22    1    1    2    0    0  0.18355554408E-01 -0.94294743837E-02  0.28164600875E-01  0.34915413605E-01  0.00000000000E+00 0. -1.
</event>
<event>
 5   0  0.4146200E+04  0.9118800E+02  0.7546771E-02  0.1180000E+00
      -11   -1    0    0    0    0  0.00000000000E+00  0.00000000000E+00  0.34996269501E-01  0.35000000000E-01  0.51099999109E-03 0.  1.
       11   -1    0    0    0    0 -0.00000000000E+00 -0.00000000000E+00 -0.34996269501E-01  0.35000000000E-01  0.51099999109E-03 0. -1.
       22    1    1    2    0    0  0.72291162310E-02  0.27711297217E-02  0.33893035803E-01  0.34766034536E-01  0.00000000000E+00 0.  1.
       22    1    1    2    0    0 -0.68008133767E-02 -0.13043225412E-02 -0.32270674087E-01  0.33005283303E-01  0.00000000000E+00 0. -1.
       22    1    1    2    0    0 -0.42830285424E-03 -0.14668071806E-02 -0.16223617154E-02  0.22286821612E-02  0.00000000000E+00 0. -1.
</event>
<event>
 5   0  0.4146200E+04  0.9118800E+02  0.7546771E-02  0.1180000E+00
      -11   -1    0    0    0    0  0.00000000000E+00  0.00000000000E+00  0.34996269501E-01  0.35000000000E-01  0.51099999109E-03 0.  1.
       11   -1    0    0    0    0 -0.00000000000E+00 -0.00000000000E+00 -0.34996269501E-01  0.35000000000E-01  0.51099999109E-03 0. -1.
       22    1    1    2    0    0  0.98797205026E-02 -0.89398320896E-02  0.30942218322E-01  0.33689024172E-01  0.00000000000E+00 0.  1.
       22    1    1    2    0    0  0.65712851997E-03  0.73384665815E-02 -0.72727236327E-02  0.10352652737E-01  0.00000000000E+00 0. -1.
       22    1    1    2    0    0 -0.10536849023E-01  0.16013655081E-02 -0.23669494689E-01  0.25958323090E-01  0.00000000000E+00 0. -1.
</event>
<event>
 5   0  0.4146200E+04  0.9118800E+02  0.7546771E-02  0.1180000E+00
      -11   -1    0    0    0    0  0.00000000000E+00  0.00000000000E+00  0.34996269501E-01  0.35000000000E-01  0.51099999109E-03 0.  1.
       11   -1    0    0    0    0 -0.00000000000E+00 -0.00000000000E+00 -0.34996269501E-01  0.35000000000E-01  0.51099999109E-03 0. -1.
       22    1    1    2    0    0  0.16253525955E-01  0.78454302152E-02  0.29778611222E-01  0.34820878329E-01  0.00000000000E+00 0.  1.
       22    1    1    2    0    0 -0.12289537721E-03 -0.14422953849E-03 -0.28602816601E-02  0.28665513441E-02  0.00000000000E+00 0. -1.
       22    1    1    2    0    0 -0.16130630578E-01 -0.77012006767E-02 -0.26918329562E-01  0.32312570327E-01  0.00000000000E+00 0. -1.
</event>
<event>
 5   0  0.4146200E+04  0.9118800E+02  0.7546771E-02  0.1180000E+00
      -11   -1    0    0    0    0  0.00000000000E+00  0.00000000000E+00  0.34996269501E-01  0.35000000000E-01  0.51099999109E-03 0.  1.
       11   -1    0    0    0    0 -0.00000000000E+00 -0.00000000000E+00 -0.34996269501E-01  0.35000000000E-01  0.51099999109E-03 0. -1.
       22    1    1    2    0    0 -0.24862969349E-02  0.63645411616E-02 -0.33787268939E-01  0.34471272083E-01  0.00000000000E+00 0. -1.
       22    1    1    2    0    0  0.23362554351E-03 -0.26906366875E-04 -0.51874896497E-03  0.56956591876E-03  0.00000000000E+00 0. -1.
       22    1    1    2    0    0  0.22526713914E-02 -0.63376347947E-02  0.34306017904E-01  0.34959161998E-01  0.00000000000E+00 0.  1.
</event>
<event>
 5   0  0.4146200E+04  0.9118800E+02  0.7546771E-02  0.1180000E+00
      -11   -1    0    0    0    0  0.00000000000E+00  0.00000000000E+00  0.34996269501E-01  0.35000000000E-01  0.51099999109E-03 0.  1.
       11   -1    0    0    0    0 -0.00000000000E+00 -0.00000000000E+00 -0.34996269501E-01  0.35000000000E-01  0.51099999109E-03 0. -1.
       22    1    1    2    0    0  0.10370035791E-01 -0.10352370418E-01  0.31361287658E-01  0.34615597339E-01  0.00000000000E+00 0.  1.
       22    1    1    2    0    0  0.59367188664E-03  0.30092061793E-02 -0.43548706480E-02  0.53265999004E-02  0.00000000000E+00 0. -1.
       22    1    1    2    0    0 -0.10963707677E-01  0.73431642385E-02 -0.27006417010E-01  0.30057802761E-01  0.00000000000E+00 0. -1.
</event>
<event>
 5   0  0.4146200E+04  0.9118800E+02  0.7546771E-02  0.1180000E+00
      -11   -1    0    0    0    0  0.00000000000E+00  0.00000000000E+00  0.34996269501E-01  0.35000000000E-01  0.51099999109E-03 0. -1.
       11   -1    0    0    0    0 -0.00000000000E+00 -0.00000000000E+00 -0.34996269501E-01  0.35000000000E-01  0.51099999109E-03 0.  1.
       22    1    1    2    0    0 -0.71533289214E-03 -0.61294439022E-03 -0.96892073335E-03  0.13513731385E-02  0.00000000000E+00 0.  1.
       22    1    1    2    0    0  0.21347822627E-02 -0.51635751300E-03  0.34749771930E-01  0.34819112131E-01  0.00000000000E+00 0. -1.
       22    1    1    2    0    0 -0.14194493705E-02  0.11293019032E-02 -0.33780851197E-01  0.33829514730E-01  0.00000000000E+00 0.  1.
</event>
<event>
 5   0  0.4146200E+04  0.9118800E+02  0.7546771E-02  0.1180000E+00
      -11   -1    0    0    0    0  0.00000000000E+00  0.00000000000E+00  0.34996269501E-01  0.35000000000E-01  0.51099999109E-03 0.  1.
       11   -1    0    0    0    0 -0.00000000000E+00 -0.00000000000E+00 -0.34996269501E-01  0.35000000000E-01  0.51099999109E-03 0. -1.
       22    1    1    2    0    0  0.56615303998E-04 -0.49696303226E-04  0.61733852433E-03  0.62191789556E-03  0.00000000000E+00 0.  1.
       22    1    1    2    0    0  0.18410997573E-01 -0.12083581950E-01 -0.27079116062E-01  0.34903528634E-01  0.00000000000E+00 0. -1.
       22    1    1    2    0    0 -0.18467612877E-01  0.12133278254E-01  0.26461777538E-01  0.34474553471E-01  0.00000000000E+00 0.  1.
</event>
<event>
 5   0  0.4146200E+04  0.9118800E+02  0.7546771E-02  0.1180000E+00
      -11   -1    0    0    0    0  0.00000000000E+00  0.00000000000E+00  0.34996269501E-01  0.35000000000E-01  0.51099999109E-03 0. -1.
       11   -1    0    0    0    0 -0.00000000000E+00 -0.00000000000E+00 -0.34996269501E-01  0.35000000000E-01  0.51099999109E-03 0.  1.
       22    1    1    2    0    0 -0.97249469697E-02 -0.97315463499E-02 -0.32080925861E-01  0.34906494984E-01  0.00000000000E+00 0.  1.
       22    1    1    2    0    0  0.75005626842E-04 -0.99047299553E-04  0.20510523747E-02  0.20548119270E-02  0.00000000000E+00 0.  1.
       22    1    1    2    0    0  0.96499413429E-02  0.98305936495E-02  0.30029873487E-01  0.33038693089E-01  0.00000000000E+00 0. -1.
</event>
<event>
 5   0  0.4146200E+04  0.9118800E+02  0.7546771E-02  0.1180000E+00
      -11   -1    0    0    0    0  0.00000000000E+00  0.00000000000E+00  0.34996269501E-01  0.35000000000E-01  0.51099999109E-03 0. -1.
       11   -1    0    0    0    0 -0.00000000000E+00 -0.00000000000E+00 -0.34996269501E-01  0.35000000000E-01  0.51099999109E-03 0.  1.
       22    1    1    2    0    0 -0.30827903802E-02 -0.12121435977E-02 -0.17043153012E-01  0.17362083781E-01  0.00000000000E+00 0.  1.
       22    1    1    2    0    0  0.11035105256E-01  0.75118821916E-02  0.31938355877E-01  0.34615899500E-01  0.00000000000E+00 0. -1.
       22    1    1    2    0    0 -0.79523148755E-02 -0.62997385940E-02 -0.14895202865E-01  0.18022016719E-01  0.00000000000E+00 0.  1.
</event>
<event>
 5   0  0.4146200E+04  0.9118800E+02  0.7546771E-02  0.1180000E+00
      -11   -1    0    0    0    0  0.00000000000E+00  0.00000000000E+00  0.34996269501E-01  0.35000000000E-01  0.51099999109E-03 0.  1.
       11   -1    0    0    0    0 -0.00000000000E+00 -0.00000000000E+00 -0.34996269501E-01  0.35000000000E-01  0.51099999109E-03 0. -1.
       22    1    1    2    0    0 -0.73260952112E-02 -0.18537079530E-01 -0.28732433800E-01  0.34969239921E-01  0.00000000000E+00 0. -1.
       22    1    1    2    0    0  0.73812179360E-02  0.18493069432E-01  0.28362190589E-01  0.34653857653E-01  0.00000000000E+00 0.  1.
       22    1    1    2    0    0 -0.55122724778E-04  0.44010098174E-04  0.37024321109E-03  0.37690242622E-03  0.00000000000E+00 0. -1.
</event>
<event>
 5   0  0.4146200E+04  0.9118800E+02  0.7546771E-02  0.1180000E+00
      -11   -1    0    0    0    0  0.00000000000E+00  0.00000000000E+00  0.34996269501E-01  0.35000000000E-01  0.51099999109E-03 0.  1.
       11   -1    0    0    0    0 -0.00000000000E+00 -0.00000000000E+00 -0.34996269501E-01  0.35000000000E-01  0.51099999109E-03 0. -1.
       22    1    1    2    0    0  0.31959740471E-02 -0.13089952755E-02  0.34428583411E-01  0.34601373880E-01  0.00000000000E+00 0.  1.
       22    1    1    2    0    0 -0.30534224003E-02  0.16024202529E-02 -0.56567936438E-02  0.66249870453E-02  0.00000000000E+00 0. -1.
       22    1    1    2    0    0 -0.14255164676E-03 -0.29342497743E-03 -0.28771789767E-01  0.28773639074E-01  0.00000000000E+00 0. -1.
</event>
<event>
 5   0  0.4146200E+04  0.9118800E+02  0.7546771E-02  0.1180000E+00
      -11   -1    0    0    0    0  0.00000000000E+00  0.00000000000E+00  0.34996269501E-01  0.35000000000E-01  0.51099999109E-03 0. -1.
       11   -1    0    0    0    0 -0.00000000000E+00 -0.00000000000E+00 -0.34996269501E-01  0.35000000000E-01  0.51099999109E-03 0.  1.
       22    1    1    2    0    0 -0.68353274056E-02 -0.57607540325E-02  0.27652008696E-01  0.29060997448E-01  0.00000000000E+00 0. -1.
       22    1    1    2    0    0  0.86308734573E-03  0.10834696456E-01 -0.30671817837E-01  0.32540681869E-01  0.00000000000E+00 0.  1.
       22    1    1    2    0    0  0.59722400598E-02 -0.50739424239E-02  0.30198091409E-02  0.83983206834E-02  0.00000000000E+00 0. -1.
</event>
<event>
 5   0  0.4146200E+04  0.9118800E+02  0.7546771E-02  0.1180000E+00
      -11   -1    0    0    0    0  0.00000000000E+00  0.00000000000E+00  0.34996269501E-01  0.35000000000E-01  0.51099999109E-03 0.  1.
       11   -1    0    0    0    0 -0.00000000000E+00 -0.00000000000E+00 -0.34996269501E-01  0.35000000000E-01  0.51099999109E-03 0. -1.
       22    1    1    2    0    0  0.13644764348E-03  0.80707452411E-03  0.34229578786E-01  0.34239364059E-01  0.00000000000E+00 0.  1.
       22    1    1    2    0    0  0.58630795551E-03  0.29392870772E-02 -0.29644778498E-01  0.29795906728E-01  0.00000000000E+00 0. -1.
       22    1    1    2    0    0 -0.72275559899E-03 -0.37463616013E-02 -0.45848002881E-02  0.59647292131E-02  0.00000000000E+00 0.  1.
</event>
<event>
 5   0  0.4146200E+04  0.9118800E+02  0.7546771E-02  0.1180000E+00
      -11   -1    0    0    0    0  0.00000000000E+00  0.00000000000E+00  0.34996269501E-01  0.35000000000E-01  0.51099999109E-03 0. -1.
       11   -1    0    0    0    0 -0.00000000000E+00 -0.00000000000E+00 -0.34996269501E-01  0.35000000000E-01  0.51099999109E-03 0.  1.
       22    1    1    2    0    0 -0.16396791588E-01 -0.11318969708E-01 -0.28068380837E-01  0.34421037934E-01  0.00000000000E+00 0.  1.
       22    1    1    2    0    0 -0.24333894678E-05  0.14360202911E-03 -0.65293386553E-03  0.66854326480E-03  0.00000000000E+00 0. -1.
       22    1    1    2    0    0  0.16399224977E-01  0.11175367679E-01  0.28721314703E-01  0.34910418801E-01  0.00000000000E+00 0. -1.
</event>
<event>
 5   0  0.4146200E+04  0.9118800E+02  0.7546771E-02  0.1180000E+00
      -11   -1    0    0    0    0  0.00000000000E+00  0.00000000000E+00  0.34996269501E-01  0.35000000000E-01  0.51099999109E-03 0. -1.
       11   -1    0    0    0    0 -0.00000000000E+00 -0.00000000000E+00 -0.34996269501E-01  0.35000000000E-01  0.51099999109E-03 0.  1.
       22    1    1    2    0    0 -0.10195636615E-02 -0.15311105970E-02 -0.34931405055E-02  0.39478906155E-02  0.00000000000E+00 0.  1.
       22    1    1    2    0    0  0.82636415987E-03  0.90331233130E-02  0.33714244279E-01  0.34913184642E-01  0.00000000000E+00 0. -1.
       22    1    1    2    0    0  0.19319950166E-03 -0.75020127160E-02 -0.30221103774E-01  0.31138924743E-01  0.00000000000E+00 0.  1.
</event>
<event>
 5   0  0.4146200E+04  0.9118800E+02  0.7546771E-02  0.1180000E+00
      -11   -1    0    0    0    0  0.00000000000E+00  0.00000000000E+00  0.34996269501E-01  0.35000000000E-01  0.51099999109E-03 0. -1.
       11   -1    0    0    0    0 -0.00000000000E+00 -0.00000000000E+00 -0.34996269501E-01  0.35000000000E-01  0.51099999109E-03 0.  1.
       22    1    1    2    0    0  0.14355127670E-02 -0.25065949633E-02 -0.34208499982E-01  0.34330237200E-01  0.00000000000E+00 0.  1.
       22    1    1    2    0    0 -0.12605637398E-02  0.28589837285E-02  0.34810585987E-01  0.34950532266E-01  0.00000000000E+00 0. -1.
       22    1    1    2    0    0 -0.17494902727E-03 -0.35238876515E-03 -0.60208600523E-03  0.71923053442E-03  0.00000000000E+00 0. -1.
</event>
<event>
 5   0  0.4146200E+04  0.9118800E+02  0.7546771E-02  0.1180000E+00
      -11   -1    0    0    0    0  0.00000000000E+00  0.00000000000E+00  0.34996269501E-01  0.35000000000E-01  0.51099999109E-03 0. -1.
       11   -1    0    0    0    0 -0.00000000000E+00 -0.00000000000E+00 -0.34996269501E-01  0.35000000000E-01  0.51099999109E-03 0. -1.
       22    1    1    2    0    0 -0.45268327839E-03  0.49540427875E-03 -0.34024321982E-01  0.34030939362E-01  0.00000000000E+00 0. -1.
       22    1    1    2    0    0  0.45268327839E-03 -0.49540427875E-03 -0.85803009791E-03  0.10892948172E-02  0.00000000000E+00 0.  1.
       22    1    1    2    0    0  0.00000000000E+00  0.00000000000E+00  0.34882352080E-01  0.34879765820E-01  0.00000000000E+00 0. -1.
</event>
<event>
 5   0  0.4146200E+04  0.9118800E+02  0.7546771E-02  0.1180000E+00
      -11   -1    0    0    0    0  0.00000000000E+00  0.00000000000E+00  0.34996269501E-01  0.35000000000E-01  0.51099999109E-03 0.  1.
       11   -1    0    0    0    0 -0.00000000000E+00 -0.00000000000E+00 -0.34996269501E-01  0.35000000000E-01  0.51099999109E-03 0. -1.
       22    1    1    2    0    0  0.29041098811E-03 -0.13615406342E-03 -0.74951843642E-03  0.81526336697E-03  0.00000000000E+00 0. -1.
       22    1    1    2    0    0 -0.13351145275E-01  0.29563283482E-01  0.12710187851E-01  0.34839484577E-01  0.00000000000E+00 0.  1.
       22    1    1    2    0    0  0.13060734287E-01 -0.29427129418E-01 -0.11960669415E-01  0.34345252056E-01  0.00000000000E+00 0. -1.
</event>
<event>
 5   0  0.4146200E+04  0.9118800E+02  0.7546771E-02  0.1180000E+00
      -11   -1    0    0    0    0  0.00000000000E+00  0.00000000000E+00  0.34996269501E-01  0.35000000000E-01  0.51099999109E-03 0.  1.
       11   -1    0    0    0    0 -0.00000000000E+00 -0.00000000000E+00 -0.34996269501E-01  0.35000000000E-01  0.51099999109E-03 0. -1.
       22    1    1    2    0    0  0.75551519899E-02  0.81192982642E-02 -0.23158800766E-01  0.25677487782E-01  0.00000000000E+00 0. -1.
       22    1    1    2    0    0  0.82686816734E-02 -0.41682218623E-02 -0.59140479079E-02  0.10987316905E-01  0.00000000000E+00 0. -1.
       22    1    1    2    0    0 -0.15823833663E-01 -0.39510764020E-02  0.29072848674E-01  0.33335195313E-01  0.00000000000E+00 0.  1.
</event>
<event>
 5   0  0.4146200E+04  0.9118800E+02  0.7546771E-02  0.1180000E+00
      -11   -1    0    0    0    0  0.00000000000E+00  0.00000000000E+00  0.34996269501E-01  0.35000000000E-01  0.51099999109E-03 0. -1.
       11   -1    0    0    0    0 -0.00000000000E+00 -0.00000000000E+00 -0.34996269501E-01  0.35000000000E-01  0.51099999109E-03 0.  1.
       22    1    1    2    0    0 -0.83353299547E-04  0.24914570391E-03  0.13639776022E-01  0.13642305937E-01  0.00000000000E+00 0. -1.
       22    1    1    2    0    0 -0.14185383253E-01  0.55636676785E-02  0.16529924185E-01  0.22481501054E-01  0.00000000000E+00 0. -1.
       22    1    1    2    0    0  0.14268736552E-01 -0.58128133824E-02 -0.30169700207E-01  0.33876193009E-01  0.00000000000E+00 0.  1.
</event>
<event>
 5   0  0.4146200E+04  0.9118800E+02  0.7546771E-02  0.1180000E+00
      -11   -1    0    0    0    0  0.00000000000E+00  0.00000000000E+00  0.34996269501E-01  0.35000000000E-01  0.51099999109E-03 0.  1.
       11   -1    0    0    0    0 -0.00000000000E+00 -0.00000000000E+00 -0.34996269501E-01  0.35000000000E-01  0.51099999109E-03 0. -1.
       22    1    1    2    0    0  0.20114864151E-01 -0.91835049145E-02 -0.27010979101E-01  0.34907556694E-01  0.00000000000E+00 0. -1.
       22    1    1    2    0    0 -0.20105098838E-01  0.88372873964E-02  0.26904930716E-01  0.34730216594E-01  0.00000000000E+00 0.  1.
       22    1    1    2    0    0 -0.97653131102E-05  0.34621751813E-03  0.10604838535E-03  0.36222671248E-03  0.00000000000E+00 0.  1.
</event>
<event>
 5   0  0.4146200E+04  0.9118800E+02  0.7546771E-02  0.1180000E+00
      -11   -1    0    0    0    0  0.00000000000E+00  0.00000000000E+00  0.34996269501E-01  0.35000000000E-01  0.51099999109E-03 0. -1.
       11   -1    0    0    0    0 -0.00000000000E+00 -0.00000000000E+00 -0.34996269501E-01  0.35000000000E-01  0.51099999109E-03 0.  1.
       22    1    1    2    0    0 -0.19216354655E-01 -0.87325367421E-02 -0.27128211747E-01  0.34372450549E-01  0.00000000000E+00 0.  1.
       22    1    1    2    0    0 -0.34673177824E-03 -0.26042329755E-03  0.40191781354E-02  0.40425036925E-02  0.00000000000E+00 0.  1.
       22    1    1    2    0    0  0.19563086433E-01  0.89929600397E-02  0.23109033612E-01  0.31585045758E-01  0.00000000000E+00 0. -1.
</event>
<event>
 5   0  0.4146200E+04  0.9118800E+02  0.7546771E-02  0.1180000E+00
      -11   -1    0    0    0    0  0.00000000000E+00  0.00000000000E+00  0.34996269501E-01  0.35000000000E-01  0.51099999109E-03 0. -1.
       11   -1    0    0    0    0 -0.00000000000E+00 -0.00000000000E+00 -0.34996269501E-01  0.35000000000E-01  0.51099999109E-03 0. -1.
       22    1    1    2    0    0  0.34113641405E-03 -0.12282411760E-03  0.34711509751E-01  0.34713403305E-01  0.00000000000E+00 0. -1.
       22    1    1    2    0    0  0.10281541489E-02 -0.81388737373E-03 -0.13434901340E-02  0.18773596755E-02  0.00000000000E+00 0.  1.
       22    1    1    2    0    0 -0.13692905629E-02  0.93671149134E-03 -0.33368019617E-01  0.33409237020E-01  0.00000000000E+00 0. -1.
</event>
<event>
 5   0  0.4146200E+04  0.9118800E+02  0.7546771E-02  0.1180000E+00
      -11   -1    0    0    0    0  0.00000000000E+00  0.00000000000E+00  0.34996269501E-01  0.35000000000E-01  0.51099999109E-03 0.  1.
       11   -1    0    0    0    0 -0.00000000000E+00 -0.00000000000E+00 -0.34996269501E-01  0.35000000000E-01  0.51099999109E-03 0. -1.
       22    1    1    2    0    0  0.16754943964E-02 -0.54760486031E-03  0.28526928474E-01  0.28581336580E-01  0.00000000000E+00 0.  1.
       22    1    1    2    0    0  0.13159191596E-01 -0.34623529687E-02 -0.18887328695E-01  0.23278389050E-01  0.00000000000E+00 0. -1.
       22    1    1    2    0    0 -0.14834685993E-01  0.40099578290E-02 -0.96395997793E-02  0.18140274369E-01  0.00000000000E+00 0.  1.
</event>
<event>
 5   0  0.4146200E+04  0.9118800E+02  0.7546771E-02  0.1180000E+00
      -11   -1    0    0    0    0  0.00000000000E+00  0.00000000000E+00  0.34996269501E-01  0.35000000000E-01  0.51099999109E-03 0.  1.
       11   -1    0    0    0    0 -0.00000000000E+00 -0.00000000000E+00 -0.34996269501E-01  0.35000000000E-01  0.51099999109E-03 0. -1.
       22    1    1    2    0    0  0.91466466493E-02 -0.20261742578E-01 -0.18875994243E-01  0.29163376277E-01  0.00000000000E+00 0. -1.
       22    1    1    2    0    0 -0.35546949955E-02 -0.73468129731E-03 -0.64903760159E-02  0.74364369121E-02  0.00000000000E+00 0. -1.
       22    1    1    2    0    0 -0.55919516538E-02  0.20996423876E-01  0.25366370259E-01  0.33400186810E-01  0.00000000000E+00 0.  1.
</event>
<event>
 5   0  0.4146200E+04  0.9118800E+02  0.7546771E-02  0.1180000E+00
      -11   -1    0    0    0    0  0.00000000000E+00  0.00000000000E+00  0.34996269501E-01  0.35000000000E-01  0.51099999109E-03 0.  1.
       11   -1    0    0    0    0 -0.00000000000E+00 -0.00000000000E+00 -0.34996269501E-01  0.35000000000E-01  0.51099999109E-03 0. -1.
       22    1    1    2    0    0  0.17216912286E-03  0.12097270326E-01 -0.39225986429E-02  0.12718505088E-01  0.00000000000E+00 0.  1.
       22    1    1    2    0    0  0.22780762048E-02 -0.13407431897E-01 -0.24875162993E-01  0.28350001679E-01  0.00000000000E+00 0. -1.
       22    1    1    2    0    0 -0.24502453276E-02  0.13101615713E-02  0.28797761636E-01  0.28931493234E-01  0.00000000000E+00 0.  1.
</event>
<event>
 5   0  0.4146200E+04  0.9118800E+02  0.7546771E-02  0.1180000E+00
      -11   -1    0    0    0    0  0.00000000000E+00  0.00000000000E+00  0.34996269501E-01  0.35000000000E-01  0.51099999109E-03 0.  1.
       11   -1    0    0    0    0 -0.00000000000E+00 -0.00000000000E+00 -0.34996269501E-01  0.35000000000E-01  0.51099999109E-03 0. -1.
       22    1    1    2    0    0  0.20435307860E-01  0.41045496974E-02  0.27968263219E-01  0.34880838336E-01  0.00000000000E+00 0.  1.
       22    1    1    2    0    0  0.94729645995E-04  0.52320408010E-04 -0.83127929128E-03  0.83829373792E-03  0.00000000000E+00 0.  1.
       22    1    1    2    0    0 -0.20530037506E-01 -0.41568701054E-02 -0.27136983928E-01  0.34280867926E-01  0.00000000000E+00 0. -1.
</event>
<event>
 5   0  0.4146200E+04  0.9118800E+02  0.7546771E-02  0.1180000E+00
      -11   -1    0    0    0    0  0.00000000000E+00  0.00000000000E+00  0.34996269501E-01  0.35000000000E-01  0.51099999109E-03 0.  1.
       11   -1    0    0    0    0 -0.00000000000E+00 -0.00000000000E+00 -0.34996269501E-01  0.35000000000E-01  0.51099999109E-03 0. -1.
       22    1    1    2    0    0  0.15934622644E-01  0.11719861555E-01  0.15222902522E-01  0.24960050378E-01  0.00000000000E+00 0.  1.
       22    1    1    2    0    0 -0.31979707635E-03 -0.10247185265E-02  0.11909947744E-01  0.11958226185E-01  0.00000000000E+00 0.  1.
       22    1    1    2    0    0 -0.15614825568E-01 -0.10695143029E-01 -0.27132850266E-01  0.33081723436E-01  0.00000000000E+00 0. -1.
</event>
<event>
 5   0  0.4146200E+04  0.9118800E+02  0.7546771E-02  0.1180000E+00
      -11   -1    0    0    0    0  0.00000000000E+00  0.00000000000E+00  0.34996269501E-01  0.35000000000E-01  0.51099999109E-03 0. -1.
       11   -1    0    0    0    0 -0.00000000000E+00 -0.00000000000E+00 -0.34996269501E-01  0.35000000000E-01  0.51099999109E-03 0.  1.
       22    1    1    2    0    0  0.26450512181E-02 -0.64049409685E-03  0.19343087035E-01  0.19533600402E-01  0.00000000000E+00 0. -1.
       22    1    1    2    0    0 -0.30288950359E-02  0.13476323326E-01 -0.30482944764E-01  0.33466332589E-01  0.00000000000E+00 0.  1.
       22    1    1    2    0    0  0.38384381783E-03 -0.12835829229E-01  0.11139857729E-01  0.17000067008E-01  0.00000000000E+00 0. -1.
</event>
<event>
 5   0  0.4146200E+04  0.9118800E+02  0.7546771E-02  0.1180000E+00
      -11   -1    0    0    0    0  0.00000000000E+00  0.00000000000E+00  0.34996269501E-01  0.35000000000E-01  0.51099999109E-03 0. -1.
       11   -1    0    0    0    0 -0.00000000000E+00 -0.00000000000E+00 -0.34996269501E-01  0.35000000000E-01  0.51099999109E-03 0.  1.
       22    1    1    2    0    0  0.16188483448E-01  0.11015323347E-01 -0.28620170269E-01  0.34677348385E-01  0.00000000000E+00 0.  1.
       22    1    1    2    0    0 -0.64063598447E-03  0.33655653599E-03 -0.11720877199E-03  0.73309116946E-03  0.00000000000E+00 0. -1.
       22    1    1    2    0    0 -0.15547847464E-01 -0.11351879883E-01  0.28737379041E-01  0.34589560445E-01  0.00000000000E+00 0. -1.
</event>
<event>
 5   0  0.4146200E+04  0.9118800E+02  0.7546771E-02  0.1180000E+00
      -11   -1    0    0    0    0  0.00000000000E+00  0.00000000000E+00  0.34996269501E-01  0.35000000000E-01  0.51099999109E-03 0.  1.
       11   -1    0    0    0    0 -0.00000000000E+00 -0.00000000000E+00 -0.34996269501E-01  0.35000000000E-01  0.51099999109E-03 0. -1.
       22    1    1    2    0    0  0.61095479913E-02 -0.87607591215E-02  0.23449690632E-01  0.25767527390E-01  0.00000000000E+00 0.  1.
       22    1    1    2    0    0 -0.82826815367E-02  0.86698713003E-02 -0.32648167228E-01  0.34780343660E-01  0.00000000000E+00 0. -1.
       22    1    1    2    0    0  0.21731335454E-02  0.90887821123E-04  0.91984765959E-02  0.94521289500E-02  0.00000000000E+00 0.  1.
</event>
<event>
 5   0  0.4146200E+04  0.9118800E+02  0.7546771E-02  0.1180000E+00
      -11   -1    0    0    0    0  0.00000000000E+00  0.00000000000E+00  0.34996269501E-01  0.35000000000E-01  0.51099999109E-03 0. -1.
       11   -1    0    0    0    0 -0.00000000000E+00 -0.00000000000E+00 -0.34996269501E-01  0.35000000000E-01  0.51099999109E-03 0.  1.
       22    1    1    2    0    0 -0.22688091134E-02 -0.25574459101E-03  0.34895253530E-01  0.34969867300E-01  0.00000000000E+00 0. -1.
       22    1    1    2    0    0 -0.98316842326E-04 -0.16387969932E-03 -0.32972938415E-03  0.38110920234E-03  0.00000000000E+00 0. -1.
       22    1    1    2    0    0  0.23671259558E-02  0.41962429033E-03 -0.34565524146E-01  0.34649023497E-01  0.00000000000E+00 0.  1.
</event>
<event>
 5   0  0.4146200E+04  0.9118800E+02  0.7546771E-02  0.1180000E+00
      -11   -1    0    0    0    0  0.00000000000E+00  0.00000000000E+00  0.34996269501E-01  0.35000000000E-01  0.51099999109E-03 0. -1.
       11   -1    0    0    0    0 -0.00000000000E+00 -0.00000000000E+00 -0.34996269501E-01  0.35000000000E-01  0.51099999109E-03 0.  1.
       22    1    1    2    0    0 -0.77386835219E-03  0.22348526525E-03  0.34969681789E-01  0.34978957422E-01  0.00000000000E+00 0. -1.
       22    1    1    2    0    0  0.91148240411E-03 -0.28169129204E-03 -0.34696949431E-01  0.34710062662E-01  0.00000000000E+00 0.  1.
       22    1    1    2    0    0 -0.13761405193E-03  0.58206026788E-04 -0.27273235811E-03  0.31097991576E-03  0.00000000000E+00 0. -1.
</event>
<event>
 5   0  0.4146200E+04  0.9118800E+02  0.7546771E-02  0.1180000E+00
      -11   -1    0    0    0    0  0.00000000000E+00  0.00000000000E+00  0.34996269501E-01  0.35000000000E-01  0.51099999109E-03 0.  1.
       11   -1    0    0    0    0 -0.00000000000E+00 -0.00000000000E+00 -0.34996269501E-01  0.35000000000E-01  0.51099999109E-03 0. -1.
       22    1    1    2    0    0 -0.11241620474E-02  0.11313681493E-02 -0.24581963074E-01  0.24633648588E-01  0.00000000000E+00 0. -1.
       22    1    1    2    0    0 -0.26497611496E-02 -0.13953203007E-02  0.34562950823E-01  0.34692444747E-01  0.00000000000E+00 0.  1.
       22    1    1    2    0    0  0.37739231969E-02  0.26395215145E-03 -0.99809877493E-02  0.10673906665E-01  0.00000000000E+00 0. -1.
</event>
<event>
 5   0  0.4146200E+04  0.9118800E+02  0.7546771E-02  0.1180000E+00
      -11   -1    0    0    0    0  0.00000000000E+00  0.00000000000E+00  0.34996269501E-01  0.35000000000E-01  0.51099999109E-03 0.  1.
       11   -1    0    0    0    0 -0.00000000000E+00 -0.00000000000E+00 -0.34996269501E-01  0.35000000000E-01  0.51099999109E-03 0. -1.
       22    1    1    2    0    0 -0.17461095936E-01 -0.14554225724E-01 -0.26325495015E-01  0.34781418107E-01  0.00000000000E+00 0. -1.
       22    1    1    2    0    0 -0.58735206823E-04 -0.14278170026E-03  0.13363202580E-02  0.13452093779E-02  0.00000000000E+00 0. -1.
       22    1    1    2    0    0  0.17519831143E-01  0.14697007425E-01  0.24989174757E-01  0.33873372515E-01  0.00000000000E+00 0.  1.
</event>
<event>
 5   0  0.4146200E+04  0.9118800E+02  0.7546771E-02  0.1180000E+00
      -11   -1    0    0    0    0  0.00000000000E+00  0.00000000000E+00  0.34996269501E-01  0.35000000000E-01  0.51099999109E-03 0.  1.
       11   -1    0    0    0    0 -0.00000000000E+00 -0.00000000000E+00 -0.34996269501E-01  0.35000000000E-01  0.51099999109E-03 0. -1.
       22    1    1    2    0    0  0.51013123111E-03 -0.26705478735E-02  0.33634458437E-01  0.33744167706E-01  0.00000000000E+00 0.  1.
       22    1    1    2    0    0  0.34072000983E-02  0.56126462524E-02 -0.28133654675E-01  0.28889675247E-01  0.00000000000E+00 0. -1.
       22    1    1    2    0    0 -0.39173313294E-02 -0.29420983789E-02 -0.55008037619E-02  0.73661570470E-02  0.00000000000E+00 0.  1.
</event>
<event>
 5   0  0.4146200E+04  0.9118800E+02  0.7546771E-02  0.1180000E+00
      -11   -1    0    0    0    0  0.00000000000E+00  0.00000000000E+00  0.34996269501E-01  0.35000000000E-01  0.51099999109E-03 0. -1.
       11   -1    0    0    0    0 -0.00000000000E+00 -0.00000000000E+00 -0.34996269501E-01  0.35000000000E-01  0.51099999109E-03 0.  1.
       22    1    1    2    0    0 -0.36239919930E-03  0.43929674060E-03  0.45187631465E-02  0.45545071281E-02  0.00000000000E+00 0. -1.
       22    1    1    2    0    0  0.16521348091E-01  0.95595791112E-03 -0.30567681008E-01  0.34759918304E-01  0.00000000000E+00 0.  1.
       22    1    1    2    0    0 -0.16158948891E-01 -0.13952546517E-02  0.26048917862E-01  0.30685574568E-01  0.00000000000E+00 0. -1.
</event>
<event>
 5   0  0.4146200E+04  0.9118800E+02  0.7546771E-02  0.1180000E+00
      -11   -1    0    0    0    0  0.00000000000E+00  0.00000000000E+00  0.34996269501E-01  0.35000000000E-01  0.51099999109E-03 0. -1.
       11   -1    0    0    0    0 -0.00000000000E+00 -0.00000000000E+00 -0.34996269501E-01  0.35000000000E-01  0.51099999109E-03 0.  1.
       22    1    1    2    0    0  0.94996634273E-03  0.13458155696E-02 -0.56092283154E-02  0.58461181902E-02  0.00000000000E+00 0. -1.
       22    1    1    2    0    0 -0.14311374095E-01  0.11724263958E-02  0.31662322228E-01  0.34766257507E-01  0.00000000000E+00 0. -1.
       22    1    1    2    0    0  0.13361407753E-01 -0.25182419653E-02 -0.26053093913E-01  0.29387624303E-01  0.00000000000E+00 0.  1.
</event>
<event>
 5   0  0.4146200E+04  0.9118800E+02  0.7546771E-02  0.1180000E+00
      -11   -1    0    0    0    0  0.00000000000E+00  0.00000000000E+00  0.34996269501E-01  0.35000000000E-01  0.51099999109E-03 0. -1.
       11   -1    0    0    0    0 -0.00000000000E+00 -0.00000000000E+00 -0.34996269501E-01  0.35000000000E-01  0.51099999109E-03 0.  1.
       22    1    1    2    0    0 -0.11513487805E-01  0.13050121486E-01 -0.30329460237E-01  0.34967731275E-01  0.00000000000E+00 0.  1.
       22    1    1    2    0    0 -0.61999906486E-06  0.83306714912E-05  0.45510475209E-03  0.45518141423E-03  0.00000000000E+00 0. -1.
       22    1    1    2    0    0  0.11514107804E-01 -0.13058452157E-01  0.29874355485E-01  0.34577087311E-01  0.00000000000E+00 0. -1.
</event>
<event>
 5   0  0.4146200E+04  0.9118800E+02  0.7546771E-02  0.1180000E+00
      -11   -1    0    0    0    0  0.00000000000E+00  0.00000000000E+00  0.34996269501E-01  0.35000000000E-01  0.51099999109E-03 0.  1.
       11   -1    0    0    0    0 -0.00000000000E+00 -0.00000000000E+00 -0.34996269501E-01  0.35000000000E-01  0.51099999109E-03 0.  1.
       22    1    1    2    0    0 -0.91883163543E-02  0.11649570632E-01  0.87577879180E-03  0.14862861159E-01  0.00000000000E+00 0. -1.
       22    1    1    2    0    0  0.25001260412E-03 -0.37403678030E-04  0.25213162189E-01  0.25214429459E-01  0.00000000000E+00 0.  1.
       22    1    1    2    0    0  0.89383037502E-02 -0.11612166954E-01 -0.26088940981E-01  0.29922709383E-01  0.00000000000E+00 0.  1.
</event>
<event>
 5   0  0.4146200E+04  0.9118800E+02  0.7546771E-02  0.1180000E+00
      -11   -1    0    0    0    0  0.00000000000E+00  0.00000000000E+00  0.34996269501E-01  0.35000000000E-01  0.51099999109E-03 0.  1.
       11   -1    0    0    0    0 -0.00000000000E+00 -0.00000000000E+00 -0.34996269501E-01  0.35000000000E-01  0.51099999109E-03 0. -1.
       22    1    1    2    0    0  0.30863478393E-04  0.16569036521E-02  0.29082769325E-01  0.29129945999E-01  0.00000000000E+00 0.  1.
       22    1    1    2    0    0 -0.56350103377E-02 -0.13253577734E-01 -0.89066727493E-02  0.16933383706E-01  0.00000000000E+00 0.  1.
       22    1    1    2    0    0  0.56041468593E-02  0.11596674082E-01 -0.20176096576E-01  0.23936670295E-01  0.00000000000E+00 0. -1.
</event>
<event>
 5   0  0.4146200E+04  0.9118800E+02  0.7546771E-02  0.1180000E+00
      -11   -1    0    0    0    0  0.00000000000E+00  0.00000000000E+00  0.34996269501E-01  0.35000000000E-01  0.51099999109E-03 0.  1.
       11   -1    0    0    0    0 -0.00000000000E+00 -0.00000000000E+00 -0.34996269501E-01  0.35000000000E-01  0.51099999109E-03 0. -1.
       22    1    1    2    0    0 -0.14208525954E-01  0.13121220793E-01  0.20776811136E-01  0.28385287137E-01  0.00000000000E+00 0.  1.
       22    1    1    2    0    0  0.14514396867E-01 -0.11242083282E-01 -0.28366869301E-01  0.33789516523E-01  0.00000000000E+00 0. -1.
       22    1    1    2    0    0 -0.30587091310E-03 -0.18791375113E-02  0.75900581650E-02  0.78251963394E-02  0.00000000000E+00 0.  1.
</event>
<event>
 5   0  0.4146200E+04  0.9118800E+02  0.7546771E-02  0.1180000E+00
      -11   -1    0    0    0    0  0.00000000000E+00  0.00000000000E+00  0.34996269501E-01  0.35000000000E-01  0.51099999109E-03 0.  1.
       11   -1    0    0    0    0 -0.00000000000E+00 -0.00000000000E+00 -0.34996269501E-01  0.35000000000E-01  0.51099999109E-03 0. -1.
       22    1    1    2    0    0  0.14304957168E-02 -0.18700441145E-01 -0.24120360546E-01  0.30553962262E-01  0.00000000000E+00 0. -1.
       22    1    1    2    0    0  0.16194446409E-02  0.16540861329E-01  0.28924575067E-01  0.33359462484E-01  0.00000000000E+00 0.  1.
       22    1    1    2    0    0 -0.30499403577E-02  0.21595798161E-02 -0.48042145206E-02  0.60865752544E-02  0.00000000000E+00 0. -1.
</event>
<event>
 5   0  0.4146200E+04  0.9118800E+02  0.7546771E-02  0.1180000E+00
      -11   -1    0    0    0    0  0.00000000000E+00  0.00000000000E+00  0.34996269501E-01  0.35000000000E-01  0.51099999109E-03 0. -1.
       11   -1    0    0    0    0 -0.00000000000E+00 -0.00000000000E+00 -0.34996269501E-01  0.35000000000E-01  0.51099999109E-03 0.  1.
       22    1    1    2    0    0 -0.21124756743E-02  0.30262641299E-03 -0.96966563677E-02  0.99287099330E-02  0.00000000000E+00 0.  1.
       22    1    1    2    0    0  0.11015277382E-01  0.70012182329E-02  0.32226428118E-01  0.34769182645E-01  0.00000000000E+00 0. -1.
       22    1    1    2    0    0 -0.89028017076E-02 -0.73038446459E-02 -0.22529771751E-01  0.25302107422E-01  0.00000000000E+00 0.  1.
</event>
<event>
 5   0  0.4146200E+04  0.9118800E+02  0.7546771E-02  0.1180000E+00
      -11   -1    0    0    0    0  0.00000000000E+00  0.00000000000E+00  0.34996269501E-01  0.35000000000E-01  0.51099999109E-03 0.  1.
       11   -1    0    0    0    0 -0.00000000000E+00 -0.00000000000E+00 -0.34996269501E-01  0.35000000000E-01  0.51099999109E-03 0. -1.
       22    1    1    2    0    0  0.20320263113E-03 -0.35324700168E-03  0.46159602346E-02  0.46339145051E-02  0.00000000000E+00 0. -1.
       22    1    1    2    0    0  0.28781264795E-02  0.12117108937E-01 -0.32576231494E-01  0.34875762348E-01  0.00000000000E+00 0. -1.
       22    1    1    2    0    0 -0.30813291106E-02 -0.11763861936E-01  0.27960271259E-01  0.30490323147E-01  0.00000000000E+00 0.  1.
</event>
<event>
 5   0  0.4146200E+04  0.9118800E+02  0.7546771E-02  0.1180000E+00
      -11   -1    0    0    0    0  0.00000000000E+00  0.00000000000E+00  0.34996269501E-01  0.35000000000E-01  0.51099999109E-03 0. -1.
       11   -1    0    0    0    0 -0.00000000000E+00 -0.00000000000E+00 -0.34996269501E-01  0.35000000000E-01  0.51099999109E-03 0.  1.
       22    1    1    2    0    0  0.49891514795E-03 -0.46999078961E-03 -0.75872550681E-03  0.10224832819E-02  0.00000000000E+00 0. -1.
       22    1    1    2    0    0 -0.69331558039E-02  0.88663652216E-02  0.33094173029E-01  0.34955763046E-01  0.00000000000E+00 0. -1.
       22    1    1    2    0    0  0.64342406560E-02 -0.83963744320E-02 -0.32335447523E-01  0.34021753672E-01  0.00000000000E+00 0.  1.
</event>
<event>
 5   0  0.4146200E+04  0.9118800E+02  0.7546771E-02  0.1180000E+00
      -11   -1    0    0    0    0  0.00000000000E+00  0.00000000000E+00  0.34996269501E-01  0.35000000000E-01  0.51099999109E-03 0.  1.
       11   -1    0    0    0    0 -0.00000000000E+00 -0.00000000000E+00 -0.34996269501E-01  0.35000000000E-01  0.51099999109E-03 0. -1.
       22    1    1    2    0    0 -0.73620381140E-02  0.19446734496E-02 -0.23662375686E-02  0.79737343979E-02  0.00000000000E+00 0.  1.
       22    1    1    2    0    0  0.11126813032E-01 -0.10273084569E-01 -0.27171498298E-01  0.31106792740E-01  0.00000000000E+00 0. -1.
       22    1    1    2    0    0 -0.37647749179E-02  0.83284111197E-02  0.29537735866E-01  0.30919472862E-01  0.00000000000E+00 0.  1.
</event>
<event>
 5   0  0.4146200E+04  0.9118800E+02  0.7546771E-02  0.1180000E+00
      -11   -1    0    0    0    0  0.00000000000E+00  0.00000000000E+00  0.34996269501E-01  0.35000000000E-01  0.51099999109E-03 0.  1.
       11   -1    0    0    0    0 -0.00000000000E+00 -0.00000000000E+00 -0.34996269501E-01  0.35000000000E-01  0.51099999109E-03 0. -1.
       22    1    1    2    0    0  0.10930590815E-03  0.26168611877E-03  0.51919771907E-03  0.59160263506E-03  0.00000000000E+00 0. -1.
       22    1    1    2    0    0 -0.12219198945E-01 -0.13198242597E-01 -0.30019395577E-01  0.34995235980E-01  0.00000000000E+00 0. -1.
       22    1    1    2    0    0  0.12109893037E-01  0.12936556478E-01  0.29500197858E-01  0.34413161385E-01  0.00000000000E+00 0.  1.
</event>
<event>
 5   0  0.4146200E+04  0.9118800E+02  0.7546771E-02  0.1180000E+00
      -11   -1    0    0    0    0  0.00000000000E+00  0.00000000000E+00  0.34996269501E-01  0.35000000000E-01  0.51099999109E-03 0.  1.
       11   -1    0    0    0    0 -0.00000000000E+00 -0.00000000000E+00 -0.34996269501E-01  0.35000000000E-01  0.51099999109E-03 0. -1.
       22    1    1    2    0    0  0.17894401657E-02  0.31611142151E-03 -0.20441590648E-01  0.20522198975E-01  0.00000000000E+00 0. -1.
       22    1    1    2    0    0 -0.86020178271E-02 -0.25708453058E-03  0.33586915397E-01  0.34671914989E-01  0.00000000000E+00 0.  1.
       22    1    1    2    0    0  0.68125776614E-02 -0.59026890926E-04 -0.13145324748E-01  0.14805886036E-01  0.00000000000E+00 0. -1.
</event>
<event>
 5   0  0.4146200E+04  0.9118800E+02  0.7546771E-02  0.1180000E+00
      -11   -1    0    0    0    0  0.00000000000E+00  0.00000000000E+00  0.34996269501E-01  0.35000000000E-01  0.51099999109E-03 0. -1.
       11   -1    0    0    0    0 -0.00000000000E+00 -0.00000000000E+00 -0.34996269501E-01  0.35000000000E-01  0.51099999109E-03 0.  1.
       22    1    1    2    0    0 -0.26226466358E-02  0.22200304477E-01  0.26218793058E-01  0.34455143356E-01  0.00000000000E+00 0. -1.
       22    1    1    2    0    0  0.29416271100E-02 -0.18498283352E-02 -0.54680205135E-02  0.64787563050E-02  0.00000000000E+00 0. -1.
       22    1    1    2    0    0 -0.31898047415E-03 -0.20350476142E-01 -0.20750772545E-01  0.29066100339E-01  0.00000000000E+00 0.  1.
</event>
<event>
 5   0  0.4146200E+04  0.9118800E+02  0.7546771E-02  0.1180000E+00
      -11   -1    0    0    0    0  0.00000000000E+00  0.00000000000E+00  0.34996269501E-01  0.35000000000E-01  0.51099999109E-03 0.  1.
       11   -1    0    0    0    0 -0.00000000000E+00 -0.00000000000E+00 -0.34996269501E-01  0.35000000000E-01  0.51099999109E-03 0. -1.
       22    1    1    2    0    0  0.86948422921E-03  0.24288053626E-03  0.10590155606E-01  0.10628564792E-01  0.00000000000E+00 0.  1.
       22    1    1    2    0    0  0.41464493132E-03 -0.11833374266E-01  0.21875776900E-01  0.24874691795E-01  0.00000000000E+00 0.  1.
       22    1    1    2    0    0 -0.12841291605E-02  0.11590493729E-01 -0.32465932506E-01  0.34496743413E-01  0.00000000000E+00 0. -1.
</event>
<event>
 5   0  0.4146200E+04  0.9118800E+02  0.7546771E-02  0.1180000E+00
      -11   -1    0    0    0    0  0.00000000000E+00  0.00000000000E+00  0.34996269501E-01  0.35000000000E-01  0.51099999109E-03 0. -1.
       11   -1    0    0    0    0 -0.00000000000E+00 -0.00000000000E+00 -0.34996269501E-01  0.35000000000E-01  0.51099999109E-03 0. -1.
       22    1    1    2    0    0  0.54315766403E-03  0.50435334254E-03  0.30004427493E-01  0.30013581288E-01  0.00000000000E+00 0. -1.
       22    1    1    2    0    0  0.30937248019E-02 -0.98850363269E-02 -0.24373534276E-02  0.10640759750E-01  0.00000000000E+00 0.  1.
       22    1    1    2    0    0 -0.36368824659E-02  0.93806829844E-02 -0.27567074066E-01  0.29345658961E-01  0.00000000000E+00 0. -1.
</event>
<event>
 5   0  0.4146200E+04  0.9118800E+02  0.7546771E-02  0.1180000E+00
      -11   -1    0    0    0    0  0.00000000000E+00  0.00000000000E+00  0.34996269501E-01  0.35000000000E-01  0.51099999109E-03 0. -1.
       11   -1    0    0    0    0 -0.00000000000E+00 -0.00000000000E+00 -0.34996269501E-01  0.35000000000E-01  0.51099999109E-03 0.  1.
       22    1    1    2    0    0  0.46457167181E-03 -0.28068611980E-03 -0.55658794676E-04  0.54562756302E-03  0.00000000000E+00 0. -1.
       22    1    1    2    0    0 -0.62773389813E-03  0.15370379248E-01  0.31233607881E-01  0.34816387942E-01  0.00000000000E+00 0. -1.
       22    1    1    2    0    0  0.16316222632E-03 -0.15089693129E-01 -0.31177949086E-01  0.34637984495E-01  0.00000000000E+00 0.  1.
</event>
<event>
 5   0  0.4146200E+04  0.9118800E+02  0.7546771E-02  0.1180000E+00
      -11   -1    0    0    0    0  0.00000000000E+00  0.00000000000E+00  0.34996269501E-01  0.35000000000E-01  0.51099999109E-03 0.  1.
       11   -1    0    0    0    0 -0.00000000000E+00 -0.00000000000E+00 -0.34996269501E-01  0.35000000000E-01  0.51099999109E-03 0. -1.
       22    1    1    2    0    0 -0.91261896486E-03  0.78998411579E-03 -0.24025147470E-01  0.24055449678E-01  0.00000000000E+00 0. -1.
       22    1    1    2    0    0 -0.11159550529E-02 -0.38063781797E-02  0.34566859429E-01  0.34793701173E-01  0.00000000000E+00 0.  1.
       22    1    1    2    0    0  0.20285740178E-02  0.30163940639E-02 -0.10541711960E-01  0.11150849149E-01  0.00000000000E+00 0. -1.
</event>
<event>
 5   0  0.4146200E+04  0.9118800E+02  0.7546771E-02  0.1180000E+00
      -11   -1    0    0    0    0  0.00000000000E+00  0.00000000000E+00  0.34996269501E-01  0.35000000000E-01  0.51099999109E-03 0.  1.
       11   -1    0    0    0    0 -0.00000000000E+00 -0.00000000000E+00 -0.34996269501E-01  0.35000000000E-01  0.51099999109E-03 0. -1.
       22    1    1    2    0    0  0.15051300284E-01 -0.18748737627E-01 -0.25269546161E-01  0.34879890568E-01  0.00000000000E+00 0. -1.
       22    1    1    2    0    0 -0.66243435285E-04 -0.54361696280E-04  0.83564647277E-03  0.84002881748E-03  0.00000000000E+00 0.  1.
       22    1    1    2    0    0 -0.14985056848E-01  0.18803099324E-01  0.24433899689E-01  0.34280080614E-01  0.00000000000E+00 0.  1.
</event>
<event>
 5   0  0.4146200E+04  0.9118800E+02  0.7546771E-02  0.1180000E+00
      -11   -1    0    0    0    0  0.00000000000E+00  0.00000000000E+00  0.34996269501E-01  0.35000000000E-01  0.51099999109E-03 0.  1.
       11   -1    0    0    0    0 -0.00000000000E+00 -0.00000000000E+00 -0.34996269501E-01  0.35000000000E-01  0.51099999109E-03 0. -1.
       22    1    1    2    0    0  0.11950831530E-01 -0.15237339859E-01  0.28950223674E-01  0.34829791142E-01  0.00000000000E+00 0.  1.
       22    1    1    2    0    0  0.30957607108E-03 -0.20050508473E-04 -0.14053950897E-03  0.34057410392E-03  0.00000000000E+00 0. -1.
       22    1    1    2    0    0 -0.12260407601E-01  0.15257390368E-01 -0.28809684165E-01  0.34829634754E-01  0.00000000000E+00 0. -1.
</event>
<event>
 5   0  0.4146200E+04  0.9118800E+02  0.7546771E-02  0.1180000E+00
      -11   -1    0    0    0    0  0.00000000000E+00  0.00000000000E+00  0.34996269501E-01  0.35000000000E-01  0.51099999109E-03 0. -1.
       11   -1    0    0    0    0 -0.00000000000E+00 -0.00000000000E+00 -0.34996269501E-01  0.35000000000E-01  0.51099999109E-03 0.  1.
       22    1    1    2    0    0 -0.26739635037E-03 -0.24169454576E-03 -0.93879814274E-03  0.10056137501E-02  0.00000000000E+00 0. -1.
       22    1    1    2    0    0 -0.88816922829E-02 -0.37896911288E-02  0.33535922611E-01  0.34898485956E-01  0.00000000000E+00 0. -1.
       22    1    1    2    0    0  0.91490886333E-02  0.40313856746E-02 -0.32597124468E-01  0.34095900294E-01  0.00000000000E+00 0.  1.
</event>
<event>
 5   0  0.4146200E+04  0.9118800E+02  0.7546771E-02  0.1180000E+00
      -11   -1    0    0    0    0  0.00000000000E+00  0.00000000000E+00  0.34996269501E-01  0.35000000000E-01  0.51099999109E-03 0.  1.
       11   -1    0    0    0    0 -0.00000000000E+00 -0.00000000000E+00 -0.34996269501E-01  0.35000000000E-01  0.51099999109E-03 0. -1.
       22    1    1    2    0    0  0.11461418374E-01  0.60962752455E-02 -0.91277846841E-02  0.15869629368E-01  0.00000000000E+00 0. -1.
       22    1    1    2    0    0  0.70296935005E-02  0.47499384678E-02 -0.17795783509E-01  0.19714675165E-01  0.00000000000E+00 0. -1.
       22    1    1    2    0    0 -0.18491111875E-01 -0.10846213713E-01  0.26923568193E-01  0.34415695468E-01  0.00000000000E+00 0.  1.
</event>
<event>
 5   0  0.4146200E+04  0.9118800E+02  0.7546771E-02  0.1180000E+00
      -11   -1    0    0    0    0  0.00000000000E+00  0.00000000000E+00  0.34996269501E-01  0.35000000000E-01  0.51099999109E-03 0. -1.
       11   -1    0    0    0    0 -0.00000000000E+00 -0.00000000000E+00 -0.34996269501E-01  0.35000000000E-01  0.51099999109E-03 0. -1.
       22    1    1    2    0    0  0.74336465009E-03 -0.54884268575E-03 -0.21365909113E-02  0.23278402048E-02  0.00000000000E+00 0.  1.
       22    1    1    2    0    0 -0.40961608653E-03  0.20633575213E-03 -0.32764541318E-01  0.32767751335E-01  0.00000000000E+00 0. -1.
       22    1    1    2    0    0 -0.33374856356E-03  0.34250693362E-03  0.34901132229E-01  0.34904408460E-01  0.00000000000E+00 0. -1.
</event>
<event>
 5   0  0.4146200E+04  0.9118800E+02  0.7546771E-02  0.1180000E+00
      -11   -1    0    0    0    0  0.00000000000E+00  0.00000000000E+00  0.34996269501E-01  0.35000000000E-01  0.51099999109E-03 0.  1.
       11   -1    0    0    0    0 -0.00000000000E+00 -0.00000000000E+00 -0.34996269501E-01  0.35000000000E-01  0.51099999109E-03 0. -1.
       22    1    1    2    0    0  0.60318067818E-02  0.73545462084E-03 -0.30289752556E-01  0.30893246777E-01  0.00000000000E+00 0. -1.
       22    1    1    2    0    0  0.11682627917E-02 -0.70724262023E-03 -0.39181435074E-02  0.41493226699E-02  0.00000000000E+00 0. -1.
       22    1    1    2    0    0 -0.72000695735E-02 -0.28212000611E-04  0.34207896063E-01  0.34957430553E-01  0.00000000000E+00 0.  1.
</event>
<event>
 5   0  0.4146200E+04  0.9118800E+02  0.7546771E-02  0.1180000E+00
      -11   -1    0    0    0    0  0.00000000000E+00  0.00000000000E+00  0.34996269501E-01  0.35000000000E-01  0.51099999109E-03 0. -1.
       11   -1    0    0    0    0 -0.00000000000E+00 -0.00000000000E+00 -0.34996269501E-01  0.35000000000E-01  0.51099999109E-03 0.  1.
       22    1    1    2    0    0  0.54453068988E-02  0.57662146399E-02  0.15108400365E-01  0.17063538909E-01  0.00000000000E+00 0. -1.
       22    1    1    2    0    0 -0.67829298806E-02 -0.17787158417E-01 -0.28891262660E-01  0.34599078029E-01  0.00000000000E+00 0.  1.
       22    1    1    2    0    0  0.13376229818E-02  0.12020943777E-01  0.13782862295E-01  0.18337383062E-01  0.00000000000E+00 0. -1.
</event>
<event>
 5   0  0.4146200E+04  0.9118800E+02  0.7546771E-02  0.1180000E+00
      -11   -1    0    0    0    0  0.00000000000E+00  0.00000000000E+00  0.34996269501E-01  0.35000000000E-01  0.51099999109E-03 0.  1.
       11   -1    0    0    0    0 -0.00000000000E+00 -0.00000000000E+00 -0.34996269501E-01  0.35000000000E-01  0.51099999109E-03 0. -1.
       22    1    1    2    0    0 -0.54782333547E-02  0.10796787459E-01  0.24264009011E-01  0.27116854416E-01  0.00000000000E+00 0.  1.
       22    1    1    2    0    0  0.50759316014E-02  0.19186817744E-02  0.71586277251E-02  0.89828933134E-02  0.00000000000E+00 0.  1.
       22    1    1    2    0    0  0.40230175327E-03 -0.12715469234E-01 -0.31422636736E-01  0.33900252270E-01  0.00000000000E+00 0. -1.
</event>
<event>
 5   0  0.4146200E+04  0.9118800E+02  0.7546771E-02  0.1180000E+00
      -11   -1    0    0    0    0  0.00000000000E+00  0.00000000000E+00  0.34996269501E-01  0.35000000000E-01  0.51099999109E-03 0. -1.
       11   -1    0    0    0    0 -0.00000000000E+00 -0.00000000000E+00 -0.34996269501E-01  0.35000000000E-01  0.51099999109E-03 0.  1.
       22    1    1    2    0    0  0.29144092869E-02  0.49692036367E-03 -0.34489815828E-01  0.34616298289E-01  0.00000000000E+00 0.  1.
       22    1    1    2    0    0  0.14647139565E-03  0.55321545758E-04 -0.36145929572E-03  0.39391263705E-03  0.00000000000E+00 0.  1.
       22    1    1    2    0    0 -0.30608806825E-02 -0.55224190943E-03  0.34851275124E-01  0.34989789074E-01  0.00000000000E+00 0. -1.
</event>
<event>
 5   0  0.4146200E+04  0.9118800E+02  0.7546771E-02  0.1180000E+00
      -11   -1    0    0    0    0  0.00000000000E+00  0.00000000000E+00  0.34996269501E-01  0.35000000000E-01  0.51099999109E-03 0.  1.
       11   -1    0    0    0    0 -0.00000000000E+00 -0.00000000000E+00 -0.34996269501E-01  0.35000000000E-01  0.51099999109E-03 0. -1.
       22    1    1    2    0    0 -0.10369465173E-01 -0.68531650951E-02 -0.27144929439E-01  0.29855298928E-01  0.00000000000E+00 0. -1.
       22    1    1    2    0    0 -0.18551011195E-02  0.39613812714E-02 -0.43915695749E-02  0.61983727762E-02  0.00000000000E+00 0. -1.
       22    1    1    2    0    0  0.12224566293E-01  0.28917838237E-02  0.31536499014E-01  0.33946328296E-01  0.00000000000E+00 0.  1.
</event>
<event>
 5   0  0.4146200E+04  0.9118800E+02  0.7546771E-02  0.1180000E+00
      -11   -1    0    0    0    0  0.00000000000E+00  0.00000000000E+00  0.34996269501E-01  0.35000000000E-01  0.51099999109E-03 0. -1.
       11   -1    0    0    0    0 -0.00000000000E+00 -0.00000000000E+00 -0.34996269501E-01  0.35000000000E-01  0.51099999109E-03 0.  1.
       22    1    1    2    0    0 -0.55799747159E-02 -0.14924214345E-01  0.20073497672E-01  0.25628374908E-01  0.00000000000E+00 0. -1.
       22    1    1    2    0    0 -0.19270695983E-02 -0.24394450112E-03  0.98251315965E-02  0.10015304141E-01  0.00000000000E+00 0. -1.
       22    1    1    2    0    0  0.75070443141E-02  0.15168158846E-01 -0.29898629268E-01  0.34356320950E-01  0.00000000000E+00 0.  1.
</event>
<event>
 5   0  0.4146200E+04  0.9118800E+02  0.7546771E-02  0.1180000E+00
      -11   -1    0    0    0    0  0.00000000000E+00  0.00000000000E+00  0.34996269501E-01  0.35000000000E-01  0.51099999109E-03 0.  1.
       11   -1    0    0    0    0 -0.00000000000E+00 -0.00000000000E+00 -0.34996269501E-01  0.35000000000E-01  0.51099999109E-03 0.  1.
       22    1    1    2    0    0  0.16407678953E-03 -0.17881275837E-03  0.34978292448E-01  0.34979134320E-01  0.00000000000E+00 0.  1.
       22    1    1    2    0    0  0.16870584935E-03 -0.46489371066E-04 -0.36037731449E-03  0.40061794022E-03  0.00000000000E+00 0. -1.
       22    1    1    2    0    0 -0.33278263887E-03  0.22530212944E-03 -0.34617915134E-01  0.34620247740E-01  0.00000000000E+00 0.  1.
</event>
<event>
 5   0  0.4146200E+04  0.9118800E+02  0.7546771E-02  0.1180000E+00
      -11   -1    0    0    0    0  0.00000000000E+00  0.00000000000E+00  0.34996269501E-01  0.35000000000E-01  0.51099999109E-03 0. -1.
       11   -1    0    0    0    0 -0.00000000000E+00 -0.00000000000E+00 -0.34996269501E-01  0.35000000000E-01  0.51099999109E-03 0.  1.
       22    1    1    2    0    0 -0.14327771704E-02 -0.14132788318E-02 -0.12340501199E-01  0.12503526595E-01  0.00000000000E+00 0.  1.
       22    1    1    2    0    0  0.75436628284E-02 -0.33240342328E-02  0.33745478564E-01  0.34737780239E-01  0.00000000000E+00 0. -1.
       22    1    1    2    0    0 -0.61108856581E-02  0.47373130646E-02 -0.21404977365E-01  0.22758693165E-01  0.00000000000E+00 0.  1.
</event>
<event>
 5   0  0.4146200E+04  0.9118800E+02  0.7546771E-02  0.1180000E+00
      -11   -1    0    0    0    0  0.00000000000E+00  0.00000000000E+00  0.34996269501E-01  0.35000000000E-01  0.51099999109E-03 0.  1.
       11   -1    0    0    0    0 -0.00000000000E+00 -0.00000000000E+00 -0.34996269501E-01  0.35000000000E-01  0.51099999109E-03 0. -1.
       22    1    1    2    0    0 -0.12036948187E-01  0.18649095908E-01 -0.22067246383E-01  0.31299205465E-01  0.00000000000E+00 0. -1.
       22    1    1    2    0    0 -0.63215819417E-03  0.97498118041E-03 -0.37258759911E-02  0.39028661501E-02  0.00000000000E+00 0. -1.
       22    1    1    2    0    0  0.12669106381E-01 -0.19624077088E-01  0.25793122374E-01  0.34797928385E-01  0.00000000000E+00 0.  1.
</event>
<event>
 5   0  0.4146200E+04  0.9118800E+02  0.7546771E-02  0.1180000E+00
      -11   -1    0    0    0    0  0.00000000000E+00  0.00000000000E+00  0.34996269501E-01  0.35000000000E-01  0.51099999109E-03 0. -1.
       11   -1    0    0    0    0 -0.00000000000E+00 -0.00000000000E+00 -0.34996269501E-01  0.35000000000E-01  0.51099999109E-03 0.  1.
       22    1    1    2    0    0 -0.11796382036E-01  0.16426269656E-01 -0.28447417808E-01  0.34903188162E-01  0.00000000000E+00 0.  1.
       22    1    1    2    0    0  0.74231626667E-04  0.51009466794E-05  0.11252845696E-02  0.11277418662E-02  0.00000000000E+00 0.  1.
       22    1    1    2    0    0  0.11722150409E-01 -0.16431370602E-01  0.27322133238E-01  0.33969069972E-01  0.00000000000E+00 0. -1.
</event>
<event>
 5   0  0.4146200E+04  0.9118800E+02  0.7546771E-02  0.1180000E+00
      -11   -1    0    0    0    0  0.00000000000E+00  0.00000000000E+00  0.34996269501E-01  0.35000000000E-01  0.51099999109E-03 0.  1.
       11   -1    0    0    0    0 -0.00000000000E+00 -0.00000000000E+00 -0.34996269501E-01  0.35000000000E-01  0.51099999109E-03 0. -1.
       22    1    1    2    0    0 -0.56507341614E-03  0.19016930248E-03 -0.30527109360E-01  0.30532931045E-01  0.00000000000E+00 0. -1.
       22    1    1    2    0    0  0.21624316885E-02  0.15317042877E-03  0.34812940418E-01  0.34880372597E-01  0.00000000000E+00 0.  1.
       22    1    1    2    0    0 -0.15973582724E-02 -0.34333973125E-03 -0.42858310575E-02  0.45866963574E-02  0.00000000000E+00 0. -1.
</event>
<event>
 5   0  0.4146200E+04  0.9118800E+02  0.7546771E-02  0.1180000E+00
      -11   -1    0    0    0    0  0.00000000000E+00  0.00000000000E+00  0.34996269501E-01  0.35000000000E-01  0.51099999109E-03 0.  1.
       11   -1    0    0    0    0 -0.00000000000E+00 -0.00000000000E+00 -0.34996269501E-01  0.35000000000E-01  0.51099999109E-03 0. -1.
       22    1    1    2    0    0 -0.90383921909E-02 -0.15048894146E-01 -0.30089488057E-01  0.34835887242E-01  0.00000000000E+00 0. -1.
       22    1    1    2    0    0  0.90279664376E-02  0.15015931563E-01  0.27711117045E-01  0.32785490488E-01  0.00000000000E+00 0.  1.
       22    1    1    2    0    0  0.10425753303E-04  0.32962583508E-04  0.23783710125E-02  0.23786222695E-02  0.00000000000E+00 0.  1.
</event>
<event>
 5   0  0.4146200E+04  0.9118800E+02  0.7546771E-02  0.1180000E+00
      -11   -1    0    0    0    0  0.00000000000E+00  0.00000000000E+00  0.34996269501E-01  0.35000000000E-01  0.51099999109E-03 0.  1.
       11   -1    0    0    0    0 -0.00000000000E+00 -0.00000000000E+00 -0.34996269501E-01  0.35000000000E-01  0.51099999109E-03 0. -1.
       22    1    1    2    0    0 -0.17308238902E-02 -0.46653084967E-03 -0.41126182511E-02  0.44863160000E-02  0.00000000000E+00 0. -1.
       22    1    1    2    0    0 -0.77255390164E-03 -0.74320337989E-03 -0.30635629698E-01  0.30654379749E-01  0.00000000000E+00 0. -1.
       22    1    1    2    0    0  0.25033777918E-02  0.12097342296E-02  0.34748247950E-01  0.34859304251E-01  0.00000000000E+00 0.  1.
</event>
<event>
 5   0  0.4146200E+04  0.9118800E+02  0.7546771E-02  0.1180000E+00
      -11   -1    0    0    0    0  0.00000000000E+00  0.00000000000E+00  0.34996269501E-01  0.35000000000E-01  0.51099999109E-03 0. -1.
       11   -1    0    0    0    0 -0.00000000000E+00 -0.00000000000E+00 -0.34996269501E-01  0.35000000000E-01  0.51099999109E-03 0.  1.
       22    1    1    2    0    0  0.39728385901E-02 -0.94121371323E-02 -0.28766624023E-01  0.30526880443E-01  0.00000000000E+00 0.  1.
       22    1    1    2    0    0 -0.10134843784E-01  0.15087267885E-01  0.16063615769E-01  0.24256555038E-01  0.00000000000E+00 0. -1.
       22    1    1    2    0    0  0.61620051935E-02 -0.56751307522E-02  0.12703008254E-01  0.15216564519E-01  0.00000000000E+00 0.  1.
</event>
<event>
 5   0  0.4146200E+04  0.9118800E+02  0.7546771E-02  0.1180000E+00
      -11   -1    0    0    0    0  0.00000000000E+00  0.00000000000E+00  0.34996269501E-01  0.35000000000E-01  0.51099999109E-03 0.  1.
       11   -1    0    0    0    0 -0.00000000000E+00 -0.00000000000E+00 -0.34996269501E-01  0.35000000000E-01  0.51099999109E-03 0. -1.
       22    1    1    2    0    0 -0.87076014705E-02 -0.82386602322E-02 -0.32854548936E-01  0.34973121559E-01  0.00000000000E+00 0. -1.
       22    1    1    2    0    0  0.24229953757E-04 -0.14093302753E-04  0.90277601057E-03  0.90321107008E-03  0.00000000000E+00 0.  1.
       22    1    1    2    0    0  0.86833715167E-02  0.82527535350E-02  0.31951772925E-01  0.34123667371E-01  0.00000000000E+00 0.  1.
</event>
<event>
 5   0  0.4146200E+04  0.9118800E+02  0.7546771E-02  0.1180000E+00
      -11   -1    0    0    0    0  0.00000000000E+00  0.00000000000E+00  0.34996269501E-01  0.35000000000E-01  0.51099999109E-03 0. -1.
       11   -1    0    0    0    0 -0.00000000000E+00 -0.00000000000E+00 -0.34996269501E-01  0.35000000000E-01  0.51099999109E-03 0.  1.
       22    1    1    2    0    0  0.41033776500E-04 -0.26810836617E-03  0.59612617711E-03  0.65492922203E-03  0.00000000000E+00 0.  1.
       22    1    1    2    0    0  0.14635189636E-01 -0.93272865842E-02  0.29666290525E-01  0.34369693688E-01  0.00000000000E+00 0. -1.
       22    1    1    2    0    0 -0.14676223413E-01  0.95953949504E-02 -0.30262416702E-01  0.34975377090E-01  0.00000000000E+00 0.  1.
</event>
<event>
 5   0  0.4146200E+04  0.9118800E+02  0.7546771E-02  0.1180000E+00
      -11   -1    0    0    0    0  0.00000000000E+00  0.00000000000E+00  0.34996269501E-01  0.35000000000E-01  0.51099999109E-03 0. -1.
       11   -1    0    0    0    0 -0.00000000000E+00 -0.00000000000E+00 -0.34996269501E-01  0.35000000000E-01  0.51099999109E-03 0.  1.
       22    1    1    2    0    0  0.28922614045E-03  0.17362331666E-02 -0.13208808262E-02  0.22006552493E-02  0.00000000000E+00 0.  1.
       22    1    1    2    0    0 -0.27729946071E-03 -0.14142589661E-01 -0.30513571611E-01  0.33632837968E-01  0.00000000000E+00 0.  1.
       22    1    1    2    0    0 -0.11926679739E-04  0.12406356494E-01  0.31834452438E-01  0.34166506782E-01  0.00000000000E+00 0. -1.
</event>
<event>
 5   0  0.4146200E+04  0.9118800E+02  0.7546771E-02  0.1180000E+00
      -11   -1    0    0    0    0  0.00000000000E+00  0.00000000000E+00  0.34996269501E-01  0.35000000000E-01  0.51099999109E-03 0. -1.
       11   -1    0    0    0    0 -0.00000000000E+00 -0.00000000000E+00 -0.34996269501E-01  0.35000000000E-01  0.51099999109E-03 0.  1.
       22    1    1    2    0    0  0.65434255983E-04 -0.36681408424E-04  0.20094203265E-02  0.20108200358E-02  0.00000000000E+00 0. -1.
       22    1    1    2    0    0  0.48640792507E-02 -0.15698891621E-01  0.28734274097E-01  0.33102461736E-01  0.00000000000E+00 0. -1.
       22    1    1    2    0    0 -0.49295135067E-02  0.15735573029E-01 -0.30743694423E-01  0.34886718229E-01  0.00000000000E+00 0.  1.
</event>
<event>
 5   0  0.4146200E+04  0.9118800E+02  0.7546771E-02  0.1180000E+00
      -11   -1    0    0    0    0  0.00000000000E+00  0.00000000000E+00  0.34996269501E-01  0.35000000000E-01  0.51099999109E-03 0.  1.
       11   -1    0    0    0    0 -0.00000000000E+00 -0.00000000000E+00 -0.34996269501E-01  0.35000000000E-01  0.51099999109E-03 0. -1.
       22    1    1    2    0    0  0.24983895682E-02 -0.60660047436E-02  0.34214577531E-01  0.34837848378E-01  0.00000000000E+00 0.  1.
       22    1    1    2    0    0 -0.94730871335E-03  0.75865969685E-04 -0.10133811806E-02  0.13892771001E-02  0.00000000000E+00 0.  1.
       22    1    1    2    0    0 -0.15510808549E-02  0.59901387739E-02 -0.33201196351E-01  0.33772874522E-01  0.00000000000E+00 0. -1.
</event>
<event>
 5   0  0.4146200E+04  0.9118800E+02  0.7546771E-02  0.1180000E+00
      -11   -1    0    0    0    0  0.00000000000E+00  0.00000000000E+00  0.34996269501E-01  0.35000000000E-01  0.51099999109E-03 0. -1.
       11   -1    0    0    0    0 -0.00000000000E+00 -0.00000000000E+00 -0.34996269501E-01  0.35000000000E-01  0.51099999109E-03 0.  1.
       22    1    1    2    0    0 -0.15782243299E-01 -0.15786233933E-01  0.21996273366E-01  0.31338800668E-01  0.00000000000E+00 0. -1.
       22    1    1    2    0    0  0.14951359643E-04  0.10015736000E-03  0.42542892920E-02  0.42554943802E-02  0.00000000000E+00 0.  1.
       22    1    1    2    0    0  0.15767291939E-01  0.15686076573E-01 -0.26250562658E-01  0.34405704952E-01  0.00000000000E+00 0.  1.
</event>
<event>
 5   0  0.4146200E+04  0.9118800E+02  0.7546771E-02  0.1180000E+00
      -11   -1    0    0    0    0  0.00000000000E+00  0.00000000000E+00  0.34996269501E-01  0.35000000000E-01  0.51099999109E-03 0.  1.
       11   -1    0    0    0    0 -0.00000000000E+00 -0.00000000000E+00 -0.34996269501E-01  0.35000000000E-01  0.51099999109E-03 0. -1.
       22    1    1    2    0    0  0.18589050153E-02 -0.99255247547E-03  0.16015671634E-01  0.16153712458E-01  0.00000000000E+00 0.  1.
       22    1    1    2    0    0 -0.83492115205E-02  0.10574584056E-01 -0.31647712137E-01  0.34396349290E-01  0.00000000000E+00 0. -1.
       22    1    1    2    0    0  0.64903065052E-02 -0.95820315805E-02  0.15632040503E-01  0.19449938252E-01  0.00000000000E+00 0.  1.
</event>
<event>
 5   0  0.4146200E+04  0.9118800E+02  0.7546771E-02  0.1180000E+00
      -11   -1    0    0    0    0  0.00000000000E+00  0.00000000000E+00  0.34996269501E-01  0.35000000000E-01  0.51099999109E-03 0. -1.
       11   -1    0    0    0    0 -0.00000000000E+00 -0.00000000000E+00 -0.34996269501E-01  0.35000000000E-01  0.51099999109E-03 0. -1.
       22    1    1    2    0    0 -0.53223067233E-03  0.15756638382E-03 -0.34345168068E-01  0.34349653073E-01  0.00000000000E+00 0. -1.
       22    1    1    2    0    0  0.32276863517E-03  0.17391900926E-03 -0.59990482875E-03  0.70307411927E-03  0.00000000000E+00 0.  1.
       22    1    1    2    0    0  0.20946203716E-03 -0.33148539308E-03  0.34945072897E-01  0.34947272807E-01  0.00000000000E+00 0. -1.
</event>
<event>
 5   0  0.4146200E+04  0.9118800E+02  0.7546771E-02  0.1180000E+00
      -11   -1    0    0    0    0  0.00000000000E+00  0.00000000000E+00  0.34996269501E-01  0.35000000000E-01  0.51099999109E-03 0. -1.
       11   -1    0    0    0    0 -0.00000000000E+00 -0.00000000000E+00 -0.34996269501E-01  0.35000000000E-01  0.51099999109E-03 0.  1.
       22    1    1    2    0    0  0.69296020444E-03  0.12219758197E-02 -0.15811515583E-02  0.21150553182E-02  0.00000000000E+00 0. -1.
       22    1    1    2    0    0 -0.78263897387E-03  0.53719970685E-03  0.34703155302E-01  0.34716135948E-01  0.00000000000E+00 0. -1.
       22    1    1    2    0    0  0.89678769430E-04 -0.17591755266E-02 -0.33122003743E-01  0.33168808733E-01  0.00000000000E+00 0.  1.
</event>
<event>
 5   0  0.4146200E+04  0.9118800E+02  0.7546771E-02  0.1180000E+00
      -11   -1    0    0    0    0  0.00000000000E+00  0.00000000000E+00  0.34996269501E-01  0.35000000000E-01  0.51099999109E-03 0.  1.
       11   -1    0    0    0    0 -0.00000000000E+00 -0.00000000000E+00 -0.34996269501E-01  0.35000000000E-01  0.51099999109E-03 0. -1.
       22    1    1    2    0    0  0.21483567670E-02  0.17447558311E-02 -0.20015744213E-01  0.20206177919E-01  0.00000000000E+00 0. -1.
       22    1    1    2    0    0 -0.76728831091E-02  0.58821321861E-03 -0.13611386298E-01  0.15636142969E-01  0.00000000000E+00 0.  1.
       22    1    1    2    0    0  0.55245263421E-02 -0.23329690497E-02  0.33627130511E-01  0.34157679112E-01  0.00000000000E+00 0.  1.
</event>
<event>
 5   0  0.4146200E+04  0.9118800E+02  0.7546771E-02  0.1180000E+00
      -11   -1    0    0    0    0  0.00000000000E+00  0.00000000000E+00  0.34996269501E-01  0.35000000000E-01  0.51099999109E-03 0.  1.
       11   -1    0    0    0    0 -0.00000000000E+00 -0.00000000000E+00 -0.34996269501E-01  0.35000000000E-01  0.51099999109E-03 0. -1.
       22    1    1    2    0    0  0.87883348386E-02  0.90458138565E-02  0.10197753482E-01  0.16218993607E-01  0.00000000000E+00 0.  1.
       22    1    1    2    0    0 -0.40020563983E-03  0.18344836408E-03  0.20573622452E-01  0.20578332261E-01  0.00000000000E+00 0. -1.
       22    1    1    2    0    0 -0.83881291988E-02 -0.92292622206E-02 -0.30771375934E-01  0.33202674131E-01  0.00000000000E+00 0. -1.
</event>
<event>
 5   0  0.4146200E+04  0.9118800E+02  0.7546771E-02  0.1180000E+00
      -11   -1    0    0    0    0  0.00000000000E+00  0.00000000000E+00  0.34996269501E-01  0.35000000000E-01  0.51099999109E-03 0. -1.
       11   -1    0    0    0    0 -0.00000000000E+00 -0.00000000000E+00 -0.34996269501E-01  0.35000000000E-01  0.51099999109E-03 0.  1.
       22    1    1    2    0    0  0.14911975383E-01  0.18696745396E-01  0.25503600753E-01  0.34962393362E-01  0.00000000000E+00 0. -1.
       22    1    1    2    0    0 -0.10398217625E-03 -0.84355160580E-04 -0.54456933751E-03  0.56078859604E-03  0.00000000000E+00 0. -1.
       22    1    1    2    0    0 -0.14807993207E-01 -0.18612390236E-01 -0.24959031415E-01  0.34476818042E-01  0.00000000000E+00 0.  1.
</event>
<event>
 5   0  0.4146200E+04  0.9118800E+02  0.7546771E-02  0.1180000E+00
      -11   -1    0    0    0    0  0.00000000000E+00  0.00000000000E+00  0.34996269501E-01  0.35000000000E-01  0.51099999109E-03 0.  1.
       11   -1    0    0    0    0 -0.00000000000E+00 -0.00000000000E+00 -0.34996269501E-01  0.35000000000E-01  0.51099999109E-03 0.  1.
       22    1    1    2    0    0 -0.58069120202E-02 -0.95696684649E-02 -0.30911511184E-01  0.32875831631E-01  0.00000000000E+00 0.  1.
       22    1    1    2    0    0  0.58069120202E-02  0.95696684649E-02  0.69744119159E-02  0.13188677087E-01  0.00000000000E+00 0. -1.
       22    1    1    2    0    0 -0.00000000000E+00  0.00000000000E+00  0.23937099269E-01  0.23935491282E-01  0.00000000000E+00 0.  1.
</event>
<event>
 5   0  0.4146200E+04  0.9118800E+02  0.7546771E-02  0.1180000E+00
      -11   -1    0    0    0    0  0.00000000000E+00  0.00000000000E+00  0.34996269501E-01  0.35000000000E-01  0.51099999109E-03 0.  1.
       11   -1    0    0    0    0 -0.00000000000E+00 -0.00000000000E+00 -0.34996269501E-01  0.35000000000E-01  0.51099999109E-03 0.  1.
       22    1    1    2    0    0  0.00000000000E+00  0.00000000000E+00  0.34141094033E-01  0.34140420672E-01  0.00000000000E+00 0.  1.
       22    1    1    2    0    0  0.31711167764E-02  0.41916487213E-02 -0.11955185254E-01  0.13059569483E-01  0.00000000000E+00 0. -1.
       22    1    1    2    0    0 -0.31711167764E-02 -0.41916487213E-02 -0.22185908779E-01  0.22800009846E-01  0.00000000000E+00 0.  1.
</event>
<event>
 5   0  0.4146200E+04  0.9118800E+02  0.7546771E-02  0.1180000E+00
      -11   -1    0    0    0    0  0.00000000000E+00  0.00000000000E+00  0.34996269501E-01  0.35000000000E-01  0.51099999109E-03 0. -1.
       11   -1    0    0    0    0 -0.00000000000E+00 -0.00000000000E+00 -0.34996269501E-01  0.35000000000E-01  0.51099999109E-03 0.  1.
       22    1    1    2    0    0  0.10337143760E-01  0.10475113286E-01 -0.31560951953E-01  0.34823529799E-01  0.00000000000E+00 0.  1.
       22    1    1    2    0    0  0.36046580833E-05 -0.98027554676E-04  0.36776168854E-02  0.36789248906E-02  0.00000000000E+00 0. -1.
       22    1    1    2    0    0 -0.10340748418E-01 -0.10377085731E-01  0.27883335068E-01  0.31497545311E-01  0.00000000000E+00 0. -1.
</event>
<event>
 5   0  0.4146200E+04  0.9118800E+02  0.7546771E-02  0.1180000E+00
      -11   -1    0    0    0    0  0.00000000000E+00  0.00000000000E+00  0.34996269501E-01  0.35000000000E-01  0.51099999109E-03 0.  1.
       11   -1    0    0    0    0 -0.00000000000E+00 -0.00000000000E+00 -0.34996269501E-01  0.35000000000E-01  0.51099999109E-03 0. -1.
       22    1    1    2    0    0 -0.11281842907E-01 -0.23758443526E-02 -0.33032381483E-01  0.34986609470E-01  0.00000000000E+00 0. -1.
       22    1    1    2    0    0  0.11303306621E-01  0.23323340343E-02  0.32689669027E-01  0.34667260978E-01  0.00000000000E+00 0.  1.
       22    1    1    2    0    0 -0.21463713848E-04  0.43510318229E-04  0.34271245668E-03  0.34612955200E-03  0.00000000000E+00 0. -1.
</event>
<event>
 5   0  0.4146200E+04  0.9118800E+02  0.7546771E-02  0.1180000E+00
      -11   -1    0    0    0    0  0.00000000000E+00  0.00000000000E+00  0.34996269501E-01  0.35000000000E-01  0.51099999109E-03 0.  1.
       11   -1    0    0    0    0 -0.00000000000E+00 -0.00000000000E+00 -0.34996269501E-01  0.35000000000E-01  0.51099999109E-03 0. -1.
       22    1    1    2    0    0  0.20455756427E-03  0.75598076315E-03 -0.21451274649E-02  0.22836204921E-02  0.00000000000E+00 0. -1.
       22    1    1    2    0    0  0.34956598863E-02  0.12273763731E-02 -0.32554029809E-01  0.32764171706E-01  0.00000000000E+00 0. -1.
       22    1    1    2    0    0 -0.37002174506E-02 -0.19833571363E-02  0.34699157274E-01  0.34952207802E-01  0.00000000000E+00 0.  1.
</event>
<event>
 5   0  0.4146200E+04  0.9118800E+02  0.7546771E-02  0.1180000E+00
      -11   -1    0    0    0    0  0.00000000000E+00  0.00000000000E+00  0.34996269501E-01  0.35000000000E-01  0.51099999109E-03 0.  1.
       11   -1    0    0    0    0 -0.00000000000E+00 -0.00000000000E+00 -0.34996269501E-01  0.35000000000E-01  0.51099999109E-03 0.  1.
       22    1    1    2    0    0  0.13196777303E-02  0.15833771100E-01 -0.14076299772E-02  0.15950902128E-01  0.00000000000E+00 0. -1.
       22    1    1    2    0    0  0.00000000000E+00 -0.00000000000E+00  0.25331663322E-01  0.25329605744E-01  0.00000000000E+00 0.  1.
       22    1    1    2    0    0 -0.13196777303E-02 -0.15833771100E-01 -0.23924033345E-01  0.28719492127E-01  0.00000000000E+00 0.  1.
</event>
<event>
 5   0  0.4146200E+04  0.9118800E+02  0.7546771E-02  0.1180000E+00
      -11   -1    0    0    0    0  0.00000000000E+00  0.00000000000E+00  0.34996269501E-01  0.35000000000E-01  0.51099999109E-03 0.  1.
       11   -1    0    0    0    0 -0.00000000000E+00 -0.00000000000E+00 -0.34996269501E-01  0.35000000000E-01  0.51099999109E-03 0. -1.
       22    1    1    2    0    0  0.16020137746E-01  0.99672574860E-03  0.11948172390E-01  0.20009925015E-01  0.00000000000E+00 0.  1.
       22    1    1    2    0    0 -0.21413722216E-03 -0.54343380588E-03  0.16997184976E-01  0.17007218237E-01  0.00000000000E+00 0.  1.
       22    1    1    2    0    0 -0.15806000524E-01 -0.45329194272E-03 -0.28945357367E-01  0.32982856748E-01  0.00000000000E+00 0. -1.
</event>
<event>
 5   0  0.4146200E+04  0.9118800E+02  0.7546771E-02  0.1180000E+00
      -11   -1    0    0    0    0  0.00000000000E+00  0.00000000000E+00  0.34996269501E-01  0.35000000000E-01  0.51099999109E-03 0.  1.
       11   -1    0    0    0    0 -0.00000000000E+00 -0.00000000000E+00 -0.34996269501E-01  0.35000000000E-01  0.51099999109E-03 0. -1.
       22    1    1    2    0    0 -0.16691120624E-01  0.78936709843E-02 -0.17971343316E-01  0.25765727816E-01  0.00000000000E+00 0. -1.
       22    1    1    2    0    0 -0.33318452624E-02 -0.61567667654E-02 -0.84911051403E-02  0.11004809692E-01  0.00000000000E+00 0.  1.
       22    1    1    2    0    0  0.20022965887E-01 -0.17369042189E-02  0.26462448456E-01  0.33229462492E-01  0.00000000000E+00 0.  1.
</event>
<event>
 5   0  0.4146200E+04  0.9118800E+02  0.7546771E-02  0.1180000E+00
      -11   -1    0    0    0    0  0.00000000000E+00  0.00000000000E+00  0.34996269501E-01  0.35000000000E-01  0.51099999109E-03 0. -1.
       11   -1    0    0    0    0 -0.00000000000E+00 -0.00000000000E+00 -0.34996269501E-01  0.35000000000E-01  0.51099999109E-03 0.  1.
       22    1    1    2    0    0 -0.96262394176E-03 -0.29989806382E-02  0.34804981055E-01  0.34947206412E-01  0.00000000000E+00 0. -1.
       22    1    1    2    0    0  0.40222010152E-03 -0.80448855533E-04 -0.75480407131E-03  0.85905891211E-03  0.00000000000E+00 0.  1.
       22    1    1    2    0    0  0.56040384024E-03  0.30794294938E-02 -0.34050176984E-01  0.34193734676E-01  0.00000000000E+00 0.  1.
</event>
<event>
 5   0  0.4146200E+04  0.9118800E+02  0.7546771E-02  0.1180000E+00
      -11   -1    0    0    0    0  0.00000000000E+00  0.00000000000E+00  0.34996269501E-01  0.35000000000E-01  0.51099999109E-03 0. -1.
       11   -1    0    0    0    0 -0.00000000000E+00 -0.00000000000E+00 -0.34996269501E-01  0.35000000000E-01  0.51099999109E-03 0.  1.
       22    1    1    2    0    0  0.14696583705E-01 -0.12254396524E-02 -0.18217378343E-01  0.23438518482E-01  0.00000000000E+00 0.  1.
       22    1    1    2    0    0  0.14909783137E-02 -0.96975638501E-02 -0.88309328175E-02  0.13200421788E-01  0.00000000000E+00 0.  1.
       22    1    1    2    0    0 -0.16187562019E-01  0.10923003502E-01  0.27048311161E-01  0.33361059730E-01  0.00000000000E+00 0. -1.
</event>
<event>
 5   0  0.4146200E+04  0.9118800E+02  0.7546771E-02  0.1180000E+00
      -11   -1    0    0    0    0  0.00000000000E+00  0.00000000000E+00  0.34996269501E-01  0.35000000000E-01  0.51099999109E-03 0.  1.
       11   -1    0    0    0    0 -0.00000000000E+00 -0.00000000000E+00 -0.34996269501E-01  0.35000000000E-01  0.51099999109E-03 0. -1.
       22    1    1    2    0    0  0.63221600999E-03 -0.39324887288E-03  0.34722513185E-01  0.34730494723E-01  0.00000000000E+00 0.  1.
       22    1    1    2    0    0  0.10458291367E-02 -0.83548557600E-03 -0.30805545324E-01  0.30834613950E-01  0.00000000000E+00 0. -1.
       22    1    1    2    0    0 -0.16780451467E-02  0.12287344489E-02 -0.39169678615E-02  0.44348913277E-02  0.00000000000E+00 0.  1.
</event>
<event>
 5   0  0.4146200E+04  0.9118800E+02  0.7546771E-02  0.1180000E+00
      -11   -1    0    0    0    0  0.00000000000E+00  0.00000000000E+00  0.34996269501E-01  0.35000000000E-01  0.51099999109E-03 0. -1.
       11   -1    0    0    0    0 -0.00000000000E+00 -0.00000000000E+00 -0.34996269501E-01  0.35000000000E-01  0.51099999109E-03 0.  1.
       22    1    1    2    0    0  0.54583744900E-05  0.13451451044E-03 -0.39559628906E-02  0.39582529403E-02  0.00000000000E+00 0.  1.
       22    1    1    2    0    0  0.13664358290E-01  0.31640448810E-02 -0.27896095423E-01  0.31223677031E-01  0.00000000000E+00 0.  1.
       22    1    1    2    0    0 -0.13669816665E-01 -0.32985593914E-02  0.31852058314E-01  0.34818070029E-01  0.00000000000E+00 0. -1.
</event>
<event>
 5   0  0.4146200E+04  0.9118800E+02  0.7546771E-02  0.1180000E+00
      -11   -1    0    0    0    0  0.00000000000E+00  0.00000000000E+00  0.34996269501E-01  0.35000000000E-01  0.51099999109E-03 0. -1.
       11   -1    0    0    0    0 -0.00000000000E+00 -0.00000000000E+00 -0.34996269501E-01  0.35000000000E-01  0.51099999109E-03 0.  1.
       22    1    1    2    0    0  0.99385119376E-02  0.11740537487E-01 -0.13852680380E-01  0.20700507089E-01  0.00000000000E+00 0.  1.
       22    1    1    2    0    0 -0.39973839005E-02 -0.10565255556E-01 -0.15583332079E-01  0.19246920317E-01  0.00000000000E+00 0.  1.
       22    1    1    2    0    0 -0.59411280371E-02 -0.11752819317E-02  0.29436012460E-01  0.30052572594E-01  0.00000000000E+00 0. -1.
</event>
<event>
 5   0  0.4146200E+04  0.9118800E+02  0.7546771E-02  0.1180000E+00
      -11   -1    0    0    0    0  0.00000000000E+00  0.00000000000E+00  0.34996269501E-01  0.35000000000E-01  0.51099999109E-03 0. -1.
       11   -1    0    0    0    0 -0.00000000000E+00 -0.00000000000E+00 -0.34996269501E-01  0.35000000000E-01  0.51099999109E-03 0.  1.
       22    1    1    2    0    0 -0.36312459177E-05  0.48702084250E-02 -0.32670445818E-01  0.33031454301E-01  0.00000000000E+00 0.  1.
       22    1    1    2    0    0 -0.13684912218E-02 -0.86693724954E-03 -0.16943394688E-02  0.23441703552E-02  0.00000000000E+00 0.  1.
       22    1    1    2    0    0  0.13721224677E-02 -0.40032711754E-02  0.34364785287E-01  0.34624375344E-01  0.00000000000E+00 0. -1.
</event>
<event>
 5   0  0.4146200E+04  0.9118800E+02  0.7546771E-02  0.1180000E+00
      -11   -1    0    0    0    0  0.00000000000E+00  0.00000000000E+00  0.34996269501E-01  0.35000000000E-01  0.51099999109E-03 0. -1.
       11   -1    0    0    0    0 -0.00000000000E+00 -0.00000000000E+00 -0.34996269501E-01  0.35000000000E-01  0.51099999109E-03 0.  1.
       22    1    1    2    0    0 -0.31926934963E-02 -0.15713434355E-01  0.20558434842E-01  0.26072102986E-01  0.00000000000E+00 0. -1.
       22    1    1    2    0    0  0.24533908388E-02  0.16113812123E-01 -0.30163703801E-01  0.34285902274E-01  0.00000000000E+00 0.  1.
       22    1    1    2    0    0  0.73930265742E-03 -0.40037776861E-03  0.96052689592E-02  0.96419947394E-02  0.00000000000E+00 0. -1.
</event>
<event>
 5   0  0.4146200E+04  0.9118800E+02  0.7546771E-02  0.1180000E+00
      -11   -1    0    0    0    0  0.00000000000E+00  0.00000000000E+00  0.34996269501E-01  0.35000000000E-01  0.51099999109E-03 0.  1.
       11   -1    0    0    0    0 -0.00000000000E+00 -0.00000000000E+00 -0.34996269501E-01  0.35000000000E-01  0.51099999109E-03 0. -1.
       22    1    1    2    0    0 -0.81967262823E-03 -0.33987485000E-03 -0.12869349065E-02  0.15631953124E-02  0.00000000000E+00 0.  1.
       22    1    1    2    0    0 -0.93095813932E-03 -0.32156142004E-02 -0.33378303841E-01  0.33545760165E-01  0.00000000000E+00 0. -1.
       22    1    1    2    0    0  0.17506307675E-02  0.35554890504E-02  0.34665238747E-01  0.34891044523E-01  0.00000000000E+00 0.  1.
</event>
<event>
 5   0  0.4146200E+04  0.9118800E+02  0.7546771E-02  0.1180000E+00
      -11   -1    0    0    0    0  0.00000000000E+00  0.00000000000E+00  0.34996269501E-01  0.35000000000E-01  0.51099999109E-03 0.  1.
       11   -1    0    0    0    0 -0.00000000000E+00 -0.00000000000E+00 -0.34996269501E-01  0.35000000000E-01  0.51099999109E-03 0. -1.
       22    1    1    2    0    0  0.38504463097E-03 -0.20932110355E-02  0.32908207154E-01  0.32976959985E-01  0.00000000000E+00 0.  1.
       22    1    1    2    0    0  0.19336068603E-02  0.91615322863E-02 -0.15774411458E-01  0.18344060787E-01  0.00000000000E+00 0. -1.
       22    1    1    2    0    0 -0.23186514912E-02 -0.70683212509E-02 -0.17133795696E-01  0.18678979227E-01  0.00000000000E+00 0. -1.
</event>
<event>
 5   0  0.4146200E+04  0.9118800E+02  0.7546771E-02  0.1180000E+00
      -11   -1    0    0    0    0  0.00000000000E+00  0.00000000000E+00  0.34996269501E-01  0.35000000000E-01  0.51099999109E-03 0. -1.
       11   -1    0    0    0    0 -0.00000000000E+00 -0.00000000000E+00 -0.34996269501E-01  0.35000000000E-01  0.51099999109E-03 0. -1.
       22    1    1    2    0    0 -0.00000000000E+00 -0.00000000000E+00  0.34952374778E-01  0.34950577913E-01  0.00000000000E+00 0. -1.
       22    1    1    2    0    0  0.30130457611E-03 -0.45875974982E-04 -0.43745428748E-03  0.53315598684E-03  0.00000000000E+00 0. -1.
       22    1    1    2    0    0 -0.30130457611E-03  0.45875974982E-04 -0.34514920490E-01  0.34516266100E-01  0.00000000000E+00 0. -1.
</event>
<event>
 5   0  0.4146200E+04  0.9118800E+02  0.7546771E-02  0.1180000E+00
      -11   -1    0    0    0    0  0.00000000000E+00  0.00000000000E+00  0.34996269501E-01  0.35000000000E-01  0.51099999109E-03 0.  1.
       11   -1    0    0    0    0 -0.00000000000E+00 -0.00000000000E+00 -0.34996269501E-01  0.35000000000E-01  0.51099999109E-03 0. -1.
       22    1    1    2    0    0 -0.12957107561E-01  0.14635369483E-01  0.87910549921E-02  0.21432762868E-01  0.00000000000E+00 0.  1.
       22    1    1    2    0    0  0.15962798562E-01 -0.32611532876E-04  0.14067183857E-01  0.21276692956E-01  0.00000000000E+00 0.  1.
       22    1    1    2    0    0 -0.30056910009E-02 -0.14602757951E-01 -0.22858238849E-01  0.27290544177E-01  0.00000000000E+00 0. -1.
</event>
<event>
 5   0  0.4146200E+04  0.9118800E+02  0.7546771E-02  0.1180000E+00
      -11   -1    0    0    0    0  0.00000000000E+00  0.00000000000E+00  0.34996269501E-01  0.35000000000E-01  0.51099999109E-03 0.  1.
       11   -1    0    0    0    0 -0.00000000000E+00 -0.00000000000E+00 -0.34996269501E-01  0.35000000000E-01  0.51099999109E-03 0. -1.
       22    1    1    2    0    0  0.16343070588E-01 -0.13912284665E-01  0.27609133094E-01  0.34970156577E-01  0.00000000000E+00 0.  1.
       22    1    1    2    0    0 -0.49086412692E-04  0.19685302752E-03 -0.60152021218E-03  0.63481269365E-03  0.00000000000E+00 0.  1.
       22    1    1    2    0    0 -0.16293984175E-01  0.13715431637E-01 -0.27007612882E-01  0.34395030729E-01  0.00000000000E+00 0. -1.
</event>
<event>
 5   0  0.4146200E+04  0.9118800E+02  0.7546771E-02  0.1180000E+00
      -11   -1    0    0    0    0  0.00000000000E+00  0.00000000000E+00  0.34996269501E-01  0.35000000000E-01  0.51099999109E-03 0.  1.
       11   -1    0    0    0    0 -0.00000000000E+00 -0.00000000000E+00 -0.34996269501E-01  0.35000000000E-01  0.51099999109E-03 0. -1.
       22    1    1    2    0    0  0.34150826370E-03 -0.32564772603E-03  0.51202589214E-02  0.51419573858E-02  0.00000000000E+00 0. -1.
       22    1    1    2    0    0  0.91029851729E-02 -0.67565025956E-02 -0.32833410084E-01  0.34735392385E-01  0.00000000000E+00 0. -1.
       22    1    1    2    0    0 -0.94444934366E-02  0.70821503216E-02  0.27713151163E-01  0.30122650229E-01  0.00000000000E+00 0.  1.
</event>
<event>
 5   0  0.4146200E+04  0.9118800E+02  0.7546771E-02  0.1180000E+00
      -11   -1    0    0    0    0  0.00000000000E+00  0.00000000000E+00  0.34996269501E-01  0.35000000000E-01  0.51099999109E-03 0.  1.
       11   -1    0    0    0    0 -0.00000000000E+00 -0.00000000000E+00 -0.34996269501E-01  0.35000000000E-01  0.51099999109E-03 0. -1.
       22    1    1    2    0    0 -0.16517964079E-03 -0.30216991128E-04  0.24085700288E-02  0.24144164852E-02  0.00000000000E+00 0.  1.
       22    1    1    2    0    0  0.26729746936E-02 -0.12772665741E-01 -0.32373072902E-01  0.34904177873E-01  0.00000000000E+00 0. -1.
       22    1    1    2    0    0 -0.25077950529E-02  0.12802882732E-01  0.29964502873E-01  0.32681405642E-01  0.00000000000E+00 0.  1.
</event>
<event>
 5   0  0.4146200E+04  0.9118800E+02  0.7546771E-02  0.1180000E+00
      -11   -1    0    0    0    0  0.00000000000E+00  0.00000000000E+00  0.34996269501E-01  0.35000000000E-01  0.51099999109E-03 0. -1.
       11   -1    0    0    0    0 -0.00000000000E+00 -0.00000000000E+00 -0.34996269501E-01  0.35000000000E-01  0.51099999109E-03 0.  1.
       22    1    1    2    0    0 -0.14339496430E-01  0.11789087964E-01 -0.28381314420E-01  0.33913165011E-01  0.00000000000E+00 0.  1.
       22    1    1    2    0    0  0.44507361731E-03 -0.15281000781E-02 -0.10884846996E-02  0.19282062428E-02  0.00000000000E+00 0. -1.
       22    1    1    2    0    0  0.13894422813E-01 -0.10260987886E-01  0.29469799119E-01  0.34158628746E-01  0.00000000000E+00 0. -1.
</event>
<event>
 5   0  0.4146200E+04  0.9118800E+02  0.7546771E-02  0.1180000E+00
      -11   -1    0    0    0    0  0.00000000000E+00  0.00000000000E+00  0.34996269501E-01  0.35000000000E-01  0.51099999109E-03 0.  1.
       11   -1    0    0    0    0 -0.00000000000E+00 -0.00000000000E+00 -0.34996269501E-01  0.35000000000E-01  0.51099999109E-03 0. -1.
       22    1    1    2    0    0  0.46749467924E-02  0.48876738317E-02 -0.85241675384E-02  0.10881448213E-01  0.00000000000E+00 0.  1.
       22    1    1    2    0    0 -0.48272738234E-02 -0.39224518969E-02 -0.24907608470E-01  0.25672498148E-01  0.00000000000E+00 0. -1.
       22    1    1    2    0    0  0.15232703103E-03 -0.96522193488E-03  0.33431776009E-01  0.33446053639E-01  0.00000000000E+00 0.  1.
</event>
<event>
 5   0  0.4146200E+04  0.9118800E+02  0.7546771E-02  0.1180000E+00
      -11   -1    0    0    0    0  0.00000000000E+00  0.00000000000E+00  0.34996269501E-01  0.35000000000E-01  0.51099999109E-03 0. -1.
       11   -1    0    0    0    0 -0.00000000000E+00 -0.00000000000E+00 -0.34996269501E-01  0.35000000000E-01  0.51099999109E-03 0. -1.
       22    1    1    2    0    0  0.16231026803E-02 -0.59760088098E-03 -0.31366740418E-01  0.31414391504E-01  0.00000000000E+00 0. -1.
       22    1    1    2    0    0 -0.00000000000E+00 -0.00000000000E+00  0.34769835137E-01  0.34768195394E-01  0.00000000000E+00 0. -1.
       22    1    1    2    0    0 -0.16231026803E-02  0.59760088098E-03 -0.34030947189E-02  0.38174131017E-02  0.00000000000E+00 0.  1.
</event>
<event>
 5   0  0.4146200E+04  0.9118800E+02  0.7546771E-02  0.1180000E+00
      -11   -1    0    0    0    0  0.00000000000E+00  0.00000000000E+00  0.34996269501E-01  0.35000000000E-01  0.51099999109E-03 0. -1.
       11   -1    0    0    0    0 -0.00000000000E+00 -0.00000000000E+00 -0.34996269501E-01  0.35000000000E-01  0.51099999109E-03 0.  1.
       22    1    1    2    0    0 -0.24686779003E-02 -0.23022916754E-02 -0.71566404192E-02  0.79128009974E-02  0.00000000000E+00 0. -1.
       22    1    1    2    0    0 -0.17470997386E-01  0.43163106815E-02 -0.20917522340E-01  0.27593641086E-01  0.00000000000E+00 0.  1.
       22    1    1    2    0    0  0.19939675286E-01 -0.20140190062E-02  0.28074162760E-01  0.34493557916E-01  0.00000000000E+00 0. -1.
</event>
<event>
 5   0  0.4146200E+04  0.9118800E+02  0.7546771E-02  0.1180000E+00
      -11   -1    0    0    0    0  0.00000000000E+00  0.00000000000E+00  0.34996269501E-01  0.35000000000E-01  0.51099999109E-03 0. -1.
       11   -1    0    0    0    0 -0.00000000000E+00 -0.00000000000E+00 -0.34996269501E-01  0.35000000000E-01  0.51099999109E-03 0.  1.
       22    1    1    2    0    0  0.35802346073E-02 -0.15107887291E-01  0.30691699659E-01  0.34395446881E-01  0.00000000000E+00 0. -1.
       22    1    1    2    0    0  0.38676023705E-03 -0.85310270172E-03 -0.19648408030E-03  0.95706514641E-03  0.00000000000E+00 0. -1.
       22    1    1    2    0    0 -0.39669948444E-02  0.15960989992E-01 -0.30495215578E-01  0.34647487972E-01  0.00000000000E+00 0.  1.
</event>
<event>
 5   0  0.4146200E+04  0.9118800E+02  0.7546771E-02  0.1180000E+00
      -11   -1    0    0    0    0  0.00000000000E+00  0.00000000000E+00  0.34996269501E-01  0.35000000000E-01  0.51099999109E-03 0. -1.
       11   -1    0    0    0    0 -0.00000000000E+00 -0.00000000000E+00 -0.34996269501E-01  0.35000000000E-01  0.51099999109E-03 0.  1.
       22    1    1    2    0    0  0.10519578053E-01 -0.26699228204E-01 -0.14515573190E-01  0.32159169364E-01  0.00000000000E+00 0.  1.
       22    1    1    2    0    0 -0.50557569245E-03 -0.12788662585E-02 -0.30327711262E-02  0.33299859447E-02  0.00000000000E+00 0.  1.
       22    1    1    2    0    0 -0.10014002361E-01  0.27978094463E-01  0.17548344317E-01  0.34510844691E-01  0.00000000000E+00 0. -1.
</event>
<event>
 5   0  0.4146200E+04  0.9118800E+02  0.7546771E-02  0.1180000E+00
      -11   -1    0    0    0    0  0.00000000000E+00  0.00000000000E+00  0.34996269501E-01  0.35000000000E-01  0.51099999109E-03 0.  1.
       11   -1    0    0    0    0 -0.00000000000E+00 -0.00000000000E+00 -0.34996269501E-01  0.35000000000E-01  0.51099999109E-03 0. -1.
       22    1    1    2    0    0  0.11286508056E-01 -0.18648433786E-02  0.32171180997E-01  0.34144513346E-01  0.00000000000E+00 0.  1.
       22    1    1    2    0    0 -0.12569823347E-01 -0.84379690676E-04 -0.21264795706E-01  0.24702208714E-01  0.00000000000E+00 0. -1.
       22    1    1    2    0    0  0.12833152909E-02  0.19492230693E-02 -0.10906385290E-01  0.11153277940E-01  0.00000000000E+00 0.  1.
</event>
<event>
 5   0  0.4146200E+04  0.9118800E+02  0.7546771E-02  0.1180000E+00
      -11   -1    0    0    0    0  0.00000000000E+00  0.00000000000E+00  0.34996269501E-01  0.35000000000E-01  0.51099999109E-03 0.  1.
       11   -1    0    0    0    0 -0.00000000000E+00 -0.00000000000E+00 -0.34996269501E-01  0.35000000000E-01  0.51099999109E-03 0. -1.
       22    1    1    2    0    0 -0.11501695207E-03 -0.78033499295E-04 -0.23459432218E-01  0.23459843949E-01  0.00000000000E+00 0. -1.
       22    1    1    2    0    0  0.60006651935E-02  0.42250920695E-02  0.33438759526E-01  0.34234631945E-01  0.00000000000E+00 0.  1.
       22    1    1    2    0    0 -0.58856482414E-02 -0.41470585702E-02 -0.99793273077E-02  0.12305524106E-01  0.00000000000E+00 0. -1.
</event>
<event>
 5   0  0.4146200E+04  0.9118800E+02  0.7546771E-02  0.1180000E+00
      -11   -1    0    0    0    0  0.00000000000E+00  0.00000000000E+00  0.34996269501E-01  0.35000000000E-01  0.51099999109E-03 0.  1.
       11   -1    0    0    0    0 -0.00000000000E+00 -0.00000000000E+00 -0.34996269501E-01  0.35000000000E-01  0.51099999109E-03 0. -1.
       22    1    1    2    0    0  0.41147565555E-03 -0.12215012828E-03 -0.56825102696E-03  0.71213910059E-03  0.00000000000E+00 0. -1.
       22    1    1    2    0    0  0.10876336236E-01 -0.24018970985E-01 -0.22020558764E-01  0.34352738834E-01  0.00000000000E+00 0. -1.
       22    1    1    2    0    0 -0.11287811892E-01  0.24141121114E-01  0.22588809791E-01  0.34935122065E-01  0.00000000000E+00 0.  1.
</event>
<event>
 5   0  0.4146200E+04  0.9118800E+02  0.7546771E-02  0.1180000E+00
      -11   -1    0    0    0    0  0.00000000000E+00  0.00000000000E+00  0.34996269501E-01  0.35000000000E-01  0.51099999109E-03 0. -1.
       11   -1    0    0    0    0 -0.00000000000E+00 -0.00000000000E+00 -0.34996269501E-01  0.35000000000E-01  0.51099999109E-03 0.  1.
       22    1    1    2    0    0  0.13960880041E-02  0.11970911536E-02 -0.30546682518E-01  0.30601991795E-01  0.00000000000E+00 0.  1.
       22    1    1    2    0    0  0.73302251017E-04 -0.13371852638E-02  0.34836046838E-01  0.34861778454E-01  0.00000000000E+00 0. -1.
       22    1    1    2    0    0 -0.14693902551E-02  0.14009411028E-03 -0.42893643201E-02  0.45362297508E-02  0.00000000000E+00 0. -1.
</event>
<event>
 5   0  0.4146200E+04  0.9118800E+02  0.7546771E-02  0.1180000E+00
      -11   -1    0    0    0    0  0.00000000000E+00  0.00000000000E+00  0.34996269501E-01  0.35000000000E-01  0.51099999109E-03 0.  1.
       11   -1    0    0    0    0 -0.00000000000E+00 -0.00000000000E+00 -0.34996269501E-01  0.35000000000E-01  0.51099999109E-03 0. -1.
       22    1    1    2    0    0 -0.11208928025E-01 -0.14865768546E-01  0.19132498119E-01  0.26696135042E-01  0.00000000000E+00 0.  1.
       22    1    1    2    0    0 -0.24847276404E-03  0.41594646140E-04  0.92727309608E-02  0.92761526669E-02  0.00000000000E+00 0.  1.
       22    1    1    2    0    0  0.11457400789E-01  0.14824173900E-01 -0.28405229080E-01  0.34027712291E-01  0.00000000000E+00 0. -1.
</event>
<event>
 5   0  0.4146200E+04  0.9118800E+02  0.7546771E-02  0.1180000E+00
      -11   -1    0    0    0    0  0.00000000000E+00  0.00000000000E+00  0.34996269501E-01  0.35000000000E-01  0.51099999109E-03 0. -1.
       11   -1    0    0    0    0 -0.00000000000E+00 -0.00000000000E+00 -0.34996269501E-01  0.35000000000E-01  0.51099999109E-03 0.  1.
       22    1    1    2    0    0 -0.92877326351E-05 -0.27803008122E-03  0.72128428504E-02  0.72182053845E-02  0.00000000000E+00 0. -1.
       22    1    1    2    0    0  0.26404060726E-02  0.14533702214E-01 -0.31333093633E-01  0.34640482111E-01  0.00000000000E+00 0.  1.
       22    1    1    2    0    0 -0.26311183400E-02 -0.14255672133E-01  0.24120250782E-01  0.28141312505E-01  0.00000000000E+00 0. -1.
</event>
<event>
 5   0  0.4146200E+04  0.9118800E+02  0.7546771E-02  0.1180000E+00
      -11   -1    0    0    0    0  0.00000000000E+00  0.00000000000E+00  0.34996269501E-01  0.35000000000E-01  0.51099999109E-03 0.  1.
       11   -1    0    0    0    0 -0.00000000000E+00 -0.00000000000E+00 -0.34996269501E-01  0.35000000000E-01  0.51099999109E-03 0. -1.
       22    1    1    2    0    0  0.11663207657E-03 -0.17860516316E-03 -0.28295725607E-03  0.35435526574E-03  0.00000000000E+00 0. -1.
       22    1    1    2    0    0  0.26132874508E-03  0.85663795310E-03  0.34954220566E-01  0.34965692567E-01  0.00000000000E+00 0.  1.
       22    1    1    2    0    0 -0.37796082165E-03 -0.67803278994E-03 -0.34671263310E-01  0.34679952168E-01  0.00000000000E+00 0. -1.
</event>
<event>
 5   0  0.4146200E+04  0.9118800E+02  0.7546771E-02  0.1180000E+00
      -11   -1    0    0    0    0  0.00000000000E+00  0.00000000000E+00  0.34996269501E-01  0.35000000000E-01  0.51099999109E-03 0.  1.
       11   -1    0    0    0    0 -0.00000000000E+00 -0.00000000000E+00 -0.34996269501E-01  0.35000000000E-01  0.51099999109E-03 0. -1.
       22    1    1    2    0    0 -0.12644559227E-01  0.62162181604E-02 -0.31826861172E-01  0.34806254299E-01  0.00000000000E+00 0. -1.
       22    1    1    2    0    0 -0.47871647194E-03 -0.49635622483E-03  0.18408709034E-02  0.19657936427E-02  0.00000000000E+00 0.  1.
       22    1    1    2    0    0  0.13123275699E-01 -0.57198619355E-02  0.29985990268E-01  0.33227952059E-01  0.00000000000E+00 0.  1.
</event>
<event>
 5   0  0.4146200E+04  0.9118800E+02  0.7546771E-02  0.1180000E+00
      -11   -1    0    0    0    0  0.00000000000E+00  0.00000000000E+00  0.34996269501E-01  0.35000000000E-01  0.51099999109E-03 0. -1.
       11   -1    0    0    0    0 -0.00000000000E+00 -0.00000000000E+00 -0.34996269501E-01  0.35000000000E-01  0.51099999109E-03 0. -1.
       22    1    1    2    0    0  0.13999286317E-02 -0.61517470695E-03 -0.26122746685E-02  0.30269157632E-02  0.00000000000E+00 0.  1.
       22    1    1    2    0    0 -0.13999286317E-02  0.61517470695E-03 -0.32164027646E-01  0.32200355813E-01  0.00000000000E+00 0. -1.
       22    1    1    2    0    0  0.00000000000E+00 -0.00000000000E+00  0.34776302314E-01  0.34772728424E-01  0.00000000000E+00 0. -1.
</event>
<event>
 5   0  0.4146200E+04  0.9118800E+02  0.7546771E-02  0.1180000E+00
      -11   -1    0    0    0    0  0.00000000000E+00  0.00000000000E+00  0.34996269501E-01  0.35000000000E-01  0.51099999109E-03 0.  1.
       11   -1    0    0    0    0 -0.00000000000E+00 -0.00000000000E+00 -0.34996269501E-01  0.35000000000E-01  0.51099999109E-03 0. -1.
       22    1    1    2    0    0  0.41132889973E-03 -0.22932384248E-03 -0.12605396666E-02  0.13456378188E-02  0.00000000000E+00 0. -1.
       22    1    1    2    0    0 -0.33432364570E-01  0.67730153171E-02 -0.48075753587E-02  0.34448650453E-01  0.00000000000E+00 0. -1.
       22    1    1    2    0    0  0.33021035670E-01 -0.65436914746E-02  0.60681150253E-02  0.34205711728E-01  0.00000000000E+00 0.  1.
</event>
<event>
 5   0  0.4146200E+04  0.9118800E+02  0.7546771E-02  0.1180000E+00
      -11   -1    0    0    0    0  0.00000000000E+00  0.00000000000E+00  0.34996269501E-01  0.35000000000E-01  0.51099999109E-03 0.  1.
       11   -1    0    0    0    0 -0.00000000000E+00 -0.00000000000E+00 -0.34996269501E-01  0.35000000000E-01  0.51099999109E-03 0. -1.
       22    1    1    2    0    0 -0.88914875435E-02 -0.16132386727E-02  0.32445097449E-01  0.33680045104E-01  0.00000000000E+00 0.  1.
       22    1    1    2    0    0 -0.27334300238E-03 -0.51505820628E-03 -0.22934088615E-01  0.22941499994E-01  0.00000000000E+00 0.  1.
       22    1    1    2    0    0  0.91648305459E-02  0.21282968790E-02 -0.95110088338E-02  0.13378454902E-01  0.00000000000E+00 0. -1.
</event>
<event>
 5   0  0.4146200E+04  0.9118800E+02  0.7546771E-02  0.1180000E+00
      -11   -1    0    0    0    0  0.00000000000E+00  0.00000000000E+00  0.34996269501E-01  0.35000000000E-01  0.51099999109E-03 0. -1.
       11   -1    0    0    0    0 -0.00000000000E+00 -0.00000000000E+00 -0.34996269501E-01  0.35000000000E-01  0.51099999109E-03 0.  1.
       22    1    1    2    0    0  0.62512369802E-02  0.16107912497E-02  0.20333387054E-01  0.21333523884E-01  0.00000000000E+00 0. -1.
       22    1    1    2    0    0 -0.16436816563E-01 -0.13841549781E-01 -0.24121971229E-01  0.32305215292E-01  0.00000000000E+00 0.  1.
       22    1    1    2    0    0  0.10185579583E-01  0.12230758532E-01  0.37885841750E-02  0.16361260824E-01  0.00000000000E+00 0. -1.
</event>
<event>
 5   0  0.4146200E+04  0.9118800E+02  0.7546771E-02  0.1180000E+00
      -11   -1    0    0    0    0  0.00000000000E+00  0.00000000000E+00  0.34996269501E-01  0.35000000000E-01  0.51099999109E-03 0. -1.
       11   -1    0    0    0    0 -0.00000000000E+00 -0.00000000000E+00 -0.34996269501E-01  0.35000000000E-01  0.51099999109E-03 0.  1.
       22    1    1    2    0    0  0.16475281370E-01 -0.52322428577E-02  0.21325891997E-01  0.27451865711E-01  0.00000000000E+00 0. -1.
       22    1    1    2    0    0  0.97679443291E-03  0.25184441458E-03  0.79985311960E-02  0.80618890012E-02  0.00000000000E+00 0.  1.
       22    1    1    2    0    0 -0.17452075803E-01  0.49803984431E-02 -0.29324423193E-01  0.34486245288E-01  0.00000000000E+00 0.  1.
</event>
<event>
 5   0  0.4146200E+04  0.9118800E+02  0.7546771E-02  0.1180000E+00
      -11   -1    0    0    0    0  0.00000000000E+00  0.00000000000E+00  0.34996269501E-01  0.35000000000E-01  0.51099999109E-03 0.  1.
       11   -1    0    0    0    0 -0.00000000000E+00 -0.00000000000E+00 -0.34996269501E-01  0.35000000000E-01  0.51099999109E-03 0. -1.
       22    1    1    2    0    0  0.21170379641E-04  0.10150626761E-03 -0.43320453037E-03  0.44544121102E-03  0.00000000000E+00 0. -1.
       22    1    1    2    0    0  0.15624815697E-01  0.67854204508E-02  0.30519090649E-01  0.34951275947E-01  0.00000000000E+00 0.  1.
       22    1    1    2    0    0 -0.15645986077E-01 -0.68869267184E-02 -0.30085886118E-01  0.34603282842E-01  0.00000000000E+00 0. -1.
</event>
<event>
 5   0  0.4146200E+04  0.9118800E+02  0.7546771E-02  0.1180000E+00
      -11   -1    0    0    0    0  0.00000000000E+00  0.00000000000E+00  0.34996269501E-01  0.35000000000E-01  0.51099999109E-03 0. -1.
       11   -1    0    0    0    0 -0.00000000000E+00 -0.00000000000E+00 -0.34996269501E-01  0.35000000000E-01  0.51099999109E-03 0.  1.
       22    1    1    2    0    0 -0.12923327744E-02  0.13083741251E-01  0.31792486459E-01  0.34403729513E-01  0.00000000000E+00 0. -1.
       22    1    1    2    0    0  0.17639953982E-02 -0.12893827468E-01 -0.20432928358E-01  0.24225338549E-01  0.00000000000E+00 0.  1.
       22    1    1    2    0    0 -0.47166262383E-03 -0.18991378374E-03 -0.11359558102E-01  0.11370931938E-01  0.00000000000E+00 0.  1.
</event>
<event>
 5   0  0.4146200E+04  0.9118800E+02  0.7546771E-02  0.1180000E+00
      -11   -1    0    0    0    0  0.00000000000E+00  0.00000000000E+00  0.34996269501E-01  0.35000000000E-01  0.51099999109E-03 0. -1.
       11   -1    0    0    0    0 -0.00000000000E+00 -0.00000000000E+00 -0.34996269501E-01  0.35000000000E-01  0.51099999109E-03 0.  1.
       22    1    1    2    0    0  0.25889239620E-02  0.30445077101E-03  0.34320446576E-01  0.34419300846E-01  0.00000000000E+00 0. -1.
       22    1    1    2    0    0 -0.85413709493E-03 -0.28902395676E-02 -0.35658252631E-02  0.46688483315E-02  0.00000000000E+00 0. -1.
       22    1    1    2    0    0 -0.17347868671E-02  0.25857887966E-02 -0.30754621313E-01  0.30911850822E-01  0.00000000000E+00 0.  1.
</event>
<event>
 5   0  0.4146200E+04  0.9118800E+02  0.7546771E-02  0.1180000E+00
      -11   -1    0    0    0    0  0.00000000000E+00  0.00000000000E+00  0.34996269501E-01  0.35000000000E-01  0.51099999109E-03 0.  1.
       11   -1    0    0    0    0 -0.00000000000E+00 -0.00000000000E+00 -0.34996269501E-01  0.35000000000E-01  0.51099999109E-03 0. -1.
       22    1    1    2    0    0  0.16006098850E-01  0.12484193954E-01  0.27120106865E-01  0.33875514689E-01  0.00000000000E+00 0.  1.
       22    1    1    2    0    0 -0.13159835490E-01 -0.14582104694E-01 -0.25620933982E-01  0.32283917134E-01  0.00000000000E+00 0. -1.
       22    1    1    2    0    0 -0.28462633602E-02  0.20979107400E-02 -0.14991728826E-02  0.38405681768E-02  0.00000000000E+00 0. -1.
</event>
<event>
 5   0  0.4146200E+04  0.9118800E+02  0.7546771E-02  0.1180000E+00
      -11   -1    0    0    0    0  0.00000000000E+00  0.00000000000E+00  0.34996269501E-01  0.35000000000E-01  0.51099999109E-03 0. -1.
       11   -1    0    0    0    0 -0.00000000000E+00 -0.00000000000E+00 -0.34996269501E-01  0.35000000000E-01  0.51099999109E-03 0.  1.
       22    1    1    2    0    0 -0.12496296045E-02  0.45997378624E-02  0.95358440159E-02  0.10660744986E-01  0.00000000000E+00 0. -1.
       22    1    1    2    0    0 -0.33991631607E-02  0.57695139163E-02  0.23483299344E-01  0.24419396985E-01  0.00000000000E+00 0. -1.
       22    1    1    2    0    0  0.46487927653E-02 -0.10369251779E-01 -0.33019143360E-01  0.34919858030E-01  0.00000000000E+00 0.  1.
</event>
<event>
 5   0  0.4146200E+04  0.9118800E+02  0.7546771E-02  0.1180000E+00
      -11   -1    0    0    0    0  0.00000000000E+00  0.00000000000E+00  0.34996269501E-01  0.35000000000E-01  0.51099999109E-03 0. -1.
       11   -1    0    0    0    0 -0.00000000000E+00 -0.00000000000E+00 -0.34996269501E-01  0.35000000000E-01  0.51099999109E-03 0.  1.
       22    1    1    2    0    0  0.15601065635E-02 -0.11077977677E-01  0.32196651281E-01  0.34084892190E-01  0.00000000000E+00 0. -1.
       22    1    1    2    0    0 -0.23195510799E-02 -0.18059674125E-02 -0.73572177198E-02  0.79227828497E-02  0.00000000000E+00 0. -1.
       22    1    1    2    0    0  0.75944451639E-03  0.12883945089E-01 -0.24839433561E-01  0.27992324960E-01  0.00000000000E+00 0.  1.
</event>
<event>
 5   0  0.4146200E+04  0.9118800E+02  0.7546771E-02  0.1180000E+00
      -11   -1    0    0    0    0  0.00000000000E+00  0.00000000000E+00  0.34996269501E-01  0.35000000000E-01  0.51099999109E-03 0.  1.
       11   -1    0    0    0    0 -0.00000000000E+00 -0.00000000000E+00 -0.34996269501E-01  0.35000000000E-01  0.51099999109E-03 0. -1.
       22    1    1    2    0    0 -0.20108137361E-01 -0.41829192194E-02  0.26536455909E-01  0.33556184133E-01  0.00000000000E+00 0.  1.
       22    1    1    2    0    0  0.20128249299E-01  0.41290479659E-02 -0.28137757685E-01  0.34841481951E-01  0.00000000000E+00 0. -1.
       22    1    1    2    0    0 -0.20111937833E-04  0.53871253499E-04  0.16013017760E-02  0.16023339165E-02  0.00000000000E+00 0.  1.
</event>
<event>
 5   0  0.4146200E+04  0.9118800E+02  0.7546771E-02  0.1180000E+00
      -11   -1    0    0    0    0  0.00000000000E+00  0.00000000000E+00  0.34996269501E-01  0.35000000000E-01  0.51099999109E-03 0.  1.
       11   -1    0    0    0    0 -0.00000000000E+00 -0.00000000000E+00 -0.34996269501E-01  0.35000000000E-01  0.51099999109E-03 0. -1.
       22    1    1    2    0    0 -0.11642249895E-01 -0.17588995953E-01 -0.26462354744E-01  0.33840374996E-01  0.00000000000E+00 0.  1.
       22    1    1    2    0    0  0.13496045446E-01  0.11008226410E-01  0.21713712647E-01  0.27835402068E-01  0.00000000000E+00 0. -1.
       22    1    1    2    0    0 -0.18537955509E-02  0.65807695434E-02  0.47486420968E-02  0.83242229361E-02  0.00000000000E+00 0. -1.
</event>
<event>
 5   0  0.4146200E+04  0.9118800E+02  0.7546771E-02  0.1180000E+00
      -11   -1    0    0    0    0  0.00000000000E+00  0.00000000000E+00  0.34996269501E-01  0.35000000000E-01  0.51099999109E-03 0.  1.
       11   -1    0    0    0    0 -0.00000000000E+00 -0.00000000000E+00 -0.34996269501E-01  0.35000000000E-01  0.51099999109E-03 0. -1.
       22    1    1    2    0    0  0.71767398259E-02  0.10374491996E-01  0.30495553214E-01  0.33001733963E-01  0.00000000000E+00 0.  1.
       22    1    1    2    0    0 -0.92516693590E-03  0.18817841886E-03  0.20273172215E-02  0.22363720829E-02  0.00000000000E+00 0.  1.
       22    1    1    2    0    0 -0.62515728900E-02 -0.10562670415E-01 -0.32522870436E-01  0.34761893954E-01  0.00000000000E+00 0. -1.
</event>
<event>
 5   0  0.4146200E+04  0.9118800E+02  0.7546771E-02  0.1180000E+00
      -11   -1    0    0    0    0  0.00000000000E+00  0.00000000000E+00  0.34996269501E-01  0.35000000000E-01  0.51099999109E-03 0. -1.
       11   -1    0    0    0    0 -0.00000000000E+00 -0.00000000000E+00 -0.34996269501E-01  0.35000000000E-01  0.51099999109E-03 0.  1.
       22    1    1    2    0    0 -0.40935383822E-03 -0.64612923130E-03  0.12191274361E-01  0.12215245560E-01  0.00000000000E+00 0.  1.
       22    1    1    2    0    0  0.11332678159E-01 -0.34593265744E-02 -0.32372388958E-01  0.34472715319E-01  0.00000000000E+00 0.  1.
       22    1    1    2    0    0 -0.10923324321E-01  0.41054558057E-02  0.20181114597E-01  0.23312039121E-01  0.00000000000E+00 0. -1.
</event>
<event>
 5   0  0.4146200E+04  0.9118800E+02  0.7546771E-02  0.1180000E+00
      -11   -1    0    0    0    0  0.00000000000E+00  0.00000000000E+00  0.34996269501E-01  0.35000000000E-01  0.51099999109E-03 0. -1.
       11   -1    0    0    0    0 -0.00000000000E+00 -0.00000000000E+00 -0.34996269501E-01  0.35000000000E-01  0.51099999109E-03 0.  1.
       22    1    1    2    0    0  0.12359112171E-03 -0.43849413276E-04 -0.36039830232E-03  0.38351593542E-03  0.00000000000E+00 0.  1.
       22    1    1    2    0    0 -0.16251434325E-02 -0.88335011751E-02 -0.33446361870E-01  0.34631357994E-01  0.00000000000E+00 0.  1.
       22    1    1    2    0    0  0.15015523108E-02  0.88773505884E-02  0.33806760172E-01  0.34985126070E-01  0.00000000000E+00 0. -1.
</event>
<event>
 5   0  0.4146200E+04  0.9118800E+02  0.7546771E-02  0.1180000E+00
      -11   -1    0    0    0    0  0.00000000000E+00  0.00000000000E+00  0.34996269501E-01  0.35000000000E-01  0.51099999109E-03 0.  1.
       11   -1    0    0    0    0 -0.00000000000E+00 -0.00000000000E+00 -0.34996269501E-01  0.35000000000E-01  0.51099999109E-03 0. -1.
       22    1    1    2    0    0  0.15701029260E-02  0.56959954458E-04 -0.29119106858E-02  0.33087295865E-02  0.00000000000E+00 0.  1.
       22    1    1    2    0    0 -0.16991494426E-02 -0.26737550034E-02 -0.31761457734E-01  0.31919058132E-01  0.00000000000E+00 0. -1.
       22    1    1    2    0    0  0.12904651659E-03  0.26167950489E-02  0.34673368420E-01  0.34772212281E-01  0.00000000000E+00 0.  1.
</event>
<event>
 5   0  0.4146200E+04  0.9118800E+02  0.7546771E-02  0.1180000E+00
      -11   -1    0    0    0    0  0.00000000000E+00  0.00000000000E+00  0.34996269501E-01  0.35000000000E-01  0.51099999109E-03 0. -1.
       11   -1    0    0    0    0 -0.00000000000E+00 -0.00000000000E+00 -0.34996269501E-01  0.35000000000E-01  0.51099999109E-03 0.  1.
       22    1    1    2    0    0  0.15656380581E-01 -0.13077527551E-02 -0.48768891152E-02  0.16450426061E-01  0.00000000000E+00 0. -1.
       22    1    1    2    0    0 -0.17792915117E-01  0.25457715007E-02 -0.20950616204E-01  0.27604294960E-01  0.00000000000E+00 0.  1.
       22    1    1    2    0    0  0.21365345366E-02 -0.12380187456E-02  0.25827505319E-01  0.25945278978E-01  0.00000000000E+00 0. -1.
</event>
<event>
 5   0  0.4146200E+04  0.9118800E+02  0.7546771E-02  0.1180000E+00
      -11   -1    0    0    0    0  0.00000000000E+00  0.00000000000E+00  0.34996269501E-01  0.35000000000E-01  0.51099999109E-03 0.  1.
       11   -1    0    0    0    0 -0.00000000000E+00 -0.00000000000E+00 -0.34996269501E-01  0.35000000000E-01  0.51099999109E-03 0. -1.
       22    1    1    2    0    0 -0.34203805167E-03 -0.12581151510E-01 -0.32259288525E-01  0.34627504378E-01  0.00000000000E+00 0. -1.
       22    1    1    2    0    0 -0.11818669114E-02 -0.23377119639E-03  0.59228511664E-02  0.60441396665E-02  0.00000000000E+00 0.  1.
       22    1    1    2    0    0  0.15239049631E-02  0.12814922707E-01  0.26336437358E-01  0.29328355955E-01  0.00000000000E+00 0.  1.
</event>
<event>
 5   0  0.4146200E+04  0.9118800E+02  0.7546771E-02  0.1180000E+00
      -11   -1    0    0    0    0  0.00000000000E+00  0.00000000000E+00  0.34996269501E-01  0.35000000000E-01  0.51099999109E-03 0.  1.
       11   -1    0    0    0    0 -0.00000000000E+00 -0.00000000000E+00 -0.34996269501E-01  0.35000000000E-01  0.51099999109E-03 0. -1.
       22    1    1    2    0    0 -0.19051665099E-01 -0.14884365543E-01  0.19683494336E-01  0.31176116338E-01  0.00000000000E+00 0.  1.
       22    1    1    2    0    0 -0.57711023267E-03  0.10519157110E-02  0.45515186655E-02  0.47070059535E-02  0.00000000000E+00 0. -1.
       22    1    1    2    0    0  0.19628775332E-01  0.13832449832E-01 -0.24235013001E-01  0.34116877708E-01  0.00000000000E+00 0. -1.
</event>
<event>
 5   0  0.4146200E+04  0.9118800E+02  0.7546771E-02  0.1180000E+00
      -11   -1    0    0    0    0  0.00000000000E+00  0.00000000000E+00  0.34996269501E-01  0.35000000000E-01  0.51099999109E-03 0. -1.
       11   -1    0    0    0    0 -0.00000000000E+00 -0.00000000000E+00 -0.34996269501E-01  0.35000000000E-01  0.51099999109E-03 0.  1.
       22    1    1    2    0    0  0.43401363729E-03 -0.25589514679E-03 -0.66578634734E-03  0.83493809580E-03  0.00000000000E+00 0.  1.
       22    1    1    2    0    0 -0.10098795671E-01  0.59460892107E-02  0.32958568984E-01  0.34980121789E-01  0.00000000000E+00 0. -1.
       22    1    1    2    0    0  0.96647820339E-02 -0.56901940639E-02 -0.32292782637E-01  0.34184940115E-01  0.00000000000E+00 0.  1.
</event>
<event>
 5   0  0.4146200E+04  0.9118800E+02  0.7546771E-02  0.1180000E+00
      -11   -1    0    0    0    0  0.00000000000E+00  0.00000000000E+00  0.34996269501E-01  0.35000000000E-01  0.51099999109E-03 0. -1.
       11   -1    0    0    0    0 -0.00000000000E+00 -0.00000000000E+00 -0.34996269501E-01  0.35000000000E-01  0.51099999109E-03 0. -1.
       22    1    1    2    0    0 -0.43511859306E-02 -0.57232418086E-02 -0.24786078600E-01  0.25807712183E-01  0.00000000000E+00 0.  1.
       22    1    1    2    0    0  0.45610040545E-03 -0.11919812687E-02  0.32851731518E-01  0.32876513055E-01  0.00000000000E+00 0. -1.
       22    1    1    2    0    0  0.38950855252E-02  0.69152230773E-02 -0.80656529184E-02  0.11315774762E-01  0.00000000000E+00 0. -1.
</event>
<event>
 5   0  0.4146200E+04  0.9118800E+02  0.7546771E-02  0.1180000E+00
      -11   -1    0    0    0    0  0.00000000000E+00  0.00000000000E+00  0.34996269501E-01  0.35000000000E-01  0.51099999109E-03 0.  1.
       11   -1    0    0    0    0 -0.00000000000E+00 -0.00000000000E+00 -0.34996269501E-01  0.35000000000E-01  0.51099999109E-03 0. -1.
       22    1    1    2    0    0 -0.33259279804E-03  0.49748271599E-02  0.39118912687E-02  0.63373824674E-02  0.00000000000E+00 0.  1.
       22    1    1    2    0    0  0.33526414054E-02  0.70900728746E-02  0.28176831573E-01  0.29247960190E-01  0.00000000000E+00 0.  1.
       22    1    1    2    0    0 -0.30200486074E-02 -0.12064900034E-01 -0.32088722842E-01  0.34414657343E-01  0.00000000000E+00 0. -1.
</event>
<event>
 5   0  0.4146200E+04  0.9118800E+02  0.7546771E-02  0.1180000E+00
      -11   -1    0    0    0    0  0.00000000000E+00  0.00000000000E+00  0.34996269501E-01  0.35000000000E-01  0.51099999109E-03 0. -1.
       11   -1    0    0    0    0 -0.00000000000E+00 -0.00000000000E+00 -0.34996269501E-01  0.35000000000E-01  0.51099999109E-03 0.  1.
       22    1    1    2    0    0 -0.30524027435E-02 -0.13415028158E-02 -0.11746443324E-01  0.12210475956E-01  0.00000000000E+00 0. -1.
       22    1    1    2    0    0 -0.90405856220E-02 -0.25319305663E-03 -0.20989414121E-01  0.22855016960E-01  0.00000000000E+00 0.  1.
       22    1    1    2    0    0  0.12092988365E-01  0.15946958725E-02  0.32735857445E-01  0.34934507084E-01  0.00000000000E+00 0. -1.
</event>
<event>
 5   0  0.4146200E+04  0.9118800E+02  0.7546771E-02  0.1180000E+00
      -11   -1    0    0    0    0  0.00000000000E+00  0.00000000000E+00  0.34996269501E-01  0.35000000000E-01  0.51099999109E-03 0. -1.
       11   -1    0    0    0    0 -0.00000000000E+00 -0.00000000000E+00 -0.34996269501E-01  0.35000000000E-01  0.51099999109E-03 0.  1.
       22    1    1    2    0    0 -0.34258477615E-02 -0.23595840248E-02 -0.33369726432E-01  0.33628004874E-01  0.00000000000E+00 0.  1.
       22    1    1    2    0    0  0.35341841533E-02  0.29544442190E-02  0.34650670003E-01  0.34955516444E-01  0.00000000000E+00 0. -1.
       22    1    1    2    0    0 -0.10833639180E-03 -0.59486019420E-03 -0.12809435704E-02  0.14164786814E-02  0.00000000000E+00 0. -1.
</event>
<event>
 5   0  0.4146200E+04  0.9118800E+02  0.7546771E-02  0.1180000E+00
      -11   -1    0    0    0    0  0.00000000000E+00  0.00000000000E+00  0.34996269501E-01  0.35000000000E-01  0.51099999109E-03 0.  1.
       11   -1    0    0    0    0 -0.00000000000E+00 -0.00000000000E+00 -0.34996269501E-01  0.35000000000E-01  0.51099999109E-03 0. -1.
       22    1    1    2    0    0  0.93744993305E-03 -0.40930305797E-04  0.18038563021E-02  0.20333187712E-02  0.00000000000E+00 0.  1.
       22    1    1    2    0    0 -0.11281247784E-01  0.53958513709E-02 -0.32666992136E-01  0.34978766971E-01  0.00000000000E+00 0. -1.
       22    1    1    2    0    0  0.10343797851E-01 -0.53549210651E-02  0.30863135834E-01  0.32987914258E-01  0.00000000000E+00 0.  1.
</event>
<event>
 5   0  0.4146200E+04  0.9118800E+02  0.7546771E-02  0.1180000E+00
      -11   -1    0    0    0    0  0.00000000000E+00  0.00000000000E+00  0.34996269501E-01  0.35000000000E-01  0.51099999109E-03 0. -1.
       11   -1    0    0    0    0 -0.00000000000E+00 -0.00000000000E+00 -0.34996269501E-01  0.35000000000E-01  0.51099999109E-03 0.  1.
       22    1    1    2    0    0 -0.26763648874E-02 -0.56969228552E-02 -0.12978571302E-01  0.14424325706E-01  0.00000000000E+00 0.  1.
       22    1    1    2    0    0 -0.15317913182E-01 -0.18149641665E-01  0.91759868236E-02  0.25460689131E-01  0.00000000000E+00 0.  1.
       22    1    1    2    0    0  0.17994278069E-01  0.23846564520E-01  0.38025844788E-02  0.30114985163E-01  0.00000000000E+00 0. -1.
</event>
<event>
 5   0  0.4146200E+04  0.9118800E+02  0.7546771E-02  0.1180000E+00
      -11   -1    0    0    0    0  0.00000000000E+00  0.00000000000E+00  0.34996269501E-01  0.35000000000E-01  0.51099999109E-03 0. -1.
       11   -1    0    0    0    0 -0.00000000000E+00 -0.00000000000E+00 -0.34996269501E-01  0.35000000000E-01  0.51099999109E-03 0.  1.
       22    1    1    2    0    0  0.14263623724E-01 -0.36233819791E-03  0.27671407370E-01  0.31133407082E-01  0.00000000000E+00 0. -1.
       22    1    1    2    0    0 -0.14014484018E-01  0.44788118306E-03 -0.31787203630E-01  0.34742375774E-01  0.00000000000E+00 0.  1.
       22    1    1    2    0    0 -0.24913970572E-03 -0.85542985150E-04  0.41157962594E-02  0.41242171431E-02  0.00000000000E+00 0. -1.
</event>
<event>
 5   0  0.4146200E+04  0.9118800E+02  0.7546771E-02  0.1180000E+00
      -11   -1    0    0    0    0  0.00000000000E+00  0.00000000000E+00  0.34996269501E-01  0.35000000000E-01  0.51099999109E-03 0.  1.
       11   -1    0    0    0    0 -0.00000000000E+00 -0.00000000000E+00 -0.34996269501E-01  0.35000000000E-01  0.51099999109E-03 0.  1.
       22    1    1    2    0    0 -0.13932555648E-01  0.32596387772E-02  0.19296480882E-01  0.24022812622E-01  0.00000000000E+00 0. -1.
       22    1    1    2    0    0  0.13932555648E-01 -0.32596387772E-02 -0.31068565220E-01  0.34205220313E-01  0.00000000000E+00 0.  1.
       22    1    1    2    0    0  0.00000000000E+00 -0.00000000000E+00  0.11772084338E-01  0.11771967065E-01  0.00000000000E+00 0.  1.
</event>
<event>
 5   0  0.4146200E+04  0.9118800E+02  0.7546771E-02  0.1180000E+00
      -11   -1    0    0    0    0  0.00000000000E+00  0.00000000000E+00  0.34996269501E-01  0.35000000000E-01  0.51099999109E-03 0. -1.
       11   -1    0    0    0    0 -0.00000000000E+00 -0.00000000000E+00 -0.34996269501E-01  0.35000000000E-01  0.51099999109E-03 0.  1.
       22    1    1    2    0    0 -0.88192488392E-02 -0.88257330591E-02 -0.32497569885E-01  0.34810411698E-01  0.00000000000E+00 0.  1.
       22    1    1    2    0    0 -0.15024915246E-03 -0.35821982872E-03  0.29277950149E-02  0.29534522008E-02  0.00000000000E+00 0. -1.
       22    1    1    2    0    0  0.89694979916E-02  0.91839528878E-02  0.29569774870E-01  0.32236136101E-01  0.00000000000E+00 0. -1.
</event>
<event>
 5   0  0.4146200E+04  0.9118800E+02  0.7546771E-02  0.1180000E+00
      -11   -1    0    0    0    0  0.00000000000E+00  0.00000000000E+00  0.34996269501E-01  0.35000000000E-01  0.51099999109E-03 0. -1.
       11   -1    0    0    0    0 -0.00000000000E+00 -0.00000000000E+00 -0.34996269501E-01  0.35000000000E-01  0.51099999109E-03 0.  1.
       22    1    1    2    0    0 -0.14313066928E-03  0.87995139316E-05 -0.22038958595E-02  0.22085562659E-02  0.00000000000E+00 0. -1.
       22    1    1    2    0    0 -0.16671436015E-01 -0.12619330376E-01 -0.25525948224E-01  0.32996337838E-01  0.00000000000E+00 0.  1.
       22    1    1    2    0    0  0.16814566685E-01  0.12610530862E-01  0.27729844084E-01  0.34795105896E-01  0.00000000000E+00 0. -1.
</event>
<event>
 5   0  0.4146200E+04  0.9118800E+02  0.7546771E-02  0.1180000E+00
      -11   -1    0    0    0    0  0.00000000000E+00  0.00000000000E+00  0.34996269501E-01  0.35000000000E-01  0.51099999109E-03 0.  1.
       11   -1    0    0    0    0 -0.00000000000E+00 -0.00000000000E+00 -0.34996269501E-01  0.35000000000E-01  0.51099999109E-03 0. -1.
       22    1    1    2    0    0  0.19355389350E-02 -0.19114507845E-03 -0.34627133032E-01  0.34681712608E-01  0.00000000000E+00 0. -1.
       22    1    1    2    0    0 -0.20343828804E-02  0.96424326098E-04  0.34928214120E-01  0.34987542826E-01  0.00000000000E+00 0.  1.
       22    1    1    2    0    0  0.98843945374E-04  0.94720752353E-04 -0.30108108848E-03  0.33074456655E-03  0.00000000000E+00 0. -1.
</event>
<event>
 5   0  0.4146200E+04  0.9118800E+02  0.7546771E-02  0.1180000E+00
      -11   -1    0    0    0    0  0.00000000000E+00  0.00000000000E+00  0.34996269501E-01  0.35000000000E-01  0.51099999109E-03 0. -1.
       11   -1    0    0    0    0 -0.00000000000E+00 -0.00000000000E+00 -0.34996269501E-01  0.35000000000E-01  0.51099999109E-03 0.  1.
       22    1    1    2    0    0  0.23406535416E-03  0.18345137077E-03 -0.14590536348E-02  0.14890528885E-02  0.00000000000E+00 0.  1.
       22    1    1    2    0    0 -0.44870647235E-02  0.11765830083E-01  0.32566950365E-01  0.34916683168E-01  0.00000000000E+00 0. -1.
       22    1    1    2    0    0  0.42529993693E-02 -0.11949281454E-01 -0.31107896731E-01  0.33594263943E-01  0.00000000000E+00 0.  1.
</event>
<event>
 5   0  0.4146200E+04  0.9118800E+02  0.7546771E-02  0.1180000E+00
      -11   -1    0    0    0    0  0.00000000000E+00  0.00000000000E+00  0.34996269501E-01  0.35000000000E-01  0.51099999109E-03 0.  1.
       11   -1    0    0    0    0 -0.00000000000E+00 -0.00000000000E+00 -0.34996269501E-01  0.35000000000E-01  0.51099999109E-03 0.  1.
       22    1    1    2    0    0  0.21706727620E-02  0.43955671200E-03 -0.31121059842E-01  0.31199765961E-01  0.00000000000E+00 0.  1.
       22    1    1    2    0    0 -0.00000000000E+00  0.00000000000E+00  0.34643091277E-01  0.34639736980E-01  0.00000000000E+00 0.  1.
       22    1    1    2    0    0 -0.21706727620E-02 -0.43955671200E-03 -0.35220314357E-02  0.41604970589E-02  0.00000000000E+00 0. -1.
</event>
<event>
 5   0  0.4146200E+04  0.9118800E+02  0.7546771E-02  0.1180000E+00
      -11   -1    0    0    0    0  0.00000000000E+00  0.00000000000E+00  0.34996269501E-01  0.35000000000E-01  0.51099999109E-03 0.  1.
       11   -1    0    0    0    0 -0.00000000000E+00 -0.00000000000E+00 -0.34996269501E-01  0.35000000000E-01  0.51099999109E-03 0. -1.
       22    1    1    2    0    0 -0.14687417561E-01 -0.92816445715E-02 -0.29678103292E-01  0.34389809182E-01  0.00000000000E+00 0. -1.
       22    1    1    2    0    0  0.15237606521E-01  0.85068858417E-02  0.29912880419E-01  0.34631375575E-01  0.00000000000E+00 0.  1.
       22    1    1    2    0    0 -0.55018895997E-03  0.77475872978E-03 -0.23477712697E-03  0.97881524324E-03  0.00000000000E+00 0.  1.
</event>
<event>
 5   0  0.4146200E+04  0.9118800E+02  0.7546771E-02  0.1180000E+00
      -11   -1    0    0    0    0  0.00000000000E+00  0.00000000000E+00  0.34996269501E-01  0.35000000000E-01  0.51099999109E-03 0. -1.
       11   -1    0    0    0    0 -0.00000000000E+00 -0.00000000000E+00 -0.34996269501E-01  0.35000000000E-01  0.51099999109E-03 0.  1.
       22    1    1    2    0    0 -0.31126642241E-03  0.35652366993E-03 -0.28812161935E-04  0.47415825799E-03  0.00000000000E+00 0.  1.
       22    1    1    2    0    0  0.65318567518E-02  0.19905976103E-01 -0.27632998858E-01  0.34677019237E-01  0.00000000000E+00 0.  1.
       22    1    1    2    0    0 -0.62205903294E-02 -0.20262499773E-01  0.27661811020E-01  0.34848822505E-01  0.00000000000E+00 0. -1.
</event>
<event>
 5   0  0.4146200E+04  0.9118800E+02  0.7546771E-02  0.1180000E+00
      -11   -1    0    0    0    0  0.00000000000E+00  0.00000000000E+00  0.34996269501E-01  0.35000000000E-01  0.51099999109E-03 0. -1.
       11   -1    0    0    0    0 -0.00000000000E+00 -0.00000000000E+00 -0.34996269501E-01  0.35000000000E-01  0.51099999109E-03 0.  1.
       22    1    1    2    0    0 -0.18693258850E-03 -0.61731996168E-03 -0.83591216116E-03  0.10558299432E-02  0.00000000000E+00 0.  1.
       22    1    1    2    0    0  0.37396044295E-02 -0.23069253996E-02 -0.33759426126E-01  0.34044168347E-01  0.00000000000E+00 0.  1.
       22    1    1    2    0    0 -0.35526718410E-02  0.29242453613E-02  0.34595338287E-01  0.34900001710E-01  0.00000000000E+00 0. -1.
</event>
<event>
 5   0  0.4146200E+04  0.9118800E+02  0.7546771E-02  0.1180000E+00
      -11   -1    0    0    0    0  0.00000000000E+00  0.00000000000E+00  0.34996269501E-01  0.35000000000E-01  0.51099999109E-03 0. -1.
       11   -1    0    0    0    0 -0.00000000000E+00 -0.00000000000E+00 -0.34996269501E-01  0.35000000000E-01  0.51099999109E-03 0.  1.
       22    1    1    2    0    0 -0.81306944151E-02  0.10158601919E-01 -0.25821982521E-01  0.28915050855E-01  0.00000000000E+00 0.  1.
       22    1    1    2    0    0  0.17698896978E-03  0.18382571726E-05 -0.63859758655E-02  0.63884283066E-02  0.00000000000E+00 0. -1.
       22    1    1    2    0    0  0.79537054453E-02 -0.10160440176E-01  0.32207958386E-01  0.34696520839E-01  0.00000000000E+00 0. -1.
</event>
<event>
 5   0  0.4146200E+04  0.9118800E+02  0.7546771E-02  0.1180000E+00
      -11   -1    0    0    0    0  0.00000000000E+00  0.00000000000E+00  0.34996269501E-01  0.35000000000E-01  0.51099999109E-03 0. -1.
       11   -1    0    0    0    0 -0.00000000000E+00 -0.00000000000E+00 -0.34996269501E-01  0.35000000000E-01  0.51099999109E-03 0.  1.
       22    1    1    2    0    0 -0.11046758014E-02  0.78246436913E-02 -0.18645891659E-01  0.20251287200E-01  0.00000000000E+00 0.  1.
       22    1    1    2    0    0 -0.15408086297E-01  0.80993890713E-02 -0.36201580933E-02  0.17779616736E-01  0.00000000000E+00 0.  1.
       22    1    1    2    0    0  0.16512762098E-01 -0.15924032763E-01  0.22266049752E-01  0.31969096063E-01  0.00000000000E+00 0. -1.
</event>
<event>
 5   0  0.4146200E+04  0.9118800E+02  0.7546771E-02  0.1180000E+00
      -11   -1    0    0    0    0  0.00000000000E+00  0.00000000000E+00  0.34996269501E-01  0.35000000000E-01  0.51099999109E-03 0.  1.
       11   -1    0    0    0    0 -0.00000000000E+00 -0.00000000000E+00 -0.34996269501E-01  0.35000000000E-01  0.51099999109E-03 0. -1.
       22    1    1    2    0    0  0.19358725212E-02 -0.14131245649E-02 -0.79490880948E-02  0.83025613513E-02  0.00000000000E+00 0. -1.
       22    1    1    2    0    0  0.15075438971E-01  0.17828049596E-02  0.30132189121E-01  0.33740125591E-01  0.00000000000E+00 0.  1.
       22    1    1    2    0    0 -0.17011311492E-01 -0.36968039473E-03 -0.22183101026E-01  0.27957313058E-01  0.00000000000E+00 0. -1.
</event>
<event>
 5   0  0.4146200E+04  0.9118800E+02  0.7546771E-02  0.1180000E+00
      -11   -1    0    0    0    0  0.00000000000E+00  0.00000000000E+00  0.34996269501E-01  0.35000000000E-01  0.51099999109E-03 0. -1.
       11   -1    0    0    0    0 -0.00000000000E+00 -0.00000000000E+00 -0.34996269501E-01  0.35000000000E-01  0.51099999109E-03 0. -1.
       22    1    1    2    0    0  0.21499390169E-03  0.22670595381E-03  0.33792263045E-01  0.33793707397E-01  0.00000000000E+00 0. -1.
       22    1    1    2    0    0 -0.11452111453E-02 -0.56506592414E-02 -0.81688004222E-02  0.99985378314E-02  0.00000000000E+00 0.  1.
       22    1    1    2    0    0  0.93021724358E-03  0.54239532876E-02 -0.25623462623E-01  0.26207754771E-01  0.00000000000E+00 0. -1.
</event>
<event>
 5   0  0.4146200E+04  0.9118800E+02  0.7546771E-02  0.1180000E+00
      -11   -1    0    0    0    0  0.00000000000E+00  0.00000000000E+00  0.34996269501E-01  0.35000000000E-01  0.51099999109E-03 0.  1.
       11   -1    0    0    0    0 -0.00000000000E+00 -0.00000000000E+00 -0.34996269501E-01  0.35000000000E-01  0.51099999109E-03 0. -1.
       22    1    1    2    0    0 -0.58839396500E-03  0.17175094626E-04  0.23441845906E-01  0.23449235423E-01  0.00000000000E+00 0.  1.
       22    1    1    2    0    0  0.16495570025E-01  0.17365132668E-02 -0.25495367342E-01  0.30416000142E-01  0.00000000000E+00 0. -1.
       22    1    1    2    0    0 -0.15907176060E-01 -0.17536883614E-02  0.20535214359E-02  0.16134764435E-01  0.00000000000E+00 0.  1.
</event>
<event>
 5   0  0.4146200E+04  0.9118800E+02  0.7546771E-02  0.1180000E+00
      -11   -1    0    0    0    0  0.00000000000E+00  0.00000000000E+00  0.34996269501E-01  0.35000000000E-01  0.51099999109E-03 0.  1.
       11   -1    0    0    0    0 -0.00000000000E+00 -0.00000000000E+00 -0.34996269501E-01  0.35000000000E-01  0.51099999109E-03 0. -1.
       22    1    1    2    0    0  0.20961186580E-02 -0.49741908356E-02 -0.32589532497E-01  0.33033527154E-01  0.00000000000E+00 0. -1.
       22    1    1    2    0    0  0.75461797798E-03  0.13261522237E-02 -0.17468306380E-02  0.23193846794E-02  0.00000000000E+00 0. -1.
       22    1    1    2    0    0 -0.28507366359E-02  0.36480386118E-02  0.34336363135E-01  0.34647088166E-01  0.00000000000E+00 0.  1.
</event>
<event>
 5   0  0.4146200E+04  0.9118800E+02  0.7546771E-02  0.1180000E+00
      -11   -1    0    0    0    0  0.00000000000E+00  0.00000000000E+00  0.34996269501E-01  0.35000000000E-01  0.51099999109E-03 0.  1.
       11   -1    0    0    0    0 -0.00000000000E+00 -0.00000000000E+00 -0.34996269501E-01  0.35000000000E-01  0.51099999109E-03 0. -1.
       22    1    1    2    0    0 -0.15645063907E-02 -0.16982509417E-02 -0.51786736078E-02  0.56701319953E-02  0.00000000000E+00 0.  1.
       22    1    1    2    0    0 -0.58494638195E-03 -0.15033401860E-02  0.34609706747E-01  0.34647279765E-01  0.00000000000E+00 0.  1.
       22    1    1    2    0    0  0.21494527727E-02  0.32015911277E-02 -0.29431033139E-01  0.29682588240E-01  0.00000000000E+00 0. -1.
</event>
<event>
 5   0  0.4146200E+04  0.9118800E+02  0.7546771E-02  0.1180000E+00
      -11   -1    0    0    0    0  0.00000000000E+00  0.00000000000E+00  0.34996269501E-01  0.35000000000E-01  0.51099999109E-03 0. -1.
       11   -1    0    0    0    0 -0.00000000000E+00 -0.00000000000E+00 -0.34996269501E-01  0.35000000000E-01  0.51099999109E-03 0.  1.
       22    1    1    2    0    0 -0.56586221892E-02  0.47967885403E-02 -0.20500731688E-01  0.21801586757E-01  0.00000000000E+00 0.  1.
       22    1    1    2    0    0  0.90287074121E-03 -0.33105668234E-03  0.33574011519E-01  0.33587780868E-01  0.00000000000E+00 0. -1.
       22    1    1    2    0    0  0.47557514480E-02 -0.44657318580E-02 -0.13073279831E-01  0.14610632376E-01  0.00000000000E+00 0. -1.
</event>
<event>
 5   0  0.4146200E+04  0.9118800E+02  0.7546771E-02  0.1180000E+00
      -11   -1    0    0    0    0  0.00000000000E+00  0.00000000000E+00  0.34996269501E-01  0.35000000000E-01  0.51099999109E-03 0.  1.
       11   -1    0    0    0    0 -0.00000000000E+00 -0.00000000000E+00 -0.34996269501E-01  0.35000000000E-01  0.51099999109E-03 0. -1.
       22    1    1    2    0    0  0.37006163885E-02  0.12036949883E-01 -0.30795958796E-01  0.33271215822E-01  0.00000000000E+00 0. -1.
       22    1    1    2    0    0 -0.19016752418E-02 -0.13295772234E-01  0.12649687482E-01  0.18450163181E-01  0.00000000000E+00 0.  1.
       22    1    1    2    0    0 -0.17989411466E-02  0.12588223510E-02  0.18146271314E-01  0.18278620997E-01  0.00000000000E+00 0.  1.
</event>
<event>
 5   0  0.4146200E+04  0.9118800E+02  0.7546771E-02  0.1180000E+00
      -11   -1    0    0    0    0  0.00000000000E+00  0.00000000000E+00  0.34996269501E-01  0.35000000000E-01  0.51099999109E-03 0. -1.
       11   -1    0    0    0    0 -0.00000000000E+00 -0.00000000000E+00 -0.34996269501E-01  0.35000000000E-01  0.51099999109E-03 0.  1.
       22    1    1    2    0    0 -0.10466869495E-01  0.36419660899E-02  0.32142445118E-01  0.33999353703E-01  0.00000000000E+00 0. -1.
       22    1    1    2    0    0 -0.21526121834E-02  0.36108087857E-04 -0.14056489138E-02  0.25711654701E-02  0.00000000000E+00 0. -1.
       22    1    1    2    0    0  0.12619481678E-01 -0.36780741777E-02 -0.30736796204E-01  0.33429480827E-01  0.00000000000E+00 0.  1.
</event>
<event>
 5   0  0.4146200E+04  0.9118800E+02  0.7546771E-02  0.1180000E+00
      -11   -1    0    0    0    0  0.00000000000E+00  0.00000000000E+00  0.34996269501E-01  0.35000000000E-01  0.51099999109E-03 0. -1.
       11   -1    0    0    0    0 -0.00000000000E+00 -0.00000000000E+00 -0.34996269501E-01  0.35000000000E-01  0.51099999109E-03 0.  1.
       22    1    1    2    0    0 -0.14216707641E-02 -0.12967758827E-02 -0.34503720852E-01  0.34557336820E-01  0.00000000000E+00 0.  1.
       22    1    1    2    0    0  0.22711483690E-04 -0.17932871506E-03 -0.42132040706E-03  0.45845990549E-03  0.00000000000E+00 0.  1.
       22    1    1    2    0    0  0.13989592804E-02  0.14761045978E-02  0.34925041259E-01  0.34984203275E-01  0.00000000000E+00 0. -1.
</event>
<event>
 5   0  0.4146200E+04  0.9118800E+02  0.7546771E-02  0.1180000E+00
      -11   -1    0    0    0    0  0.00000000000E+00  0.00000000000E+00  0.34996269501E-01  0.35000000000E-01  0.51099999109E-03 0. -1.
       11   -1    0    0    0    0 -0.00000000000E+00 -0.00000000000E+00 -0.34996269501E-01  0.35000000000E-01  0.51099999109E-03 0.  1.
       22    1    1    2    0    0  0.12773539486E-02 -0.18771178832E-02 -0.33777776998E-01  0.33854001589E-01  0.00000000000E+00 0.  1.
       22    1    1    2    0    0 -0.17409728866E-02  0.23723894273E-02  0.34797239224E-01  0.34921441491E-01  0.00000000000E+00 0. -1.
       22    1    1    2    0    0  0.46361893795E-03 -0.49527154411E-03 -0.10194622254E-02  0.12245569203E-02  0.00000000000E+00 0.  1.
</event>
<event>
 5   0  0.4146200E+04  0.9118800E+02  0.7546771E-02  0.1180000E+00
      -11   -1    0    0    0    0  0.00000000000E+00  0.00000000000E+00  0.34996269501E-01  0.35000000000E-01  0.51099999109E-03 0. -1.
       11   -1    0    0    0    0 -0.00000000000E+00 -0.00000000000E+00 -0.34996269501E-01  0.35000000000E-01  0.51099999109E-03 0.  1.
       22    1    1    2    0    0  0.41484770920E-02  0.24999996499E-02  0.42863724621E-02  0.64678318868E-02  0.00000000000E+00 0. -1.
       22    1    1    2    0    0  0.11962852321E-01 -0.57180162552E-03 -0.30463885300E-01  0.32733547017E-01  0.00000000000E+00 0.  1.
       22    1    1    2    0    0 -0.16111329413E-01 -0.19281980244E-02  0.26177512838E-01  0.30798621096E-01  0.00000000000E+00 0. -1.
</event>
<event>
 5   0  0.4146200E+04  0.9118800E+02  0.7546771E-02  0.1180000E+00
      -11   -1    0    0    0    0  0.00000000000E+00  0.00000000000E+00  0.34996269501E-01  0.35000000000E-01  0.51099999109E-03 0. -1.
       11   -1    0    0    0    0 -0.00000000000E+00 -0.00000000000E+00 -0.34996269501E-01  0.35000000000E-01  0.51099999109E-03 0.  1.
       22    1    1    2    0    0  0.32556143596E-02  0.35341737967E-02  0.24488291019E-02  0.53931598580E-02  0.00000000000E+00 0. -1.
       22    1    1    2    0    0  0.20850043815E-01 -0.36270522907E-02  0.21822347623E-01  0.30398925823E-01  0.00000000000E+00 0. -1.
       22    1    1    2    0    0 -0.24105658174E-01  0.92878493991E-04 -0.24271176725E-01  0.34207914319E-01  0.00000000000E+00 0.  1.
</event>
<event>
 5   0  0.4146200E+04  0.9118800E+02  0.7546771E-02  0.1180000E+00
      -11   -1    0    0    0    0  0.00000000000E+00  0.00000000000E+00  0.34996269501E-01  0.35000000000E-01  0.51099999109E-03 0.  1.
       11   -1    0    0    0    0 -0.00000000000E+00 -0.00000000000E+00 -0.34996269501E-01  0.35000000000E-01  0.51099999109E-03 0. -1.
       22    1    1    2    0    0  0.13755506735E-02 -0.10637432778E-01  0.25667876074E-01  0.27818824164E-01  0.00000000000E+00 0.  1.
       22    1    1    2    0    0  0.53603262916E-02 -0.23059322226E-03  0.59883145232E-02  0.80402849462E-02  0.00000000000E+00 0.  1.
       22    1    1    2    0    0 -0.67358769651E-02  0.10868026000E-01 -0.31656190597E-01  0.34140890889E-01  0.00000000000E+00 0. -1.
</event>
<event>
 5   0  0.4146200E+04  0.9118800E+02  0.7546771E-02  0.1180000E+00
      -11   -1    0    0    0    0  0.00000000000E+00  0.00000000000E+00  0.34996269501E-01  0.35000000000E-01  0.51099999109E-03 0.  1.
       11   -1    0    0    0    0 -0.00000000000E+00 -0.00000000000E+00 -0.34996269501E-01  0.35000000000E-01  0.51099999109E-03 0. -1.
       22    1    1    2    0    0 -0.84548981849E-02  0.55307167844E-03 -0.20224212864E-01  0.21927379633E-01  0.00000000000E+00 0. -1.
       22    1    1    2    0    0 -0.19703092028E-02  0.66094560639E-02 -0.11785086527E-01  0.13654863319E-01  0.00000000000E+00 0. -1.
       22    1    1    2    0    0  0.10425207388E-01 -0.71625277423E-02  0.32009299391E-01  0.34417757048E-01  0.00000000000E+00 0.  1.
</event>
<event>
 5   0  0.4146200E+04  0.9118800E+02  0.7546771E-02  0.1180000E+00
      -11   -1    0    0    0    0  0.00000000000E+00  0.00000000000E+00  0.34996269501E-01  0.35000000000E-01  0.51099999109E-03 0. -1.
       11   -1    0    0    0    0 -0.00000000000E+00 -0.00000000000E+00 -0.34996269501E-01  0.35000000000E-01  0.51099999109E-03 0.  1.
       22    1    1    2    0    0  0.29725412906E-02 -0.99134105050E-03 -0.26450503308E-01  0.26635462903E-01  0.00000000000E+00 0.  1.
       22    1    1    2    0    0 -0.69157272032E-02 -0.28119363428E-02  0.33564949681E-01  0.34385172907E-01  0.00000000000E+00 0. -1.
       22    1    1    2    0    0  0.39431859127E-02  0.38032773933E-02 -0.71144463732E-02  0.89793641907E-02  0.00000000000E+00 0. -1.
</event>
<event>
 5   0  0.4146200E+04  0.9118800E+02  0.7546771E-02  0.1180000E+00
      -11   -1    0    0    0    0  0.00000000000E+00  0.00000000000E+00  0.34996269501E-01  0.35000000000E-01  0.51099999109E-03 0.  1.
       11   -1    0    0    0    0 -0.00000000000E+00 -0.00000000000E+00 -0.34996269501E-01  0.35000000000E-01  0.51099999109E-03 0. -1.
       22    1    1    2    0    0  0.17077054299E-02 -0.21586023925E-02 -0.28016920241E-01  0.28151796424E-01  0.00000000000E+00 0. -1.
       22    1    1    2    0    0 -0.11240511496E-02  0.28386489542E-02 -0.65725863080E-02  0.72470897364E-02  0.00000000000E+00 0.  1.
       22    1    1    2    0    0 -0.58365428034E-03 -0.68004656168E-03  0.34589506549E-01  0.34601113839E-01  0.00000000000E+00 0.  1.
</event>
<event>
 5   0  0.4146200E+04  0.9118800E+02  0.7546771E-02  0.1180000E+00
      -11   -1    0    0    0    0  0.00000000000E+00  0.00000000000E+00  0.34996269501E-01  0.35000000000E-01  0.51099999109E-03 0.  1.
       11   -1    0    0    0    0 -0.00000000000E+00 -0.00000000000E+00 -0.34996269501E-01  0.35000000000E-01  0.51099999109E-03 0. -1.
       22    1    1    2    0    0  0.29288660497E-02  0.31138371392E-02 -0.64563196145E-02  0.77432745677E-02  0.00000000000E+00 0. -1.
       22    1    1    2    0    0 -0.94736773315E-02  0.22981680154E-01  0.20214168469E-01  0.32039363161E-01  0.00000000000E+00 0.  1.
       22    1    1    2    0    0  0.65448112818E-02 -0.26095517293E-01 -0.13757848854E-01  0.30217362271E-01  0.00000000000E+00 0. -1.
</event>
<event>
 5   0  0.4146200E+04  0.9118800E+02  0.7546771E-02  0.1180000E+00
      -11   -1    0    0    0    0  0.00000000000E+00  0.00000000000E+00  0.34996269501E-01  0.35000000000E-01  0.51099999109E-03 0. -1.
       11   -1    0    0    0    0 -0.00000000000E+00 -0.00000000000E+00 -0.34996269501E-01  0.35000000000E-01  0.51099999109E-03 0.  1.
       22    1    1    2    0    0 -0.97669317732E-02  0.68387897039E-03 -0.27081804557E-01  0.28797305165E-01  0.00000000000E+00 0.  1.
       22    1    1    2    0    0  0.27286976157E-03  0.20051521530E-04 -0.63938219660E-02  0.63996733747E-02  0.00000000000E+00 0. -1.
       22    1    1    2    0    0  0.94940620116E-02 -0.70393049192E-03  0.33475626523E-01  0.34803021460E-01  0.00000000000E+00 0. -1.
</event>
<event>
 5   0  0.4146200E+04  0.9118800E+02  0.7546771E-02  0.1180000E+00
      -11   -1    0    0    0    0  0.00000000000E+00  0.00000000000E+00  0.34996269501E-01  0.35000000000E-01  0.51099999109E-03 0.  1.
       11   -1    0    0    0    0 -0.00000000000E+00 -0.00000000000E+00 -0.34996269501E-01  0.35000000000E-01  0.51099999109E-03 0. -1.
       22    1    1    2    0    0 -0.12296784450E-01  0.16458970467E-02  0.32654600077E-01  0.34931973765E-01  0.00000000000E+00 0.  1.
       22    1    1    2    0    0 -0.16619919124E-03  0.10815695618E-03 -0.47321560733E-03  0.51308197139E-03  0.00000000000E+00 0. -1.
       22    1    1    2    0    0  0.12462983642E-01 -0.17540540028E-02 -0.32181384470E-01  0.34554944264E-01  0.00000000000E+00 0. -1.
</event>
<event>
 5   0  0.4146200E+04  0.9118800E+02  0.7546771E-02  0.1180000E+00
      -11   -1    0    0    0    0  0.00000000000E+00  0.00000000000E+00  0.34996269501E-01  0.35000000000E-01  0.51099999109E-03 0.  1.
       11   -1    0    0    0    0 -0.00000000000E+00 -0.00000000000E+00 -0.34996269501E-01  0.35000000000E-01  0.51099999109E-03 0. -1.
       22    1    1    2    0    0  0.15141086042E-01 -0.56277300327E-02 -0.18449328100E-01  0.24521450593E-01  0.00000000000E+00 0. -1.
       22    1    1    2    0    0 -0.26554949914E-01  0.30862167101E-02  0.42261593203E-02  0.27065670528E-01  0.00000000000E+00 0. -1.
       22    1    1    2    0    0  0.11413863873E-01  0.25415133226E-02  0.14223168780E-01  0.18412878879E-01  0.00000000000E+00 0.  1.
</event>
<event>
 5   0  0.4146200E+04  0.9118800E+02  0.7546771E-02  0.1180000E+00
      -11   -1    0    0    0    0  0.00000000000E+00  0.00000000000E+00  0.34996269501E-01  0.35000000000E-01  0.51099999109E-03 0. -1.
       11   -1    0    0    0    0 -0.00000000000E+00 -0.00000000000E+00 -0.34996269501E-01  0.35000000000E-01  0.51099999109E-03 0.  1.
       22    1    1    2    0    0  0.14932442859E-01  0.16732909069E-02 -0.10781220966E-01  0.18493579364E-01  0.00000000000E+00 0.  1.
       22    1    1    2    0    0  0.23003071417E-02  0.82858658234E-02 -0.15984871503E-01  0.18151118487E-01  0.00000000000E+00 0.  1.
       22    1    1    2    0    0 -0.17232750000E-01 -0.99591567303E-02  0.26766092469E-01  0.33355302148E-01  0.00000000000E+00 0. -1.
</event>
<event>
 5   0  0.4146200E+04  0.9118800E+02  0.7546771E-02  0.1180000E+00
      -11   -1    0    0    0    0  0.00000000000E+00  0.00000000000E+00  0.34996269501E-01  0.35000000000E-01  0.51099999109E-03 0.  1.
       11   -1    0    0    0    0 -0.00000000000E+00 -0.00000000000E+00 -0.34996269501E-01  0.35000000000E-01  0.51099999109E-03 0. -1.
       22    1    1    2    0    0  0.14624350376E-02  0.64565816376E-03 -0.20728554613E-03  0.16120043428E-02  0.00000000000E+00 0. -1.
       22    1    1    2    0    0 -0.23443021097E-01 -0.59007306479E-02  0.25043926558E-01  0.34807931823E-01  0.00000000000E+00 0.  1.
       22    1    1    2    0    0  0.21980586060E-01  0.52550724841E-02 -0.24836641012E-01  0.33580063834E-01  0.00000000000E+00 0. -1.
</event>
<event>
 5   0  0.4146200E+04  0.9118800E+02  0.7546771E-02  0.1180000E+00
      -11   -1    0    0    0    0  0.00000000000E+00  0.00000000000E+00  0.34996269501E-01  0.35000000000E-01  0.51099999109E-03 0.  1.
       11   -1    0    0    0    0 -0.00000000000E+00 -0.00000000000E+00 -0.34996269501E-01  0.35000000000E-01  0.51099999109E-03 0. -1.
       22    1    1    2    0    0  0.10555449497E-02  0.14617693683E-02 -0.30200540065E-01  0.30254314817E-01  0.00000000000E+00 0. -1.
       22    1    1    2    0    0 -0.41435463813E-03 -0.33117554012E-02 -0.41577613907E-02  0.53316407779E-02  0.00000000000E+00 0.  1.
       22    1    1    2    0    0 -0.64119031154E-03  0.18499860329E-02  0.34358301456E-01  0.34414044405E-01  0.00000000000E+00 0.  1.
</event>
<event>
 5   0  0.4146200E+04  0.9118800E+02  0.7546771E-02  0.1180000E+00
      -11   -1    0    0    0    0  0.00000000000E+00  0.00000000000E+00  0.34996269501E-01  0.35000000000E-01  0.51099999109E-03 0.  1.
       11   -1    0    0    0    0 -0.00000000000E+00 -0.00000000000E+00 -0.34996269501E-01  0.35000000000E-01  0.51099999109E-03 0. -1.
       22    1    1    2    0    0  0.35074380841E-03  0.13443220142E-03 -0.29188528301E-02  0.29429228803E-02  0.00000000000E+00 0. -1.
       22    1    1    2    0    0  0.11068497354E-01 -0.13588575757E-01  0.29993806580E-01  0.34738875312E-01  0.00000000000E+00 0.  1.
       22    1    1    2    0    0 -0.11419241162E-01  0.13454143555E-01 -0.27074953750E-01  0.32318201808E-01  0.00000000000E+00 0. -1.
</event>
<event>
 5   0  0.4146200E+04  0.9118800E+02  0.7546771E-02  0.1180000E+00
      -11   -1    0    0    0    0  0.00000000000E+00  0.00000000000E+00  0.34996269501E-01  0.35000000000E-01  0.51099999109E-03 0.  1.
       11   -1    0    0    0    0 -0.00000000000E+00 -0.00000000000E+00 -0.34996269501E-01  0.35000000000E-01  0.51099999109E-03 0. -1.
       22    1    1    2    0    0  0.84617184775E-02  0.82812488873E-02 -0.32915797353E-01  0.34980415637E-01  0.00000000000E+00 0. -1.
       22    1    1    2    0    0  0.33480638362E-04  0.27014451045E-04  0.36903546292E-03  0.37153452949E-03  0.00000000000E+00 0.  1.
       22    1    1    2    0    0 -0.84951991158E-02 -0.83082633384E-02  0.32546761890E-01  0.34648049834E-01  0.00000000000E+00 0.  1.
</event>
<event>
 5   0  0.4146200E+04  0.9118800E+02  0.7546771E-02  0.1180000E+00
      -11   -1    0    0    0    0  0.00000000000E+00  0.00000000000E+00  0.34996269501E-01  0.35000000000E-01  0.51099999109E-03 0. -1.
       11   -1    0    0    0    0 -0.00000000000E+00 -0.00000000000E+00 -0.34996269501E-01  0.35000000000E-01  0.51099999109E-03 0.  1.
       22    1    1    2    0    0 -0.13772095746E-01  0.15462474123E-01 -0.27443310023E-01  0.34378685144E-01  0.00000000000E+00 0.  1.
       22    1    1    2    0    0  0.11103442116E-02  0.93772153067E-03  0.43956899633E-02  0.46297166426E-02  0.00000000000E+00 0.  1.
       22    1    1    2    0    0  0.12661751535E-01 -0.16400195653E-01  0.23047620059E-01  0.30991598213E-01  0.00000000000E+00 0. -1.
</event>
<event>
 5   0  0.4146200E+04  0.9118800E+02  0.7546771E-02  0.1180000E+00
      -11   -1    0    0    0    0  0.00000000000E+00  0.00000000000E+00  0.34996269501E-01  0.35000000000E-01  0.51099999109E-03 0.  1.
       11   -1    0    0    0    0 -0.00000000000E+00 -0.00000000000E+00 -0.34996269501E-01  0.35000000000E-01  0.51099999109E-03 0. -1.
       22    1    1    2    0    0 -0.21997217165E-01  0.28045070809E-03 -0.27113500790E-01  0.34915585928E-01  0.00000000000E+00 0. -1.
       22    1    1    2    0    0  0.81888635809E-02 -0.47851436037E-03  0.76279074333E-02  0.11201403240E-01  0.00000000000E+00 0.  1.
       22    1    1    2    0    0  0.13808353584E-01  0.19806365228E-03  0.19485593357E-01  0.23883010832E-01  0.00000000000E+00 0.  1.
</event>
<event>
 5   0  0.4146200E+04  0.9118800E+02  0.7546771E-02  0.1180000E+00
      -11   -1    0    0    0    0  0.00000000000E+00  0.00000000000E+00  0.34996269501E-01  0.35000000000E-01  0.51099999109E-03 0. -1.
       11   -1    0    0    0    0 -0.00000000000E+00 -0.00000000000E+00 -0.34996269501E-01  0.35000000000E-01  0.51099999109E-03 0.  1.
       22    1    1    2    0    0  0.93318204893E-03  0.19856303111E-02 -0.41345096779E-02  0.46805690621E-02  0.00000000000E+00 0. -1.
       22    1    1    2    0    0  0.85924466608E-03 -0.77056183524E-02 -0.29834542359E-01  0.30825553902E-01  0.00000000000E+00 0.  1.
       22    1    1    2    0    0 -0.17924267150E-02  0.57199880414E-02  0.33969052037E-01  0.34493877036E-01  0.00000000000E+00 0. -1.
</event>
<event>
 5   0  0.4146200E+04  0.9118800E+02  0.7546771E-02  0.1180000E+00
      -11   -1    0    0    0    0  0.00000000000E+00  0.00000000000E+00  0.34996269501E-01  0.35000000000E-01  0.51099999109E-03 0. -1.
       11   -1    0    0    0    0 -0.00000000000E+00 -0.00000000000E+00 -0.34996269501E-01  0.35000000000E-01  0.51099999109E-03 0.  1.
       22    1    1    2    0    0  0.20329930005E-02 -0.22433346359E-02 -0.27196373668E-01  0.27364362801E-01  0.00000000000E+00 0.  1.
       22    1    1    2    0    0 -0.17220871165E-02  0.33370232816E-02 -0.72530264111E-02  0.81674782240E-02  0.00000000000E+00 0.  1.
       22    1    1    2    0    0 -0.31090588396E-03 -0.10936886457E-02  0.34449400079E-01  0.34468158975E-01  0.00000000000E+00 0. -1.
</event>
<event>
 5   0  0.4146200E+04  0.9118800E+02  0.7546771E-02  0.1180000E+00
      -11   -1    0    0    0    0  0.00000000000E+00  0.00000000000E+00  0.34996269501E-01  0.35000000000E-01  0.51099999109E-03 0. -1.
       11   -1    0    0    0    0 -0.00000000000E+00 -0.00000000000E+00 -0.34996269501E-01  0.35000000000E-01  0.51099999109E-03 0.  1.
       22    1    1    2    0    0  0.18541037097E-03  0.56094036593E-03 -0.80183570000E-03  0.99597770537E-03  0.00000000000E+00 0.  1.
       22    1    1    2    0    0  0.11576519347E-01  0.16987724541E-02  0.32807103952E-01  0.34831131158E-01  0.00000000000E+00 0. -1.
       22    1    1    2    0    0 -0.11761929718E-01 -0.22597128200E-02 -0.32005268252E-01  0.34172891136E-01  0.00000000000E+00 0.  1.
</event>
<event>
 5   0  0.4146200E+04  0.9118800E+02  0.7546771E-02  0.1180000E+00
      -11   -1    0    0    0    0  0.00000000000E+00  0.00000000000E+00  0.34996269501E-01  0.35000000000E-01  0.51099999109E-03 0.  1.
       11   -1    0    0    0    0 -0.00000000000E+00 -0.00000000000E+00 -0.34996269501E-01  0.35000000000E-01  0.51099999109E-03 0. -1.
       22    1    1    2    0    0  0.44564468480E-03 -0.47969455412E-04  0.28839346879E-03  0.53298315788E-03  0.00000000000E+00 0. -1.
       22    1    1    2    0    0 -0.23890084371E-02  0.16689202051E-01  0.30252084563E-01  0.34632722198E-01  0.00000000000E+00 0.  1.
       22    1    1    2    0    0  0.19433637524E-02 -0.16641232595E-01 -0.30540478032E-01  0.34834294645E-01  0.00000000000E+00 0. -1.
</event>
<event>
 5   0  0.4146200E+04  0.9118800E+02  0.7546771E-02  0.1180000E+00
      -11   -1    0    0    0    0  0.00000000000E+00  0.00000000000E+00  0.34996269501E-01  0.35000000000E-01  0.51099999109E-03 0. -1.
       11   -1    0    0    0    0 -0.00000000000E+00 -0.00000000000E+00 -0.34996269501E-01  0.35000000000E-01  0.51099999109E-03 0.  1.
       22    1    1    2    0    0 -0.17844496748E-01 -0.20674279995E-02 -0.29901417702E-01  0.34882590261E-01  0.00000000000E+00 0.  1.
       22    1    1    2    0    0  0.30772327560E-03 -0.58752373982E-03  0.82869191643E-03  0.10614179439E-02  0.00000000000E+00 0. -1.
       22    1    1    2    0    0  0.17536773473E-01  0.26549517393E-02  0.29072725785E-01  0.34055991795E-01  0.00000000000E+00 0. -1.
</event>
<event>
 5   0  0.4146200E+04  0.9118800E+02  0.7546771E-02  0.1180000E+00
      -11   -1    0    0    0    0  0.00000000000E+00  0.00000000000E+00  0.34996269501E-01  0.35000000000E-01  0.51099999109E-03 0.  1.
       11   -1    0    0    0    0 -0.00000000000E+00 -0.00000000000E+00 -0.34996269501E-01  0.35000000000E-01  0.51099999109E-03 0.  1.
       22    1    1    2    0    0  0.00000000000E+00 -0.00000000000E+00  0.34872991009E-01  0.34872417385E-01  0.00000000000E+00 0.  1.
       22    1    1    2    0    0  0.11816276259E-02 -0.52092721828E-03 -0.35432176960E-02  0.37712067902E-02  0.00000000000E+00 0. -1.
       22    1    1    2    0    0 -0.11816276259E-02  0.52092721828E-03 -0.31329773313E-01  0.31356375825E-01  0.00000000000E+00 0.  1.
</event>
<event>
 5   0  0.4146200E+04  0.9118800E+02  0.7546771E-02  0.1180000E+00
      -11   -1    0    0    0    0  0.00000000000E+00  0.00000000000E+00  0.34996269501E-01  0.35000000000E-01  0.51099999109E-03 0.  1.
       11   -1    0    0    0    0 -0.00000000000E+00 -0.00000000000E+00 -0.34996269501E-01  0.35000000000E-01  0.51099999109E-03 0. -1.
       22    1    1    2    0    0  0.42904836382E-02 -0.29237677624E-02 -0.98170165446E-02  0.11105425774E-01  0.00000000000E+00 0. -1.
       22    1    1    2    0    0  0.23941778846E-02  0.17397023660E-01  0.29030201707E-01  0.33928470805E-01  0.00000000000E+00 0.  1.
       22    1    1    2    0    0 -0.66846615228E-02 -0.14473255898E-01 -0.19213185163E-01  0.24966103422E-01  0.00000000000E+00 0. -1.
</event>
<event>
 5   0  0.4146200E+04  0.9118800E+02  0.7546771E-02  0.1180000E+00
      -11   -1    0    0    0    0  0.00000000000E+00  0.00000000000E+00  0.34996269501E-01  0.35000000000E-01  0.51099999109E-03 0. -1.
       11   -1    0    0    0    0 -0.00000000000E+00 -0.00000000000E+00 -0.34996269501E-01  0.35000000000E-01  0.51099999109E-03 0.  1.
       22    1    1    2    0    0 -0.79334860074E-04  0.94644411888E-04  0.14481733822E-02  0.14534296438E-02  0.00000000000E+00 0.  1.
       22    1    1    2    0    0 -0.15049514711E-01  0.16220427656E-01 -0.26840534233E-01  0.34785118144E-01  0.00000000000E+00 0.  1.
       22    1    1    2    0    0  0.15128849571E-01 -0.16315072068E-01  0.25392360851E-01  0.33761452212E-01  0.00000000000E+00 0. -1.
</event>
<event>
 5   0  0.4146200E+04  0.9118800E+02  0.7546771E-02  0.1180000E+00
      -11   -1    0    0    0    0  0.00000000000E+00  0.00000000000E+00  0.34996269501E-01  0.35000000000E-01  0.51099999109E-03 0. -1.
       11   -1    0    0    0    0 -0.00000000000E+00 -0.00000000000E+00 -0.34996269501E-01  0.35000000000E-01  0.51099999109E-03 0.  1.
       22    1    1    2    0    0  0.10316858726E-01 -0.16409153795E-01  0.29097650639E-01  0.34962425187E-01  0.00000000000E+00 0. -1.
       22    1    1    2    0    0 -0.24446605047E-04 -0.40490053975E-04 -0.35490361430E-03  0.35804141718E-03  0.00000000000E+00 0. -1.
       22    1    1    2    0    0 -0.10292412121E-01  0.16449643849E-01 -0.28742747025E-01  0.34679533396E-01  0.00000000000E+00 0.  1.
</event>
<event>
 5   0  0.4146200E+04  0.9118800E+02  0.7546771E-02  0.1180000E+00
      -11   -1    0    0    0    0  0.00000000000E+00  0.00000000000E+00  0.34996269501E-01  0.35000000000E-01  0.51099999109E-03 0. -1.
       11   -1    0    0    0    0 -0.00000000000E+00 -0.00000000000E+00 -0.34996269501E-01  0.35000000000E-01  0.51099999109E-03 0.  1.
       22    1    1    2    0    0 -0.19102637925E-01  0.12536439062E-01 -0.26183962351E-01  0.34751589380E-01  0.00000000000E+00 0.  1.
       22    1    1    2    0    0 -0.23503130603E-03 -0.35482316153E-05  0.13488961232E-02  0.13692235230E-02  0.00000000000E+00 0. -1.
       22    1    1    2    0    0  0.19337669231E-01 -0.12532890830E-01  0.24835066228E-01  0.33879187097E-01  0.00000000000E+00 0. -1.
</event>
<event>
 5   0  0.4146200E+04  0.9118800E+02  0.7546771E-02  0.1180000E+00
      -11   -1    0    0    0    0  0.00000000000E+00  0.00000000000E+00  0.34996269501E-01  0.35000000000E-01  0.51099999109E-03 0. -1.
       11   -1    0    0    0    0 -0.00000000000E+00 -0.00000000000E+00 -0.34996269501E-01  0.35000000000E-01  0.51099999109E-03 0.  1.
       22    1    1    2    0    0 -0.85285040248E-02 -0.73331341140E-02  0.32331666600E-01  0.34232249444E-01  0.00000000000E+00 0. -1.
       22    1    1    2    0    0 -0.92226359433E-03  0.46702889115E-02 -0.16180092366E-01  0.16865869607E-01  0.00000000000E+00 0. -1.
       22    1    1    2    0    0  0.94507676191E-02  0.26628452025E-02 -0.16151574234E-01  0.18901880949E-01  0.00000000000E+00 0.  1.
</event>
<event>
 5   0  0.4146200E+04  0.9118800E+02  0.7546771E-02  0.1180000E+00
      -11   -1    0    0    0    0  0.00000000000E+00  0.00000000000E+00  0.34996269501E-01  0.35000000000E-01  0.51099999109E-03 0. -1.
       11   -1    0    0    0    0 -0.00000000000E+00 -0.00000000000E+00 -0.34996269501E-01  0.35000000000E-01  0.51099999109E-03 0. -1.
       22    1    1    2    0    0  0.44273958151E-03  0.29552471014E-03 -0.32578092937E-01  0.32582441477E-01  0.00000000000E+00 0. -1.
       22    1    1    2    0    0  0.14315990154E-02 -0.10193420692E-02 -0.20676424909E-02  0.27136100429E-02  0.00000000000E+00 0.  1.
       22    1    1    2    0    0 -0.18743385969E-02  0.72381735908E-03  0.34645735428E-01  0.34703948480E-01  0.00000000000E+00 0. -1.
</event>
<event>
 5   0  0.4146200E+04  0.9118800E+02  0.7546771E-02  0.1180000E+00
      -11   -1    0    0    0    0  0.00000000000E+00  0.00000000000E+00  0.34996269501E-01  0.35000000000E-01  0.51099999109E-03 0.  1.
       11   -1    0    0    0    0 -0.00000000000E+00 -0.00000000000E+00 -0.34996269501E-01  0.35000000000E-01  0.51099999109E-03 0. -1.
       22    1    1    2    0    0 -0.36171308152E-03 -0.89389793587E-03 -0.34455744937E-01  0.34469236270E-01  0.00000000000E+00 0. -1.
       22    1    1    2    0    0  0.27873675031E-03 -0.24274544803E-03 -0.46355178395E-03  0.59287417292E-03  0.00000000000E+00 0. -1.
       22    1    1    2    0    0  0.82976331206E-04  0.11366433839E-02  0.34919296721E-01  0.34937889557E-01  0.00000000000E+00 0.  1.
</event>
<event>
 5   0  0.4146200E+04  0.9118800E+02  0.7546771E-02  0.1180000E+00
      -11   -1    0    0    0    0  0.00000000000E+00  0.00000000000E+00  0.34996269501E-01  0.35000000000E-01  0.51099999109E-03 0.  1.
       11   -1    0    0    0    0 -0.00000000000E+00 -0.00000000000E+00 -0.34996269501E-01  0.35000000000E-01  0.51099999109E-03 0. -1.
       22    1    1    2    0    0  0.17489958741E-01 -0.34257801706E-02  0.21086999932E-01  0.27609711927E-01  0.00000000000E+00 0.  1.
       22    1    1    2    0    0 -0.84226345886E-03 -0.57056636409E-03  0.83095333775E-02  0.83715768325E-02  0.00000000000E+00 0.  1.
       22    1    1    2    0    0 -0.16647695282E-01  0.39963465347E-02 -0.29396533310E-01  0.34018711241E-01  0.00000000000E+00 0. -1.
</event>
<event>
 5   0  0.4146200E+04  0.9118800E+02  0.7546771E-02  0.1180000E+00
      -11   -1    0    0    0    0  0.00000000000E+00  0.00000000000E+00  0.34996269501E-01  0.35000000000E-01  0.51099999109E-03 0. -1.
       11   -1    0    0    0    0 -0.00000000000E+00 -0.00000000000E+00 -0.34996269501E-01  0.35000000000E-01  0.51099999109E-03 0. -1.
       22    1    1    2    0    0 -0.37208429926E-03 -0.55664704180E-04 -0.39476103723E-03  0.54532702259E-03  0.00000000000E+00 0.  1.
       22    1    1    2    0    0  0.37208429926E-03  0.55664704180E-04 -0.34530268934E-01  0.34532318456E-01  0.00000000000E+00 0. -1.
       22    1    1    2    0    0 -0.00000000000E+00 -0.00000000000E+00  0.34925029972E-01  0.34922354521E-01  0.00000000000E+00 0. -1.
</event>
<event>
 5   0  0.4146200E+04  0.9118800E+02  0.7546771E-02  0.1180000E+00
      -11   -1    0    0    0    0  0.00000000000E+00  0.00000000000E+00  0.34996269501E-01  0.35000000000E-01  0.51099999109E-03 0. -1.
       11   -1    0    0    0    0 -0.00000000000E+00 -0.00000000000E+00 -0.34996269501E-01  0.35000000000E-01  0.51099999109E-03 0.  1.
       22    1    1    2    0    0  0.88671515974E-03 -0.13151710819E-01  0.27577275102E-02  0.13466952969E-01  0.00000000000E+00 0. -1.
       22    1    1    2    0    0 -0.16513626360E-02  0.14716033289E-02  0.25682862754E-01  0.25777937353E-01  0.00000000000E+00 0. -1.
       22    1    1    2    0    0  0.76464747622E-03  0.11680107490E-01 -0.28440590264E-01  0.30755109678E-01  0.00000000000E+00 0.  1.
</event>
<event>
 5   0  0.4146200E+04  0.9118800E+02  0.7546771E-02  0.1180000E+00
      -11   -1    0    0    0    0  0.00000000000E+00  0.00000000000E+00  0.34996269501E-01  0.35000000000E-01  0.51099999109E-03 0. -1.
       11   -1    0    0    0    0 -0.00000000000E+00 -0.00000000000E+00 -0.34996269501E-01  0.35000000000E-01  0.51099999109E-03 0.  1.
       22    1    1    2    0    0 -0.80196441226E-03  0.22464195894E-01 -0.12243100573E-01  0.25596420760E-01  0.00000000000E+00 0.  1.
       22    1    1    2    0    0 -0.11677420125E-02  0.50792120208E-02 -0.84284540254E-02  0.99096343736E-02  0.00000000000E+00 0.  1.
       22    1    1    2    0    0  0.19697064247E-02 -0.27543407915E-01  0.20671554598E-01  0.34493944867E-01  0.00000000000E+00 0. -1.
</event>
<event>
 5   0  0.4146200E+04  0.9118800E+02  0.7546771E-02  0.1180000E+00
      -11   -1    0    0    0    0  0.00000000000E+00  0.00000000000E+00  0.34996269501E-01  0.35000000000E-01  0.51099999109E-03 0. -1.
       11   -1    0    0    0    0 -0.00000000000E+00 -0.00000000000E+00 -0.34996269501E-01  0.35000000000E-01  0.51099999109E-03 0.  1.
       22    1    1    2    0    0 -0.13946244351E-01  0.11001851342E-01  0.64107872265E-02  0.18884826113E-01  0.00000000000E+00 0.  1.
       22    1    1    2    0    0  0.10346936727E-01 -0.20655180288E-01  0.14868510394E-01  0.27473044493E-01  0.00000000000E+00 0. -1.
       22    1    1    2    0    0  0.35993076236E-02  0.96533289463E-02 -0.21279297620E-01  0.23642129395E-01  0.00000000000E+00 0.  1.
</event>
<event>
 5   0  0.4146200E+04  0.9118800E+02  0.7546771E-02  0.1180000E+00
      -11   -1    0    0    0    0  0.00000000000E+00  0.00000000000E+00  0.34996269501E-01  0.35000000000E-01  0.51099999109E-03 0.  1.
       11   -1    0    0    0    0 -0.00000000000E+00 -0.00000000000E+00 -0.34996269501E-01  0.35000000000E-01  0.51099999109E-03 0. -1.
       22    1    1    2    0    0  0.20968022060E-02 -0.35139698268E-02 -0.70547670008E-02  0.81556300106E-02  0.00000000000E+00 0. -1.
       22    1    1    2    0    0 -0.17121337451E-02  0.40148779215E-02  0.34307644995E-01  0.34584174875E-01  0.00000000000E+00 0.  1.
       22    1    1    2    0    0 -0.38466846087E-03 -0.50090809471E-03 -0.27252877994E-01  0.27260195115E-01  0.00000000000E+00 0. -1.
</event>
<event>
 5   0  0.4146200E+04  0.9118800E+02  0.7546771E-02  0.1180000E+00
      -11   -1    0    0    0    0  0.00000000000E+00  0.00000000000E+00  0.34996269501E-01  0.35000000000E-01  0.51099999109E-03 0. -1.
       11   -1    0    0    0    0 -0.00000000000E+00 -0.00000000000E+00 -0.34996269501E-01  0.35000000000E-01  0.51099999109E-03 0.  1.
       22    1    1    2    0    0  0.17723156282E-03 -0.43573096813E-02 -0.33050800682E-01  0.33337261202E-01  0.00000000000E+00 0.  1.
       22    1    1    2    0    0  0.62624801204E-03  0.29919137660E-03 -0.16114168258E-02  0.17545273548E-02  0.00000000000E+00 0.  1.
       22    1    1    2    0    0 -0.80347957486E-03  0.40581183047E-02  0.34662217508E-01  0.34908211443E-01  0.00000000000E+00 0. -1.
</event>
<event>
 5   0  0.4146200E+04  0.9118800E+02  0.7546771E-02  0.1180000E+00
      -11   -1    0    0    0    0  0.00000000000E+00  0.00000000000E+00  0.34996269501E-01  0.35000000000E-01  0.51099999109E-03 0. -1.
       11   -1    0    0    0    0 -0.00000000000E+00 -0.00000000000E+00 -0.34996269501E-01  0.35000000000E-01  0.51099999109E-03 0.  1.
       22    1    1    2    0    0 -0.48825754463E-03  0.99548197986E-03 -0.14461369818E-01  0.14503813182E-01  0.00000000000E+00 0.  1.
       22    1    1    2    0    0 -0.14481188305E-01 -0.46866380916E-02  0.29978902364E-01  0.33621480905E-01  0.00000000000E+00 0. -1.
       22    1    1    2    0    0  0.14969445849E-01  0.36911561117E-02 -0.15517532546E-01  0.21874705913E-01  0.00000000000E+00 0.  1.
</event>
<event>
 5   0  0.4146200E+04  0.9118800E+02  0.7546771E-02  0.1180000E+00
      -11   -1    0    0    0    0  0.00000000000E+00  0.00000000000E+00  0.34996269501E-01  0.35000000000E-01  0.51099999109E-03 0.  1.
       11   -1    0    0    0    0 -0.00000000000E+00 -0.00000000000E+00 -0.34996269501E-01  0.35000000000E-01  0.51099999109E-03 0. -1.
       22    1    1    2    0    0 -0.11643535014E-02  0.31566408434E-02 -0.10091659496E-02  0.35126224398E-02  0.00000000000E+00 0.  1.
       22    1    1    2    0    0  0.12309994913E-01  0.13240654157E-02  0.31429993239E-01  0.33780669013E-01  0.00000000000E+00 0.  1.
       22    1    1    2    0    0 -0.11145641412E-01 -0.44807062591E-02 -0.30420827289E-01  0.32706708547E-01  0.00000000000E+00 0. -1.
</event>
<event>
 5   0  0.4146200E+04  0.9118800E+02  0.7546771E-02  0.1180000E+00
      -11   -1    0    0    0    0  0.00000000000E+00  0.00000000000E+00  0.34996269501E-01  0.35000000000E-01  0.51099999109E-03 0.  1.
       11   -1    0    0    0    0 -0.00000000000E+00 -0.00000000000E+00 -0.34996269501E-01  0.35000000000E-01  0.51099999109E-03 0. -1.
       22    1    1    2    0    0 -0.80614547694E-02  0.64985967690E-02 -0.26321541646E-01  0.28285020198E-01  0.00000000000E+00 0. -1.
       22    1    1    2    0    0 -0.57958277082E-03 -0.18604376378E-03 -0.68412948321E-02  0.68683217346E-02  0.00000000000E+00 0.  1.
       22    1    1    2    0    0  0.86410375403E-02 -0.63125530053E-02  0.33162836478E-01  0.34846658068E-01  0.00000000000E+00 0.  1.
</event>
<event>
 5   0  0.4146200E+04  0.9118800E+02  0.7546771E-02  0.1180000E+00
      -11   -1    0    0    0    0  0.00000000000E+00  0.00000000000E+00  0.34996269501E-01  0.35000000000E-01  0.51099999109E-03 0.  1.
       11   -1    0    0    0    0 -0.00000000000E+00 -0.00000000000E+00 -0.34996269501E-01  0.35000000000E-01  0.51099999109E-03 0. -1.
       22    1    1    2    0    0  0.21525247849E-02 -0.36414454324E-02  0.12593340863E-01  0.13284792880E-01  0.00000000000E+00 0.  1.
       22    1    1    2    0    0 -0.11767622786E-01 -0.10655822909E-01 -0.28912293609E-01  0.32983999600E-01  0.00000000000E+00 0. -1.
       22    1    1    2    0    0  0.96150980016E-02  0.14297268341E-01  0.16318952746E-01  0.23731207519E-01  0.00000000000E+00 0.  1.
</event>
<event>
 5   0  0.4146200E+04  0.9118800E+02  0.7546771E-02  0.1180000E+00
      -11   -1    0    0    0    0  0.00000000000E+00  0.00000000000E+00  0.34996269501E-01  0.35000000000E-01  0.51099999109E-03 0. -1.
       11   -1    0    0    0    0 -0.00000000000E+00 -0.00000000000E+00 -0.34996269501E-01  0.35000000000E-01  0.51099999109E-03 0.  1.
       22    1    1    2    0    0  0.10941623825E-01  0.71940213599E-02  0.32212894023E-01  0.34772742437E-01  0.00000000000E+00 0. -1.
       22    1    1    2    0    0 -0.91388384879E-02 -0.74474046355E-02 -0.30609709691E-01  0.32801471493E-01  0.00000000000E+00 0.  1.
       22    1    1    2    0    0 -0.18027853367E-02  0.25338327563E-03 -0.16031843322E-02  0.24257860700E-02  0.00000000000E+00 0. -1.
</event>
<event>
 5   0  0.4146200E+04  0.9118800E+02  0.7546771E-02  0.1180000E+00
      -11   -1    0    0    0    0  0.00000000000E+00  0.00000000000E+00  0.34996269501E-01  0.35000000000E-01  0.51099999109E-03 0.  1.
       11   -1    0    0    0    0 -0.00000000000E+00 -0.00000000000E+00 -0.34996269501E-01  0.35000000000E-01  0.51099999109E-03 0. -1.
       22    1    1    2    0    0  0.16077675510E-01 -0.10797966419E-02  0.29468699090E-01  0.33586631815E-01  0.00000000000E+00 0.  1.
       22    1    1    2    0    0  0.27288074338E-03  0.79644190877E-03  0.13116878127E-02  0.15586239226E-02  0.00000000000E+00 0. -1.
       22    1    1    2    0    0 -0.16350556253E-01  0.28335473309E-03 -0.30780386903E-01  0.34854744262E-01  0.00000000000E+00 0. -1.
</event>
<event>
 5   0  0.4146200E+04  0.9118800E+02  0.7546771E-02  0.1180000E+00
      -11   -1    0    0    0    0  0.00000000000E+00  0.00000000000E+00  0.34996269501E-01  0.35000000000E-01  0.51099999109E-03 0.  1.
       11   -1    0    0    0    0 -0.00000000000E+00 -0.00000000000E+00 -0.34996269501E-01  0.35000000000E-01  0.51099999109E-03 0. -1.
       22    1    1    2    0    0 -0.85756898859E-02  0.12999915693E-02 -0.20830859013E-01  0.22564510239E-01  0.00000000000E+00 0. -1.
       22    1    1    2    0    0  0.23268516647E-03 -0.42146558272E-02  0.32513729307E-01  0.32786583530E-01  0.00000000000E+00 0.  1.
       22    1    1    2    0    0  0.83430047195E-02  0.29146642579E-02 -0.11682870294E-01  0.14648906232E-01  0.00000000000E+00 0.  1.
</event>
<event>
 5   0  0.4146200E+04  0.9118800E+02  0.7546771E-02  0.1180000E+00
      -11   -1    0    0    0    0  0.00000000000E+00  0.00000000000E+00  0.34996269501E-01  0.35000000000E-01  0.51099999109E-03 0.  1.
       11   -1    0    0    0    0 -0.00000000000E+00 -0.00000000000E+00 -0.34996269501E-01  0.35000000000E-01  0.51099999109E-03 0. -1.
       22    1    1    2    0    0  0.12795953546E-01  0.98531687342E-02 -0.30632699423E-01  0.34629230936E-01  0.00000000000E+00 0. -1.
       22    1    1    2    0    0 -0.12752326079E-01 -0.98841375045E-02  0.31027821249E-01  0.34972041491E-01  0.00000000000E+00 0.  1.
       22    1    1    2    0    0 -0.43627467484E-04  0.30968770322E-04 -0.39512182525E-03  0.39872757296E-03  0.00000000000E+00 0. -1.
</event>
<event>
 5   0  0.4146200E+04  0.9118800E+02  0.7546771E-02  0.1180000E+00
      -11   -1    0    0    0    0  0.00000000000E+00  0.00000000000E+00  0.34996269501E-01  0.35000000000E-01  0.51099999109E-03 0.  1.
       11   -1    0    0    0    0 -0.00000000000E+00 -0.00000000000E+00 -0.34996269501E-01  0.35000000000E-01  0.51099999109E-03 0. -1.
       22    1    1    2    0    0 -0.24893268036E-02 -0.90243938083E-02  0.33333324006E-01  0.34622924787E-01  0.00000000000E+00 0.  1.
       22    1    1    2    0    0 -0.22410703441E-03 -0.17297549048E-03 -0.11819671830E-01  0.11823061645E-01  0.00000000000E+00 0. -1.
       22    1    1    2    0    0  0.27134338380E-02  0.91973692988E-02 -0.21513652176E-01  0.23554013568E-01  0.00000000000E+00 0. -1.
</event>
<event>
 5   0  0.4146200E+04  0.9118800E+02  0.7546771E-02  0.1180000E+00
      -11   -1    0    0    0    0  0.00000000000E+00  0.00000000000E+00  0.34996269501E-01  0.35000000000E-01  0.51099999109E-03 0. -1.
       11   -1    0    0    0    0 -0.00000000000E+00 -0.00000000000E+00 -0.34996269501E-01  0.35000000000E-01  0.51099999109E-03 0.  1.
       22    1    1    2    0    0 -0.98995357373E-02  0.13907339877E-01  0.30486086295E-01  0.34940182711E-01  0.00000000000E+00 0. -1.
       22    1    1    2    0    0  0.98492441348E-02 -0.13975371394E-01 -0.29703560783E-01  0.34272731710E-01  0.00000000000E+00 0.  1.
       22    1    1    2    0    0  0.50291602533E-04  0.68031516375E-04 -0.78252551192E-03  0.78708557941E-03  0.00000000000E+00 0. -1.
</event>
<event>
 5   0  0.4146200E+04  0.9118800E+02  0.7546771E-02  0.1180000E+00
      -11   -1    0    0    0    0  0.00000000000E+00  0.00000000000E+00  0.34996269501E-01  0.35000000000E-01  0.51099999109E-03 0.  1.
       11   -1    0    0    0    0 -0.00000000000E+00 -0.00000000000E+00 -0.34996269501E-01  0.35000000000E-01  0.51099999109E-03 0. -1.
       22    1    1    2    0    0  0.33258421935E-03  0.28691968664E-02 -0.32691872732E-01  0.32819223721E-01  0.00000000000E+00 0. -1.
       22    1    1    2    0    0  0.27321423330E-03  0.10808481169E-02 -0.19837955697E-02  0.22755930066E-02  0.00000000000E+00 0. -1.
       22    1    1    2    0    0 -0.60579845265E-03 -0.39500449833E-02  0.34675668302E-01  0.34905183273E-01  0.00000000000E+00 0.  1.
</event>
<event>
 5   0  0.4146200E+04  0.9118800E+02  0.7546771E-02  0.1180000E+00
      -11   -1    0    0    0    0  0.00000000000E+00  0.00000000000E+00  0.34996269501E-01  0.35000000000E-01  0.51099999109E-03 0.  1.
       11   -1    0    0    0    0 -0.00000000000E+00 -0.00000000000E+00 -0.34996269501E-01  0.35000000000E-01  0.51099999109E-03 0. -1.
       22    1    1    2    0    0 -0.19206909358E-02 -0.15012419124E-01 -0.14596042881E-01  0.21026322775E-01  0.00000000000E+00 0. -1.
       22    1    1    2    0    0  0.72137598426E-02  0.10070761807E-01  0.29723908814E-01  0.32202008162E-01  0.00000000000E+00 0.  1.
       22    1    1    2    0    0 -0.52930689068E-02  0.49416573171E-02 -0.15127865933E-01  0.16771669063E-01  0.00000000000E+00 0. -1.
</event>
<event>
 5   0  0.4146200E+04  0.9118800E+02  0.7546771E-02  0.1180000E+00
      -11   -1    0    0    0    0  0.00000000000E+00  0.00000000000E+00  0.34996269501E-01  0.35000000000E-01  0.51099999109E-03 0.  1.
       11   -1    0    0    0    0 -0.00000000000E+00 -0.00000000000E+00 -0.34996269501E-01  0.35000000000E-01  0.51099999109E-03 0. -1.
       22    1    1    2    0    0  0.24478175951E-01 -0.24829304111E-01 -0.17389662546E-02  0.34909876026E-01  0.00000000000E+00 0.  1.
       22    1    1    2    0    0 -0.24269390132E-01  0.24711618908E-01  0.20507441170E-02  0.34696872451E-01  0.00000000000E+00 0. -1.
       22    1    1    2    0    0 -0.20878581869E-03  0.11768520242E-03 -0.31177786245E-03  0.39325152316E-03  0.00000000000E+00 0.  1.
</event>
<event>
 5   0  0.4146200E+04  0.9118800E+02  0.7546771E-02  0.1180000E+00
      -11   -1    0    0    0    0  0.00000000000E+00  0.00000000000E+00  0.34996269501E-01  0.35000000000E-01  0.51099999109E-03 0.  1.
       11   -1    0    0    0    0 -0.00000000000E+00 -0.00000000000E+00 -0.34996269501E-01  0.35000000000E-01  0.51099999109E-03 0. -1.
       22    1    1    2    0    0  0.13791048276E-01  0.22293636802E-02  0.31434557172E-01  0.34399047364E-01  0.00000000000E+00 0.  1.
       22    1    1    2    0    0  0.18032500011E-04  0.44273937325E-05  0.62352455913E-03  0.62380096883E-03  0.00000000000E+00 0.  1.
       22    1    1    2    0    0 -0.13809080776E-01 -0.22337910740E-02 -0.32058081731E-01  0.34977151667E-01  0.00000000000E+00 0. -1.
</event>
<event>
 5   0  0.4146200E+04  0.9118800E+02  0.7546771E-02  0.1180000E+00
      -11   -1    0    0    0    0  0.00000000000E+00  0.00000000000E+00  0.34996269501E-01  0.35000000000E-01  0.51099999109E-03 0. -1.
       11   -1    0    0    0    0 -0.00000000000E+00 -0.00000000000E+00 -0.34996269501E-01  0.35000000000E-01  0.51099999109E-03 0.  1.
       22    1    1    2    0    0 -0.38221807591E-03 -0.94821532052E-03  0.34865572928E-01  0.34880558748E-01  0.00000000000E+00 0. -1.
       22    1    1    2    0    0  0.43672089704E-03  0.15895711960E-02 -0.34004232517E-01  0.34044166766E-01  0.00000000000E+00 0.  1.
       22    1    1    2    0    0 -0.54502821126E-04 -0.64135587546E-03 -0.86134041082E-03  0.10752744858E-02  0.00000000000E+00 0. -1.
</event>
<event>
 5   0  0.4146200E+04  0.9118800E+02  0.7546771E-02  0.1180000E+00
      -11   -1    0    0    0    0  0.00000000000E+00  0.00000000000E+00  0.34996269501E-01  0.35000000000E-01  0.51099999109E-03 0. -1.
       11   -1    0    0    0    0 -0.00000000000E+00 -0.00000000000E+00 -0.34996269501E-01  0.35000000000E-01  0.51099999109E-03 0.  1.
       22    1    1    2    0    0 -0.12603604715E-02 -0.98277553763E-02 -0.27212908386E-01  0.28960588169E-01  0.00000000000E+00 0.  1.
       22    1    1    2    0    0  0.14819376616E-02  0.10219908160E-01  0.33336460728E-01  0.34899316267E-01  0.00000000000E+00 0. -1.
       22    1    1    2    0    0 -0.22157719002E-03 -0.39215278361E-03 -0.61235523417E-02  0.61400955642E-02  0.00000000000E+00 0.  1.
</event>
<event>
 5   0  0.4146200E+04  0.9118800E+02  0.7546771E-02  0.1180000E+00
      -11   -1    0    0    0    0  0.00000000000E+00  0.00000000000E+00  0.34996269501E-01  0.35000000000E-01  0.51099999109E-03 0.  1.
       11   -1    0    0    0    0 -0.00000000000E+00 -0.00000000000E+00 -0.34996269501E-01  0.35000000000E-01  0.51099999109E-03 0. -1.
       22    1    1    2    0    0  0.10264710982E-01 -0.15651853640E-02  0.32771872557E-01  0.34377459587E-01  0.00000000000E+00 0.  1.
       22    1    1    2    0    0 -0.10196787866E-01  0.23023163840E-03 -0.17224139771E-01  0.20017454389E-01  0.00000000000E+00 0. -1.
       22    1    1    2    0    0 -0.67923115843E-04  0.13349537256E-02 -0.15547732787E-01  0.15605086023E-01  0.00000000000E+00 0. -1.
</event>
<event>
 5   0  0.4146200E+04  0.9118800E+02  0.7546771E-02  0.1180000E+00
      -11   -1    0    0    0    0  0.00000000000E+00  0.00000000000E+00  0.34996269501E-01  0.35000000000E-01  0.51099999109E-03 0. -1.
       11   -1    0    0    0    0 -0.00000000000E+00 -0.00000000000E+00 -0.34996269501E-01  0.35000000000E-01  0.51099999109E-03 0.  1.
       22    1    1    2    0    0 -0.14140574191E-01 -0.11525430843E-01 -0.29844915142E-01  0.34978712875E-01  0.00000000000E+00 0.  1.
       22    1    1    2    0    0  0.76381283836E-03  0.65891186048E-03  0.25321128640E-02  0.27256504632E-02  0.00000000000E+00 0.  1.
       22    1    1    2    0    0  0.13376761353E-01  0.10866518982E-01  0.27312802278E-01  0.32295636661E-01  0.00000000000E+00 0. -1.
</event>
<event>
 5   0  0.4146200E+04  0.9118800E+02  0.7546771E-02  0.1180000E+00
      -11   -1    0    0    0    0  0.00000000000E+00  0.00000000000E+00  0.34996269501E-01  0.35000000000E-01  0.51099999109E-03 0.  1.
       11   -1    0    0    0    0 -0.00000000000E+00 -0.00000000000E+00 -0.34996269501E-01  0.35000000000E-01  0.51099999109E-03 0. -1.
       22    1    1    2    0    0  0.57020704476E-03  0.18706754084E-03 -0.13216575511E-02  0.14515195558E-02  0.00000000000E+00 0.  1.
       22    1    1    2    0    0  0.76937028132E-02 -0.19786409303E-03 -0.32671241438E-01  0.33565491658E-01  0.00000000000E+00 0. -1.
       22    1    1    2    0    0 -0.82639098580E-02  0.10796552190E-04  0.33992898989E-01  0.34982988786E-01  0.00000000000E+00 0.  1.
</event>
<event>
 5   0  0.4146200E+04  0.9118800E+02  0.7546771E-02  0.1180000E+00
      -11   -1    0    0    0    0  0.00000000000E+00  0.00000000000E+00  0.34996269501E-01  0.35000000000E-01  0.51099999109E-03 0. -1.
       11   -1    0    0    0    0 -0.00000000000E+00 -0.00000000000E+00 -0.34996269501E-01  0.35000000000E-01  0.51099999109E-03 0. -1.
       22    1    1    2    0    0  0.51481441981E-02 -0.72910733484E-03 -0.13551566242E-01  0.14514817732E-01  0.00000000000E+00 0. -1.
       22    1    1    2    0    0 -0.23518072682E-03 -0.20926187821E-03  0.34219338153E-01  0.34220786141E-01  0.00000000000E+00 0. -1.
       22    1    1    2    0    0 -0.49129634713E-02  0.93836921305E-03 -0.20667771911E-01  0.21264396127E-01  0.00000000000E+00 0.  1.
</event>
<event>
 5   0  0.4146200E+04  0.9118800E+02  0.7546771E-02  0.1180000E+00
      -11   -1    0    0    0    0  0.00000000000E+00  0.00000000000E+00  0.34996269501E-01  0.35000000000E-01  0.51099999109E-03 0.  1.
       11   -1    0    0    0    0 -0.00000000000E+00 -0.00000000000E+00 -0.34996269501E-01  0.35000000000E-01  0.51099999109E-03 0. -1.
       22    1    1    2    0    0  0.19618665124E-01 -0.19041916058E-02  0.80962197387E-02  0.21308841850E-01  0.00000000000E+00 0.  1.
       22    1    1    2    0    0 -0.19880837295E-01  0.11129902979E-02 -0.24891109418E-01  0.31875598300E-01  0.00000000000E+00 0. -1.
       22    1    1    2    0    0  0.26217217121E-03  0.79120130794E-03  0.16794889679E-01  0.16815559850E-01  0.00000000000E+00 0.  1.
</event>
<event>
 5   0  0.4146200E+04  0.9118800E+02  0.7546771E-02  0.1180000E+00
      -11   -1    0    0    0    0  0.00000000000E+00  0.00000000000E+00  0.34996269501E-01  0.35000000000E-01  0.51099999109E-03 0.  1.
       11   -1    0    0    0    0 -0.00000000000E+00 -0.00000000000E+00 -0.34996269501E-01  0.35000000000E-01  0.51099999109E-03 0. -1.
       22    1    1    2    0    0 -0.12246282654E-03  0.22810211641E-02  0.21815094600E-01  0.21934365892E-01  0.00000000000E+00 0.  1.
       22    1    1    2    0    0  0.12286845483E-01 -0.14187749963E-01 -0.24469030548E-01  0.30838162670E-01  0.00000000000E+00 0.  1.
       22    1    1    2    0    0 -0.12164382656E-01  0.11906728799E-01  0.26539359476E-02  0.17227471437E-01  0.00000000000E+00 0. -1.
</event>
<event>
 5   0  0.4146200E+04  0.9118800E+02  0.7546771E-02  0.1180000E+00
      -11   -1    0    0    0    0  0.00000000000E+00  0.00000000000E+00  0.34996269501E-01  0.35000000000E-01  0.51099999109E-03 0.  1.
       11   -1    0    0    0    0 -0.00000000000E+00 -0.00000000000E+00 -0.34996269501E-01  0.35000000000E-01  0.51099999109E-03 0. -1.
       22    1    1    2    0    0 -0.63955502924E-04 -0.17391784835E-02 -0.15738277868E-01  0.15834210506E-01  0.00000000000E+00 0. -1.
       22    1    1    2    0    0 -0.51472987912E-02 -0.11357175424E-01  0.30986301372E-01  0.33401062725E-01  0.00000000000E+00 0.  1.
       22    1    1    2    0    0  0.52112542941E-02  0.13096353907E-01 -0.15248023505E-01  0.20764726769E-01  0.00000000000E+00 0. -1.
</event>
<event>
 5   0  0.4146200E+04  0.9118800E+02  0.7546771E-02  0.1180000E+00
      -11   -1    0    0    0    0  0.00000000000E+00  0.00000000000E+00  0.34996269501E-01  0.35000000000E-01  0.51099999109E-03 0. -1.
       11   -1    0    0    0    0 -0.00000000000E+00 -0.00000000000E+00 -0.34996269501E-01  0.35000000000E-01  0.51099999109E-03 0.  1.
       22    1    1    2    0    0 -0.59011789751E-03  0.41150211947E-03 -0.34586645169E-01  0.34594126628E-01  0.00000000000E+00 0.  1.
       22    1    1    2    0    0  0.39259646412E-03 -0.16523671084E-03  0.34933941108E-01  0.34936537844E-01  0.00000000000E+00 0. -1.
       22    1    1    2    0    0  0.19752143338E-03 -0.24626540863E-03 -0.34729593936E-03  0.46933552777E-03  0.00000000000E+00 0.  1.
</event>
<event>
 5   0  0.4146200E+04  0.9118800E+02  0.7546771E-02  0.1180000E+00
      -11   -1    0    0    0    0  0.00000000000E+00  0.00000000000E+00  0.34996269501E-01  0.35000000000E-01  0.51099999109E-03 0. -1.
       11   -1    0    0    0    0 -0.00000000000E+00 -0.00000000000E+00 -0.34996269501E-01  0.35000000000E-01  0.51099999109E-03 0.  1.
       22    1    1    2    0    0  0.12582793204E-02 -0.15011777686E-02  0.55992322386E-03  0.20372323278E-02  0.00000000000E+00 0.  1.
       22    1    1    2    0    0  0.23063361606E-01  0.52541918918E-02 -0.24198573794E-01  0.33839269417E-01  0.00000000000E+00 0.  1.
       22    1    1    2    0    0 -0.24321640927E-01 -0.37530141233E-02  0.23638650570E-01  0.34123498255E-01  0.00000000000E+00 0. -1.
</event>
<event>
 5   0  0.4146200E+04  0.9118800E+02  0.7546771E-02  0.1180000E+00
      -11   -1    0    0    0    0  0.00000000000E+00  0.00000000000E+00  0.34996269501E-01  0.35000000000E-01  0.51099999109E-03 0.  1.
       11   -1    0    0    0    0 -0.00000000000E+00 -0.00000000000E+00 -0.34996269501E-01  0.35000000000E-01  0.51099999109E-03 0. -1.
       22    1    1    2    0    0 -0.38183233071E-02  0.14043367568E-02 -0.76985511394E-02  0.87074361468E-02  0.00000000000E+00 0. -1.
       22    1    1    2    0    0  0.28475895629E-01  0.12742975249E-01 -0.19862613130E-02  0.31260282854E-01  0.00000000000E+00 0. -1.
       22    1    1    2    0    0 -0.24657572322E-01 -0.14147312006E-01  0.96848124524E-02  0.30032281000E-01  0.00000000000E+00 0.  1.
</event>
<event>
 5   0  0.4146200E+04  0.9118800E+02  0.7546771E-02  0.1180000E+00
      -11   -1    0    0    0    0  0.00000000000E+00  0.00000000000E+00  0.34996269501E-01  0.35000000000E-01  0.51099999109E-03 0. -1.
       11   -1    0    0    0    0 -0.00000000000E+00 -0.00000000000E+00 -0.34996269501E-01  0.35000000000E-01  0.51099999109E-03 0.  1.
       22    1    1    2    0    0 -0.16705108859E-02 -0.86886267386E-02 -0.32764427403E-01  0.33938039783E-01  0.00000000000E+00 0.  1.
       22    1    1    2    0    0  0.99643867739E-03  0.91408747027E-02  0.33636449247E-01  0.34870606509E-01  0.00000000000E+00 0. -1.
       22    1    1    2    0    0  0.67407220854E-03 -0.45224796407E-03 -0.87202184323E-03  0.11913537084E-02  0.00000000000E+00 0. -1.
</event>
<event>
 5   0  0.4146200E+04  0.9118800E+02  0.7546771E-02  0.1180000E+00
      -11   -1    0    0    0    0  0.00000000000E+00  0.00000000000E+00  0.34996269501E-01  0.35000000000E-01  0.51099999109E-03 0.  1.
       11   -1    0    0    0    0 -0.00000000000E+00 -0.00000000000E+00 -0.34996269501E-01  0.35000000000E-01  0.51099999109E-03 0. -1.
       22    1    1    2    0    0  0.15179802063E-01  0.85004888156E-02 -0.30196923140E-01  0.34850234833E-01  0.00000000000E+00 0. -1.
       22    1    1    2    0    0 -0.15299333218E-01 -0.82945953924E-02  0.28193248786E-01  0.33131996419E-01  0.00000000000E+00 0.  1.
       22    1    1    2    0    0  0.11953115534E-03 -0.20589342328E-03  0.20036743549E-02  0.20177687477E-02  0.00000000000E+00 0. -1.
</event>
<event>
 5   0  0.4146200E+04  0.9118800E+02  0.7546771E-02  0.1180000E+00
      -11   -1    0    0    0    0  0.00000000000E+00  0.00000000000E+00  0.34996269501E-01  0.35000000000E-01  0.51099999109E-03 0.  1.
       11   -1    0    0    0    0 -0.00000000000E+00 -0.00000000000E+00 -0.34996269501E-01  0.35000000000E-01  0.51099999109E-03 0. -1.
       22    1    1    2    0    0 -0.13887771034E-01  0.11863444579E-01 -0.29753110761E-01  0.34912162659E-01  0.00000000000E+00 0. -1.
       22    1    1    2    0    0  0.19072702815E-04 -0.26250202118E-05  0.12070432982E-02  0.12071968284E-02  0.00000000000E+00 0.  1.
       22    1    1    2    0    0  0.13868698331E-01 -0.11860819559E-01  0.28546067462E-01  0.33880640513E-01  0.00000000000E+00 0.  1.
</event>
<event>
 5   0  0.4146200E+04  0.9118800E+02  0.7546771E-02  0.1180000E+00
      -11   -1    0    0    0    0  0.00000000000E+00  0.00000000000E+00  0.34996269501E-01  0.35000000000E-01  0.51099999109E-03 0. -1.
       11   -1    0    0    0    0 -0.00000000000E+00 -0.00000000000E+00 -0.34996269501E-01  0.35000000000E-01  0.51099999109E-03 0.  1.
       22    1    1    2    0    0  0.45552052574E-02  0.82359770225E-02  0.32789257821E-01  0.34113291264E-01  0.00000000000E+00 0. -1.
       22    1    1    2    0    0  0.24110301632E-02  0.12584177218E-02 -0.47225984299E-02  0.54497355478E-02  0.00000000000E+00 0. -1.
       22    1    1    2    0    0 -0.69662354207E-02 -0.94943947443E-02 -0.28066659391E-01  0.30436973188E-01  0.00000000000E+00 0.  1.
</event>
<event>
 5   0  0.4146200E+04  0.9118800E+02  0.7546771E-02  0.1180000E+00
      -11   -1    0    0    0    0  0.00000000000E+00  0.00000000000E+00  0.34996269501E-01  0.35000000000E-01  0.51099999109E-03 0. -1.
       11   -1    0    0    0    0 -0.00000000000E+00 -0.00000000000E+00 -0.34996269501E-01  0.35000000000E-01  0.51099999109E-03 0.  1.
       22    1    1    2    0    0 -0.26351415607E-03  0.37046437470E-03  0.13791985874E-02  0.14521956847E-02  0.00000000000E+00 0.  1.
       22    1    1    2    0    0  0.83128483825E-02 -0.99920199083E-02  0.31112575140E-01  0.33718485167E-01  0.00000000000E+00 0. -1.
       22    1    1    2    0    0 -0.80493342264E-02  0.96215555336E-02 -0.32491773728E-01  0.34829319148E-01  0.00000000000E+00 0.  1.
</event>
<event>
 5   0  0.4146200E+04  0.9118800E+02  0.7546771E-02  0.1180000E+00
      -11   -1    0    0    0    0  0.00000000000E+00  0.00000000000E+00  0.34996269501E-01  0.35000000000E-01  0.51099999109E-03 0. -1.
       11   -1    0    0    0    0 -0.00000000000E+00 -0.00000000000E+00 -0.34996269501E-01  0.35000000000E-01  0.51099999109E-03 0.  1.
       22    1    1    2    0    0 -0.91573389164E-04  0.15814892937E-05 -0.47196957993E-03  0.48077382529E-03  0.00000000000E+00 0.  1.
       22    1    1    2    0    0  0.22888828364E-01 -0.29858498913E-02  0.26264826101E-01  0.34966481858E-01  0.00000000000E+00 0. -1.
       22    1    1    2    0    0 -0.22797254975E-01  0.29842684020E-02 -0.25792856521E-01  0.34552744316E-01  0.00000000000E+00 0.  1.
</event>
<event>
 5   0  0.4146200E+04  0.9118800E+02  0.7546771E-02  0.1180000E+00
      -11   -1    0    0    0    0  0.00000000000E+00  0.00000000000E+00  0.34996269501E-01  0.35000000000E-01  0.51099999109E-03 0.  1.
       11   -1    0    0    0    0 -0.00000000000E+00 -0.00000000000E+00 -0.34996269501E-01  0.35000000000E-01  0.51099999109E-03 0. -1.
       22    1    1    2    0    0  0.73142914798E-03  0.14511957271E-03 -0.33641779496E-01  0.33650042733E-01  0.00000000000E+00 0. -1.
       22    1    1    2    0    0 -0.73142914798E-03 -0.14511957271E-03 -0.12527130267E-02  0.14578539763E-02  0.00000000000E+00 0.  1.
       22    1    1    2    0    0 -0.00000000000E+00  0.00000000000E+00  0.34894492522E-01  0.34892103291E-01  0.00000000000E+00 0.  1.
</event>
<event>
 5   0  0.4146200E+04  0.9118800E+02  0.7546771E-02  0.1180000E+00
      -11   -1    0    0    0    0  0.00000000000E+00  0.00000000000E+00  0.34996269501E-01  0.35000000000E-01  0.51099999109E-03 0.  1.
       11   -1    0    0    0    0 -0.00000000000E+00 -0.00000000000E+00 -0.34996269501E-01  0.35000000000E-01  0.51099999109E-03 0. -1.
       22    1    1    2    0    0  0.13646730981E-02  0.20625528884E-02  0.13383621893E-01  0.13610209111E-01  0.00000000000E+00 0. -1.
       22    1    1    2    0    0  0.58086024922E-02 -0.16273076232E-01  0.15628108606E-01  0.23297867962E-01  0.00000000000E+00 0.  1.
       22    1    1    2    0    0 -0.71732755904E-02  0.14210523344E-01 -0.29011730499E-01  0.33091922926E-01  0.00000000000E+00 0. -1.
</event>
<event>
 5   0  0.4146200E+04  0.9118800E+02  0.7546771E-02  0.1180000E+00
      -11   -1    0    0    0    0  0.00000000000E+00  0.00000000000E+00  0.34996269501E-01  0.35000000000E-01  0.51099999109E-03 0.  1.
       11   -1    0    0    0    0 -0.00000000000E+00 -0.00000000000E+00 -0.34996269501E-01  0.35000000000E-01  0.51099999109E-03 0. -1.
       22    1    1    2    0    0  0.17371387388E-01  0.11474339801E-01  0.54538810486E-02  0.21521393824E-01  0.00000000000E+00 0.  1.
       22    1    1    2    0    0 -0.16249266985E-01 -0.10549982992E-01 -0.23453420656E-01  0.30420449687E-01  0.00000000000E+00 0. -1.
       22    1    1    2    0    0 -0.11221204023E-02 -0.92435680896E-03  0.17999539607E-01  0.18058156489E-01  0.00000000000E+00 0. -1.
</event>
<event>
 5   0  0.4146200E+04  0.9118800E+02  0.7546771E-02  0.1180000E+00
      -11   -1    0    0    0    0  0.00000000000E+00  0.00000000000E+00  0.34996269501E-01  0.35000000000E-01  0.51099999109E-03 0.  1.
       11   -1    0    0    0    0 -0.00000000000E+00 -0.00000000000E+00 -0.34996269501E-01  0.35000000000E-01  0.51099999109E-03 0. -1.
       22    1    1    2    0    0 -0.11734323689E-03 -0.13601216005E-03 -0.42256622054E-03  0.45916331917E-03  0.00000000000E+00 0.  1.
       22    1    1    2    0    0 -0.10732017685E-01  0.26179368114E-01  0.20477299483E-01  0.34926427138E-01  0.00000000000E+00 0.  1.
       22    1    1    2    0    0  0.10849360922E-01 -0.26043355954E-01 -0.20054733263E-01  0.34614409543E-01  0.00000000000E+00 0. -1.
</event>
<event>
 5   0  0.4146200E+04  0.9118800E+02  0.7546771E-02  0.1180000E+00
      -11   -1    0    0    0    0  0.00000000000E+00  0.00000000000E+00  0.34996269501E-01  0.35000000000E-01  0.51099999109E-03 0. -1.
       11   -1    0    0    0    0 -0.00000000000E+00 -0.00000000000E+00 -0.34996269501E-01  0.35000000000E-01  0.51099999109E-03 0.  1.
       22    1    1    2    0    0 -0.91594796714E-02  0.78890507456E-02 -0.22128252107E-01  0.25214930712E-01  0.00000000000E+00 0.  1.
       22    1    1    2    0    0  0.96985733725E-02 -0.86058910929E-02  0.32179661250E-01  0.34693721119E-01  0.00000000000E+00 0. -1.
       22    1    1    2    0    0 -0.53909370103E-03  0.71684034737E-03 -0.10051409143E-01  0.10091348168E-01  0.00000000000E+00 0.  1.
</event>
<event>
 5   0  0.4146200E+04  0.9118800E+02  0.7546771E-02  0.1180000E+00
      -11   -1    0    0    0    0  0.00000000000E+00  0.00000000000E+00  0.34996269501E-01  0.35000000000E-01  0.51099999109E-03 0. -1.
       11   -1    0    0    0    0 -0.00000000000E+00 -0.00000000000E+00 -0.34996269501E-01  0.35000000000E-01  0.51099999109E-03 0.  1.
       22    1    1    2    0    0  0.44798098916E-02  0.61655711505E-02  0.28640056110E-02  0.81415902880E-02  0.00000000000E+00 0.  1.
       22    1    1    2    0    0 -0.90222371027E-02  0.57431928565E-02  0.27187620370E-01  0.29215607608E-01  0.00000000000E+00 0. -1.
       22    1    1    2    0    0  0.45424272111E-02 -0.11908764007E-01 -0.30051625981E-01  0.32642802104E-01  0.00000000000E+00 0.  1.
</event>
<event>
 5   0  0.4146200E+04  0.9118800E+02  0.7546771E-02  0.1180000E+00
      -11   -1    0    0    0    0  0.00000000000E+00  0.00000000000E+00  0.34996269501E-01  0.35000000000E-01  0.51099999109E-03 0. -1.
       11   -1    0    0    0    0 -0.00000000000E+00 -0.00000000000E+00 -0.34996269501E-01  0.35000000000E-01  0.51099999109E-03 0.  1.
       22    1    1    2    0    0 -0.15672514796E-01  0.20730332841E-02 -0.27590633526E-01  0.31798871763E-01  0.00000000000E+00 0.  1.
       22    1    1    2    0    0  0.16815586148E-01 -0.29156407782E-02  0.30507626855E-01  0.34956833308E-01  0.00000000000E+00 0. -1.
       22    1    1    2    0    0 -0.11430713521E-02  0.84260749414E-03 -0.29169933283E-02  0.32442949284E-02  0.00000000000E+00 0.  1.
</event>
<event>
 5   0  0.4146200E+04  0.9118800E+02  0.7546771E-02  0.1180000E+00
      -11   -1    0    0    0    0  0.00000000000E+00  0.00000000000E+00  0.34996269501E-01  0.35000000000E-01  0.51099999109E-03 0. -1.
       11   -1    0    0    0    0 -0.00000000000E+00 -0.00000000000E+00 -0.34996269501E-01  0.35000000000E-01  0.51099999109E-03 0.  1.
       22    1    1    2    0    0  0.19685320482E-02 -0.17800785562E-02 -0.32357380522E-01  0.32466041833E-01  0.00000000000E+00 0.  1.
       22    1    1    2    0    0 -0.31979926528E-02  0.16273962765E-02  0.34699402269E-01  0.34884439131E-01  0.00000000000E+00 0. -1.
       22    1    1    2    0    0  0.12294606046E-02  0.15268227965E-03 -0.23420217472E-02  0.26495190359E-02  0.00000000000E+00 0.  1.
</event>
<event>
 5   0  0.4146200E+04  0.9118800E+02  0.7546771E-02  0.1180000E+00
      -11   -1    0    0    0    0  0.00000000000E+00  0.00000000000E+00  0.34996269501E-01  0.35000000000E-01  0.51099999109E-03 0.  1.
       11   -1    0    0    0    0 -0.00000000000E+00 -0.00000000000E+00 -0.34996269501E-01  0.35000000000E-01  0.51099999109E-03 0.  1.
       22    1    1    2    0    0  0.89757690220E-02  0.14984805797E-02 -0.33356663166E-01  0.34575668484E-01  0.00000000000E+00 0.  1.
       22    1    1    2    0    0 -0.20920858685E-03 -0.32284286006E-04 -0.43472299892E-03  0.48352310568E-03  0.00000000000E+00 0.  1.
       22    1    1    2    0    0 -0.87665604352E-02 -0.14661962937E-02  0.33791386165E-01  0.34940808410E-01  0.00000000000E+00 0.  1.
</event>
<event>
 5   0  0.4146200E+04  0.9118800E+02  0.7546771E-02  0.1180000E+00
      -11   -1    0    0    0    0  0.00000000000E+00  0.00000000000E+00  0.34996269501E-01  0.35000000000E-01  0.51099999109E-03 0.  1.
       11   -1    0    0    0    0 -0.00000000000E+00 -0.00000000000E+00 -0.34996269501E-01  0.35000000000E-01  0.51099999109E-03 0. -1.
       22    1    1    2    0    0  0.67594964995E-02  0.18172228354E-02 -0.14000662459E-01  0.15652847698E-01  0.00000000000E+00 0. -1.
       22    1    1    2    0    0 -0.59559415454E-02  0.17160379320E-03  0.33855981718E-01  0.34376302676E-01  0.00000000000E+00 0.  1.
       22    1    1    2    0    0 -0.80355495417E-03 -0.19888266286E-02 -0.19855319259E-01  0.19970849626E-01  0.00000000000E+00 0. -1.
</event>
<event>
 5   0  0.4146200E+04  0.9118800E+02  0.7546771E-02  0.1180000E+00
      -11   -1    0    0    0    0  0.00000000000E+00  0.00000000000E+00  0.34996269501E-01  0.35000000000E-01  0.51099999109E-03 0.  1.
       11   -1    0    0    0    0 -0.00000000000E+00 -0.00000000000E+00 -0.34996269501E-01  0.35000000000E-01  0.51099999109E-03 0. -1.
       22    1    1    2    0    0 -0.41606859792E-02 -0.50425871954E-02 -0.32035469975E-01  0.32695723420E-01  0.00000000000E+00 0. -1.
       22    1    1    2    0    0 -0.21375167278E-03 -0.14898186682E-02 -0.19262176433E-02  0.24444966457E-02  0.00000000000E+00 0. -1.
       22    1    1    2    0    0  0.43744376520E-02  0.65324058635E-02  0.33961687619E-01  0.34859779934E-01  0.00000000000E+00 0.  1.
</event>
<event>
 5   0  0.4146200E+04  0.9118800E+02  0.7546771E-02  0.1180000E+00
      -11   -1    0    0    0    0  0.00000000000E+00  0.00000000000E+00  0.34996269501E-01  0.35000000000E-01  0.51099999109E-03 0.  1.
       11   -1    0    0    0    0 -0.00000000000E+00 -0.00000000000E+00 -0.34996269501E-01  0.35000000000E-01  0.51099999109E-03 0. -1.
       22    1    1    2    0    0 -0.15954429987E-02 -0.53801877640E-03 -0.23988283420E-01  0.24047300139E-01  0.00000000000E+00 0. -1.
       22    1    1    2    0    0  0.41897797601E-02 -0.20419510338E-02  0.34504655723E-01  0.34818028161E-01  0.00000000000E+00 0.  1.
       22    1    1    2    0    0 -0.25943367614E-02  0.25799698102E-02 -0.10516372303E-01  0.11134671700E-01  0.00000000000E+00 0. -1.
</event>
<event>
 5   0  0.4146200E+04  0.9118800E+02  0.7546771E-02  0.1180000E+00
      -11   -1    0    0    0    0  0.00000000000E+00  0.00000000000E+00  0.34996269501E-01  0.35000000000E-01  0.51099999109E-03 0. -1.
       11   -1    0    0    0    0 -0.00000000000E+00 -0.00000000000E+00 -0.34996269501E-01  0.35000000000E-01  0.51099999109E-03 0.  1.
       22    1    1    2    0    0 -0.18513668536E-02  0.22988336046E-02  0.26335910131E-01  0.26500799188E-01  0.00000000000E+00 0. -1.
       22    1    1    2    0    0  0.11592081032E-01 -0.57827061535E-02 -0.29877293668E-01  0.32564838554E-01  0.00000000000E+00 0.  1.
       22    1    1    2    0    0 -0.97407141783E-02  0.34838725489E-02  0.35413835375E-02  0.10934362259E-01  0.00000000000E+00 0. -1.
</event>
<event>
 5   0  0.4146200E+04  0.9118800E+02  0.7546771E-02  0.1180000E+00
      -11   -1    0    0    0    0  0.00000000000E+00  0.00000000000E+00  0.34996269501E-01  0.35000000000E-01  0.51099999109E-03 0. -1.
       11   -1    0    0    0    0 -0.00000000000E+00 -0.00000000000E+00 -0.34996269501E-01  0.35000000000E-01  0.51099999109E-03 0.  1.
       22    1    1    2    0    0  0.14467220698E-01 -0.30216838885E-02 -0.31228070794E-01  0.34548856041E-01  0.00000000000E+00 0.  1.
       22    1    1    2    0    0 -0.34494249531E-03 -0.89718584784E-04  0.85330185976E-02  0.85404590706E-02  0.00000000000E+00 0.  1.
       22    1    1    2    0    0 -0.14122278203E-01  0.31114024733E-02  0.22695052196E-01  0.26910684888E-01  0.00000000000E+00 0. -1.
</event>
<event>
 5   0  0.4146200E+04  0.9118800E+02  0.7546771E-02  0.1180000E+00
      -11   -1    0    0    0    0  0.00000000000E+00  0.00000000000E+00  0.34996269501E-01  0.35000000000E-01  0.51099999109E-03 0. -1.
       11   -1    0    0    0    0 -0.00000000000E+00 -0.00000000000E+00 -0.34996269501E-01  0.35000000000E-01  0.51099999109E-03 0.  1.
       22    1    1    2    0    0 -0.32931434612E-02 -0.98313815683E-03 -0.34390536619E-01  0.34561833913E-01  0.00000000000E+00 0.  1.
       22    1    1    2    0    0  0.30573852322E-02  0.89017559231E-03  0.34806080617E-01  0.34951441529E-01  0.00000000000E+00 0. -1.
       22    1    1    2    0    0  0.23575822900E-03  0.92962564527E-04 -0.41554399762E-03  0.48672455753E-03  0.00000000000E+00 0.  1.
</event>
<event>
 5   0  0.4146200E+04  0.9118800E+02  0.7546771E-02  0.1180000E+00
      -11   -1    0    0    0    0  0.00000000000E+00  0.00000000000E+00  0.34996269501E-01  0.35000000000E-01  0.51099999109E-03 0.  1.
       11   -1    0    0    0    0 -0.00000000000E+00 -0.00000000000E+00 -0.34996269501E-01  0.35000000000E-01  0.51099999109E-03 0. -1.
       22    1    1    2    0    0  0.12089012764E-02 -0.19866807226E-02  0.34817254429E-01  0.34894835558E-01  0.00000000000E+00 0.  1.
       22    1    1    2    0    0  0.72250965693E-03 -0.28762334674E-03 -0.19004039003E-02  0.20533588041E-02  0.00000000000E+00 0. -1.
       22    1    1    2    0    0 -0.19314109333E-02  0.22743040693E-02 -0.32916850529E-01  0.33051805638E-01  0.00000000000E+00 0. -1.
</event>
<event>
 5   0  0.4146200E+04  0.9118800E+02  0.7546771E-02  0.1180000E+00
      -11   -1    0    0    0    0  0.00000000000E+00  0.00000000000E+00  0.34996269501E-01  0.35000000000E-01  0.51099999109E-03 0.  1.
       11   -1    0    0    0    0 -0.00000000000E+00 -0.00000000000E+00 -0.34996269501E-01  0.35000000000E-01  0.51099999109E-03 0. -1.
       22    1    1    2    0    0 -0.69923126629E-03 -0.62104507651E-03  0.21778869091E-03  0.96023604635E-03  0.00000000000E+00 0.  1.
       22    1    1    2    0    0  0.69501299446E-02 -0.10138016590E-01  0.32119502608E-01  0.34391076377E-01  0.00000000000E+00 0.  1.
       22    1    1    2    0    0 -0.62508986783E-02  0.10759061666E-01 -0.32337291299E-01  0.34648687576E-01  0.00000000000E+00 0. -1.
</event>
<event>
 5   0  0.4146200E+04  0.9118800E+02  0.7546771E-02  0.1180000E+00
      -11   -1    0    0    0    0  0.00000000000E+00  0.00000000000E+00  0.34996269501E-01  0.35000000000E-01  0.51099999109E-03 0. -1.
       11   -1    0    0    0    0 -0.00000000000E+00 -0.00000000000E+00 -0.34996269501E-01  0.35000000000E-01  0.51099999109E-03 0.  1.
       22    1    1    2    0    0  0.21644369496E-03 -0.18939202686E-03  0.21667986840E-02  0.21858027701E-02  0.00000000000E+00 0. -1.
       22    1    1    2    0    0 -0.64261031270E-02 -0.15922774155E-01  0.28121723096E-01  0.32949367947E-01  0.00000000000E+00 0. -1.
       22    1    1    2    0    0  0.62096594320E-02  0.16112166181E-01 -0.30288521780E-01  0.34864829283E-01  0.00000000000E+00 0.  1.
</event>
<event>
 5   0  0.4146200E+04  0.9118800E+02  0.7546771E-02  0.1180000E+00
      -11   -1    0    0    0    0  0.00000000000E+00  0.00000000000E+00  0.34996269501E-01  0.35000000000E-01  0.51099999109E-03 0.  1.
       11   -1    0    0    0    0 -0.00000000000E+00 -0.00000000000E+00 -0.34996269501E-01  0.35000000000E-01  0.51099999109E-03 0. -1.
       22    1    1    2    0    0 -0.97405206177E-02  0.66596324974E-02  0.13512698373E-01  0.17939383050E-01  0.00000000000E+00 0.  1.
       22    1    1    2    0    0 -0.36408560948E-03  0.86073766655E-02  0.15512234876E-01  0.17743982705E-01  0.00000000000E+00 0.  1.
       22    1    1    2    0    0  0.10104606227E-01 -0.15267009163E-01 -0.29024933249E-01  0.34316634245E-01  0.00000000000E+00 0. -1.
</event>
<event>
 5   0  0.4146200E+04  0.9118800E+02  0.7546771E-02  0.1180000E+00
      -11   -1    0    0    0    0  0.00000000000E+00  0.00000000000E+00  0.34996269501E-01  0.35000000000E-01  0.51099999109E-03 0.  1.
       11   -1    0    0    0    0 -0.00000000000E+00 -0.00000000000E+00 -0.34996269501E-01  0.35000000000E-01  0.51099999109E-03 0. -1.
       22    1    1    2    0    0 -0.56953958426E-03 -0.16764933716E-02 -0.10643814240E-01  0.10790078171E-01  0.00000000000E+00 0. -1.
       22    1    1    2    0    0 -0.74242124436E-02  0.53023460199E-02  0.33503230603E-01  0.34723194907E-01  0.00000000000E+00 0.  1.
       22    1    1    2    0    0  0.79937520278E-02 -0.36258526482E-02 -0.22859416363E-01  0.24486726922E-01  0.00000000000E+00 0. -1.
</event>
<event>
 5   0  0.4146200E+04  0.9118800E+02  0.7546771E-02  0.1180000E+00
      -11   -1    0    0    0    0  0.00000000000E+00  0.00000000000E+00  0.34996269501E-01  0.35000000000E-01  0.51099999109E-03 0. -1.
       11   -1    0    0    0    0 -0.00000000000E+00 -0.00000000000E+00 -0.34996269501E-01  0.35000000000E-01  0.51099999109E-03 0.  1.
       22    1    1    2    0    0  0.97507985356E-05  0.13044876637E-03  0.34192016929E-03  0.36608927994E-03  0.00000000000E+00 0.  1.
       22    1    1    2    0    0  0.79171349602E-02 -0.10449442876E-01  0.32103120379E-01  0.34676825409E-01  0.00000000000E+00 0. -1.
       22    1    1    2    0    0 -0.79268857587E-02  0.10318994109E-01 -0.32445040548E-01  0.34957085311E-01  0.00000000000E+00 0.  1.
</event>
<event>
 5   0  0.4146200E+04  0.9118800E+02  0.7546771E-02  0.1180000E+00
      -11   -1    0    0    0    0  0.00000000000E+00  0.00000000000E+00  0.34996269501E-01  0.35000000000E-01  0.51099999109E-03 0. -1.
       11   -1    0    0    0    0 -0.00000000000E+00 -0.00000000000E+00 -0.34996269501E-01  0.35000000000E-01  0.51099999109E-03 0.  1.
       22    1    1    2    0    0  0.48858315885E-02  0.11314005050E-01  0.32295070003E-01  0.34566596695E-01  0.00000000000E+00 0. -1.
       22    1    1    2    0    0 -0.53114050407E-02 -0.11849493882E-01 -0.25615498071E-01  0.28718900922E-01  0.00000000000E+00 0.  1.
       22    1    1    2    0    0  0.42557345216E-03  0.53548883224E-03 -0.66795719321E-02  0.67145023828E-02  0.00000000000E+00 0. -1.
</event>
<event>
 5   0  0.4146200E+04  0.9118800E+02  0.7546771E-02  0.1180000E+00
      -11   -1    0    0    0    0  0.00000000000E+00  0.00000000000E+00  0.34996269501E-01  0.35000000000E-01  0.51099999109E-03 0. -1.
       11   -1    0    0    0    0 -0.00000000000E+00 -0.00000000000E+00 -0.34996269501E-01  0.35000000000E-01  0.51099999109E-03 0.  1.
       22    1    1    2    0    0  0.52120817799E-02  0.92047461539E-02 -0.27659253767E-01  0.29612961135E-01  0.00000000000E+00 0.  1.
       22    1    1    2    0    0 -0.70666923520E-02 -0.10893265992E-01  0.32465433835E-01  0.34965780112E-01  0.00000000000E+00 0. -1.
       22    1    1    2    0    0  0.18546105721E-02  0.16885198381E-02 -0.48061800683E-02  0.54212587529E-02  0.00000000000E+00 0.  1.
</event>
<event>
 5   0  0.4146200E+04  0.9118800E+02  0.7546771E-02  0.1180000E+00
      -11   -1    0    0    0    0  0.00000000000E+00  0.00000000000E+00  0.34996269501E-01  0.35000000000E-01  0.51099999109E-03 0. -1.
       11   -1    0    0    0    0 -0.00000000000E+00 -0.00000000000E+00 -0.34996269501E-01  0.35000000000E-01  0.51099999109E-03 0.  1.
       22    1    1    2    0    0 -0.15659259584E-01  0.38599710645E-03 -0.30932597418E-01  0.34672568228E-01  0.00000000000E+00 0.  1.
       22    1    1    2    0    0  0.15833575712E-01  0.21817317636E-04  0.31062586465E-01  0.34865267441E-01  0.00000000000E+00 0. -1.
       22    1    1    2    0    0 -0.17431612725E-03 -0.40781442409E-03 -0.12998904736E-03  0.46216433132E-03  0.00000000000E+00 0.  1.
</event>
<event>
 5   0  0.4146200E+04  0.9118800E+02  0.7546771E-02  0.1180000E+00
      -11   -1    0    0    0    0  0.00000000000E+00  0.00000000000E+00  0.34996269501E-01  0.35000000000E-01  0.51099999109E-03 0. -1.
       11   -1    0    0    0    0 -0.00000000000E+00 -0.00000000000E+00 -0.34996269501E-01  0.35000000000E-01  0.51099999109E-03 0. -1.
       22    1    1    2    0    0  0.20099920281E-02  0.62419790809E-02 -0.91563619784E-02  0.11262385870E-01  0.00000000000E+00 0.  1.
       22    1    1    2    0    0 -0.19146822670E-02 -0.58885851721E-02  0.33663247463E-01  0.34227995460E-01  0.00000000000E+00 0. -1.
       22    1    1    2    0    0 -0.95309761143E-04 -0.35339390873E-03 -0.24506885484E-01  0.24509618670E-01  0.00000000000E+00 0. -1.
</event>
<event>
 5   0  0.4146200E+04  0.9118800E+02  0.7546771E-02  0.1180000E+00
      -11   -1    0    0    0    0  0.00000000000E+00  0.00000000000E+00  0.34996269501E-01  0.35000000000E-01  0.51099999109E-03 0.  1.
       11   -1    0    0    0    0 -0.00000000000E+00 -0.00000000000E+00 -0.34996269501E-01  0.35000000000E-01  0.51099999109E-03 0.  1.
       22    1    1    2    0    0 -0.10188289371E-02  0.92340210787E-03 -0.32093288259E-01  0.32122730817E-01  0.00000000000E+00 0.  1.
       22    1    1    2    0    0  0.00000000000E+00 -0.00000000000E+00  0.34822787748E-01  0.34820988549E-01  0.00000000000E+00 0.  1.
       22    1    1    2    0    0  0.10188289371E-02 -0.92340210787E-03 -0.27294994891E-02  0.30562806345E-02  0.00000000000E+00 0. -1.
</event>
<event>
 5   0  0.4146200E+04  0.9118800E+02  0.7546771E-02  0.1180000E+00
      -11   -1    0    0    0    0  0.00000000000E+00  0.00000000000E+00  0.34996269501E-01  0.35000000000E-01  0.51099999109E-03 0.  1.
       11   -1    0    0    0    0 -0.00000000000E+00 -0.00000000000E+00 -0.34996269501E-01  0.35000000000E-01  0.51099999109E-03 0. -1.
       22    1    1    2    0    0  0.23677628665E-01 -0.24608835746E-02  0.25512113097E-01  0.34893465890E-01  0.00000000000E+00 0.  1.
       22    1    1    2    0    0 -0.23490969563E-01  0.24947677021E-02 -0.24338642589E-01  0.33917827760E-01  0.00000000000E+00 0. -1.
       22    1    1    2    0    0 -0.18665910153E-03 -0.33884127455E-04 -0.11734705073E-02  0.11887063497E-02  0.00000000000E+00 0.  1.
</event>
<event>
 5   0  0.4146200E+04  0.9118800E+02  0.7546771E-02  0.1180000E+00
      -11   -1    0    0    0    0  0.00000000000E+00  0.00000000000E+00  0.34996269501E-01  0.35000000000E-01  0.51099999109E-03 0.  1.
       11   -1    0    0    0    0 -0.00000000000E+00 -0.00000000000E+00 -0.34996269501E-01  0.35000000000E-01  0.51099999109E-03 0. -1.
       22    1    1    2    0    0 -0.18072167826E-03  0.20224531078E-03  0.44194059080E-02  0.44277208664E-02  0.00000000000E+00 0.  1.
       22    1    1    2    0    0 -0.59951796268E-02 -0.16461859340E-01 -0.29939509670E-01  0.34688747902E-01  0.00000000000E+00 0. -1.
       22    1    1    2    0    0  0.61759013051E-02  0.16259614029E-01  0.25520103762E-01  0.30883531232E-01  0.00000000000E+00 0.  1.
</event>
<event>
 5   0  0.4146200E+04  0.9118800E+02  0.7546771E-02  0.1180000E+00
      -11   -1    0    0    0    0  0.00000000000E+00  0.00000000000E+00  0.34996269501E-01  0.35000000000E-01  0.51099999109E-03 0. -1.
       11   -1    0    0    0    0 -0.00000000000E+00 -0.00000000000E+00 -0.34996269501E-01  0.35000000000E-01  0.51099999109E-03 0.  1.
       22    1    1    2    0    0  0.67643623859E-04 -0.17591608149E-03 -0.46430497871E-03  0.50110003076E-03  0.00000000000E+00 0.  1.
       22    1    1    2    0    0  0.96042982171E-03  0.10986727019E-02 -0.34488223196E-01  0.34519082351E-01  0.00000000000E+00 0.  1.
       22    1    1    2    0    0 -0.10280734456E-02 -0.92275662044E-03  0.34952528175E-01  0.34979817618E-01  0.00000000000E+00 0. -1.
</event>
<event>
 5   0  0.4146200E+04  0.9118800E+02  0.7546771E-02  0.1180000E+00
      -11   -1    0    0    0    0  0.00000000000E+00  0.00000000000E+00  0.34996269501E-01  0.35000000000E-01  0.51099999109E-03 0.  1.
       11   -1    0    0    0    0 -0.00000000000E+00 -0.00000000000E+00 -0.34996269501E-01  0.35000000000E-01  0.51099999109E-03 0. -1.
       22    1    1    2    0    0 -0.15130926053E-01  0.12512083061E-01 -0.28129932719E-01  0.34304376696E-01  0.00000000000E+00 0. -1.
       22    1    1    2    0    0  0.18937764113E-03 -0.18785205910E-02  0.89969231764E-02  0.91928956343E-02  0.00000000000E+00 0. -1.
       22    1    1    2    0    0  0.14941548412E-01 -0.10633562470E-01  0.19133009543E-01  0.26502727669E-01  0.00000000000E+00 0.  1.
</event>
<event>
 5   0  0.4146200E+04  0.9118800E+02  0.7546771E-02  0.1180000E+00
      -11   -1    0    0    0    0  0.00000000000E+00  0.00000000000E+00  0.34996269501E-01  0.35000000000E-01  0.51099999109E-03 0. -1.
       11   -1    0    0    0    0 -0.00000000000E+00 -0.00000000000E+00 -0.34996269501E-01  0.35000000000E-01  0.51099999109E-03 0.  1.
       22    1    1    2    0    0 -0.24911752688E-02  0.15344681759E-01 -0.31337598263E-01  0.34981570539E-01  0.00000000000E+00 0.  1.
       22    1    1    2    0    0  0.24740348392E-02 -0.15355161425E-01  0.31025346560E-01  0.34705532123E-01  0.00000000000E+00 0. -1.
       22    1    1    2    0    0  0.17140429547E-04  0.10479666039E-04  0.31225170330E-03  0.31289733770E-03  0.00000000000E+00 0. -1.
</event>
<event>
 5   0  0.4146200E+04  0.9118800E+02  0.7546771E-02  0.1180000E+00
      -11   -1    0    0    0    0  0.00000000000E+00  0.00000000000E+00  0.34996269501E-01  0.35000000000E-01  0.51099999109E-03 0. -1.
       11   -1    0    0    0    0 -0.00000000000E+00 -0.00000000000E+00 -0.34996269501E-01  0.35000000000E-01  0.51099999109E-03 0.  1.
       22    1    1    2    0    0 -0.55316638963E-02  0.17642437772E-01 -0.24272039355E-01  0.30512076469E-01  0.00000000000E+00 0.  1.
       22    1    1    2    0    0  0.56217958802E-02 -0.17355038667E-01  0.29265268197E-01  0.34485618433E-01  0.00000000000E+00 0. -1.
       22    1    1    2    0    0 -0.90131983951E-04 -0.28739910594E-03 -0.49932288426E-02  0.50023050982E-02  0.00000000000E+00 0. -1.
</event>
<event>
 5   0  0.4146200E+04  0.9118800E+02  0.7546771E-02  0.1180000E+00
      -11   -1    0    0    0    0  0.00000000000E+00  0.00000000000E+00  0.34996269501E-01  0.35000000000E-01  0.51099999109E-03 0.  1.
       11   -1    0    0    0    0 -0.00000000000E+00 -0.00000000000E+00 -0.34996269501E-01  0.35000000000E-01  0.51099999109E-03 0.  1.
       22    1    1    2    0    0  0.41995010951E-03 -0.44332489296E-03  0.14869495503E-01  0.14882029149E-01  0.00000000000E+00 0.  1.
       22    1    1    2    0    0  0.38381284008E-02 -0.18415062664E-01 -0.26543892153E-01  0.32533428550E-01  0.00000000000E+00 0.  1.
       22    1    1    2    0    0 -0.42580785103E-02  0.18858387557E-01  0.11674396650E-01  0.22584542302E-01  0.00000000000E+00 0. -1.
</event>
<event>
 5   0  0.4146200E+04  0.9118800E+02  0.7546771E-02  0.1180000E+00
      -11   -1    0    0    0    0  0.00000000000E+00  0.00000000000E+00  0.34996269501E-01  0.35000000000E-01  0.51099999109E-03 0. -1.
       11   -1    0    0    0    0 -0.00000000000E+00 -0.00000000000E+00 -0.34996269501E-01  0.35000000000E-01  0.51099999109E-03 0.  1.
       22    1    1    2    0    0 -0.10386733514E-01 -0.45839823703E-02  0.33082203553E-01  0.34976124991E-01  0.00000000000E+00 0. -1.
       22    1    1    2    0    0  0.10326902389E-01  0.47154146193E-02 -0.32575995509E-01  0.34497471377E-01  0.00000000000E+00 0.  1.
       22    1    1    2    0    0  0.59831124839E-04 -0.13143224903E-03 -0.50620804458E-03  0.52640363219E-03  0.00000000000E+00 0.  1.
</event>
<event>
 5   0  0.4146200E+04  0.9118800E+02  0.7546771E-02  0.1180000E+00
      -11   -1    0    0    0    0  0.00000000000E+00  0.00000000000E+00  0.34996269501E-01  0.35000000000E-01  0.51099999109E-03 0.  1.
       11   -1    0    0    0    0 -0.00000000000E+00 -0.00000000000E+00 -0.34996269501E-01  0.35000000000E-01  0.51099999109E-03 0. -1.
       22    1    1    2    0    0  0.32792328992E-02  0.30270195159E-03 -0.86619855109E-02  0.92668759498E-02  0.00000000000E+00 0. -1.
       22    1    1    2    0    0 -0.15272632109E-02  0.84151327881E-03 -0.25974761352E-01  0.26033226939E-01  0.00000000000E+00 0. -1.
       22    1    1    2    0    0 -0.17519696883E-02 -0.11442152304E-02  0.34636746863E-01  0.34699897112E-01  0.00000000000E+00 0.  1.
</event>
<event>
 5   0  0.4146200E+04  0.9118800E+02  0.7546771E-02  0.1180000E+00
      -11   -1    0    0    0    0  0.00000000000E+00  0.00000000000E+00  0.34996269501E-01  0.35000000000E-01  0.51099999109E-03 0. -1.
       11   -1    0    0    0    0 -0.00000000000E+00 -0.00000000000E+00 -0.34996269501E-01  0.35000000000E-01  0.51099999109E-03 0.  1.
       22    1    1    2    0    0  0.17625189656E-01 -0.14346835316E-02  0.28233175606E-01  0.33313928499E-01  0.00000000000E+00 0. -1.
       22    1    1    2    0    0 -0.17790181546E-01  0.12344458335E-02 -0.30000127119E-01  0.34900172537E-01  0.00000000000E+00 0.  1.
       22    1    1    2    0    0  0.16499188992E-03  0.20023769818E-03  0.17669515134E-02  0.17858989641E-02  0.00000000000E+00 0. -1.
</event>
<event>
 5   0  0.4146200E+04  0.9118800E+02  0.7546771E-02  0.1180000E+00
      -11   -1    0    0    0    0  0.00000000000E+00  0.00000000000E+00  0.34996269501E-01  0.35000000000E-01  0.51099999109E-03 0.  1.
       11   -1    0    0    0    0 -0.00000000000E+00 -0.00000000000E+00 -0.34996269501E-01  0.35000000000E-01  0.51099999109E-03 0. -1.
       22    1    1    2    0    0 -0.45549372293E-04  0.61477171101E-04  0.94147124247E-03  0.94457518932E-03  0.00000000000E+00 0.  1.
       22    1    1    2    0    0  0.43560010578E-02 -0.11518014405E-01  0.31799804136E-01  0.34100834947E-01  0.00000000000E+00 0.  1.
       22    1    1    2    0    0 -0.43104516855E-02  0.11456537234E-01 -0.32741275378E-01  0.34954589863E-01  0.00000000000E+00 0. -1.
</event>
<event>
 5   0  0.4146200E+04  0.9118800E+02  0.7546771E-02  0.1180000E+00
      -11   -1    0    0    0    0  0.00000000000E+00  0.00000000000E+00  0.34996269501E-01  0.35000000000E-01  0.51099999109E-03 0. -1.
       11   -1    0    0    0    0 -0.00000000000E+00 -0.00000000000E+00 -0.34996269501E-01  0.35000000000E-01  0.51099999109E-03 0.  1.
       22    1    1    2    0    0 -0.14951501032E-01  0.20302692419E-01 -0.57713763404E-02  0.25866106925E-01  0.00000000000E+00 0.  1.
       22    1    1    2    0    0 -0.40747971777E-02 -0.66326361190E-02 -0.12292905207E-01  0.14550304201E-01  0.00000000000E+00 0. -1.
       22    1    1    2    0    0  0.19026298210E-01 -0.13670056300E-01  0.18064281547E-01  0.29583588874E-01  0.00000000000E+00 0. -1.
</event>
<event>
 5   0  0.4146200E+04  0.9118800E+02  0.7546771E-02  0.1180000E+00
      -11   -1    0    0    0    0  0.00000000000E+00  0.00000000000E+00  0.34996269501E-01  0.35000000000E-01  0.51099999109E-03 0. -1.
       11   -1    0    0    0    0 -0.00000000000E+00 -0.00000000000E+00 -0.34996269501E-01  0.35000000000E-01  0.51099999109E-03 0.  1.
       22    1    1    2    0    0  0.35924557623E-02  0.93767564699E-02  0.33196448849E-01  0.34681890325E-01  0.00000000000E+00 0. -1.
       22    1    1    2    0    0 -0.34229903136E-02 -0.10419982098E-01 -0.30938462911E-01  0.32825011453E-01  0.00000000000E+00 0.  1.
       22    1    1    2    0    0 -0.16946544870E-03  0.10432256280E-02 -0.22579859380E-02  0.24930982222E-02  0.00000000000E+00 0.  1.
</event>
<event>
 5   0  0.4146200E+04  0.9118800E+02  0.7546771E-02  0.1180000E+00
      -11   -1    0    0    0    0  0.00000000000E+00  0.00000000000E+00  0.34996269501E-01  0.35000000000E-01  0.51099999109E-03 0.  1.
       11   -1    0    0    0    0 -0.00000000000E+00 -0.00000000000E+00 -0.34996269501E-01  0.35000000000E-01  0.51099999109E-03 0. -1.
       22    1    1    2    0    0 -0.15873395673E-03 -0.99696266489E-04 -0.91408927418E-02  0.91428144426E-02  0.00000000000E+00 0.  1.
       22    1    1    2    0    0 -0.12083789298E-01  0.53708034192E-03  0.32391784084E-01  0.34576496284E-01  0.00000000000E+00 0.  1.
       22    1    1    2    0    0  0.12242523255E-01 -0.43738407543E-03 -0.23250891342E-01  0.26280689274E-01  0.00000000000E+00 0. -1.
</event>
<event>
 5   0  0.4146200E+04  0.9118800E+02  0.7546771E-02  0.1180000E+00
      -11   -1    0    0    0    0  0.00000000000E+00  0.00000000000E+00  0.34996269501E-01  0.35000000000E-01  0.51099999109E-03 0. -1.
       11   -1    0    0    0    0 -0.00000000000E+00 -0.00000000000E+00 -0.34996269501E-01  0.35000000000E-01  0.51099999109E-03 0.  1.
       22    1    1    2    0    0  0.18431138345E-01 -0.33316169705E-03  0.29466158942E-01  0.34757335632E-01  0.00000000000E+00 0. -1.
       22    1    1    2    0    0  0.15817531037E-04  0.30150820819E-03  0.16083680731E-03  0.34209044488E-03  0.00000000000E+00 0.  1.
       22    1    1    2    0    0 -0.18446955876E-01  0.31653488865E-04 -0.29626995750E-01  0.34900573923E-01  0.00000000000E+00 0.  1.
</event>
<event>
 5   0  0.4146200E+04  0.9118800E+02  0.7546771E-02  0.1180000E+00
      -11   -1    0    0    0    0  0.00000000000E+00  0.00000000000E+00  0.34996269501E-01  0.35000000000E-01  0.51099999109E-03 0.  1.
       11   -1    0    0    0    0 -0.00000000000E+00 -0.00000000000E+00 -0.34996269501E-01  0.35000000000E-01  0.51099999109E-03 0.  1.
       22    1    1    2    0    0  0.16363918177E-01 -0.89396897519E-02  0.67559296645E-02  0.19832762203E-01  0.00000000000E+00 0. -1.
       22    1    1    2    0    0 -0.16363918177E-01  0.89396897519E-02 -0.25408357718E-01  0.31516353102E-01  0.00000000000E+00 0.  1.
       22    1    1    2    0    0  0.00000000000E+00  0.00000000000E+00  0.18652428053E-01  0.18650884695E-01  0.00000000000E+00 0.  1.
</event>
<event>
 5   0  0.4146200E+04  0.9118800E+02  0.7546771E-02  0.1180000E+00
      -11   -1    0    0    0    0  0.00000000000E+00  0.00000000000E+00  0.34996269501E-01  0.35000000000E-01  0.51099999109E-03 0.  1.
       11   -1    0    0    0    0 -0.00000000000E+00 -0.00000000000E+00 -0.34996269501E-01  0.35000000000E-01  0.51099999109E-03 0.  1.
       22    1    1    2    0    0 -0.66721880483E-02  0.42231029613E-02 -0.32337417609E-01  0.33287554275E-01  0.00000000000E+00 0.  1.
       22    1    1    2    0    0  0.65625300752E-02 -0.29227491388E-02  0.33913607763E-01  0.34666151431E-01  0.00000000000E+00 0.  1.
       22    1    1    2    0    0  0.10965797305E-03 -0.13003538225E-02 -0.15761901540E-02  0.20462942937E-02  0.00000000000E+00 0.  1.
</event>
<event>
 5   0  0.4146200E+04  0.9118800E+02  0.7546771E-02  0.1180000E+00
      -11   -1    0    0    0    0  0.00000000000E+00  0.00000000000E+00  0.34996269501E-01  0.35000000000E-01  0.51099999109E-03 0. -1.
       11   -1    0    0    0    0 -0.00000000000E+00 -0.00000000000E+00 -0.34996269501E-01  0.35000000000E-01  0.51099999109E-03 0.  1.
       22    1    1    2    0    0 -0.89265612155E-02  0.60814412108E-02  0.32181003762E-01  0.33945315221E-01  0.00000000000E+00 0. -1.
       22    1    1    2    0    0 -0.29143813259E-02  0.63861995676E-04 -0.55410767153E-02  0.62610884063E-02  0.00000000000E+00 0. -1.
       22    1    1    2    0    0  0.11840942541E-01 -0.61453032064E-02 -0.26639927047E-01  0.29793596373E-01  0.00000000000E+00 0.  1.
</event>
<event>
 5   0  0.4146200E+04  0.9118800E+02  0.7546771E-02  0.1180000E+00
      -11   -1    0    0    0    0  0.00000000000E+00  0.00000000000E+00  0.34996269501E-01  0.35000000000E-01  0.51099999109E-03 0. -1.
       11   -1    0    0    0    0 -0.00000000000E+00 -0.00000000000E+00 -0.34996269501E-01  0.35000000000E-01  0.51099999109E-03 0.  1.
       22    1    1    2    0    0  0.24306291924E-01 -0.63024987558E-02  0.23047983920E-01  0.34084114782E-01  0.00000000000E+00 0. -1.
       22    1    1    2    0    0 -0.25490574372E-01  0.56804532227E-02 -0.21216185290E-01  0.33647636602E-01  0.00000000000E+00 0.  1.
       22    1    1    2    0    0  0.11842824481E-02  0.62204553303E-03 -0.18317986303E-02  0.22682486161E-02  0.00000000000E+00 0. -1.
</event>
<event>
 5   0  0.4146200E+04  0.9118800E+02  0.7546771E-02  0.1180000E+00
      -11   -1    0    0    0    0  0.00000000000E+00  0.00000000000E+00  0.34996269501E-01  0.35000000000E-01  0.51099999109E-03 0.  1.
       11   -1    0    0    0    0 -0.00000000000E+00 -0.00000000000E+00 -0.34996269501E-01  0.35000000000E-01  0.51099999109E-03 0. -1.
       22    1    1    2    0    0  0.10656696575E-01  0.47241903293E-02  0.32718480453E-01  0.34733011953E-01  0.00000000000E+00 0.  1.
       22    1    1    2    0    0 -0.90557797321E-02 -0.12703528342E-02 -0.20007759898E-01  0.21998440831E-01  0.00000000000E+00 0. -1.
       22    1    1    2    0    0 -0.16009168433E-02 -0.34538374952E-02 -0.12710720555E-01  0.13268547216E-01  0.00000000000E+00 0. -1.
</event>
<event>
 5   0  0.4146200E+04  0.9118800E+02  0.7546771E-02  0.1180000E+00
      -11   -1    0    0    0    0  0.00000000000E+00  0.00000000000E+00  0.34996269501E-01  0.35000000000E-01  0.51099999109E-03 0.  1.
       11   -1    0    0    0    0 -0.00000000000E+00 -0.00000000000E+00 -0.34996269501E-01  0.35000000000E-01  0.51099999109E-03 0. -1.
       22    1    1    2    0    0 -0.42986376334E-02  0.15442381534E-01  0.29717546807E-01  0.33765041406E-01  0.00000000000E+00 0.  1.
       22    1    1    2    0    0  0.12938218033E-03  0.19591146637E-03  0.12614072835E-02  0.12830702966E-02  0.00000000000E+00 0. -1.
       22    1    1    2    0    0  0.41692554530E-02 -0.15638293001E-01 -0.30978954090E-01  0.34951888297E-01  0.00000000000E+00 0. -1.
</event>
<event>
 5   0  0.4146200E+04  0.9118800E+02  0.7546771E-02  0.1180000E+00
      -11   -1    0    0    0    0  0.00000000000E+00  0.00000000000E+00  0.34996269501E-01  0.35000000000E-01  0.51099999109E-03 0. -1.
       11   -1    0    0    0    0 -0.00000000000E+00 -0.00000000000E+00 -0.34996269501E-01  0.35000000000E-01  0.51099999109E-03 0.  1.
       22    1    1    2    0    0  0.16830977370E-02 -0.62221940016E-03  0.18550889341E-03  0.18039923846E-02  0.00000000000E+00 0.  1.
       22    1    1    2    0    0 -0.82266046829E-02  0.84977156130E-02 -0.32348289173E-01  0.34442706161E-01  0.00000000000E+00 0.  1.
       22    1    1    2    0    0  0.65435069459E-02 -0.78754962128E-02  0.32162780280E-01  0.33753301455E-01  0.00000000000E+00 0. -1.
</event>
<event>
 5   0  0.4146200E+04  0.9118800E+02  0.7546771E-02  0.1180000E+00
      -11   -1    0    0    0    0  0.00000000000E+00  0.00000000000E+00  0.34996269501E-01  0.35000000000E-01  0.51099999109E-03 0. -1.
       11   -1    0    0    0    0 -0.00000000000E+00 -0.00000000000E+00 -0.34996269501E-01  0.35000000000E-01  0.51099999109E-03 0.  1.
       22    1    1    2    0    0  0.47529182915E-03  0.18651456396E-03  0.61404297766E-03  0.79858548937E-03  0.00000000000E+00 0.  1.
       22    1    1    2    0    0 -0.14257010658E-01 -0.62036981577E-03  0.31319905869E-01  0.34417781963E-01  0.00000000000E+00 0. -1.
       22    1    1    2    0    0  0.13781718829E-01  0.43385525181E-03 -0.31933948847E-01  0.34783632548E-01  0.00000000000E+00 0.  1.
</event>
<event>
 5   0  0.4146200E+04  0.9118800E+02  0.7546771E-02  0.1180000E+00
      -11   -1    0    0    0    0  0.00000000000E+00  0.00000000000E+00  0.34996269501E-01  0.35000000000E-01  0.51099999109E-03 0.  1.
       11   -1    0    0    0    0 -0.00000000000E+00 -0.00000000000E+00 -0.34996269501E-01  0.35000000000E-01  0.51099999109E-03 0. -1.
       22    1    1    2    0    0 -0.10156113712E-02 -0.38394164612E-02 -0.10477716648E-01  0.11205138615E-01  0.00000000000E+00 0. -1.
       22    1    1    2    0    0  0.14967608865E-02  0.86788027039E-03  0.34520768002E-01  0.34564098900E-01  0.00000000000E+00 0.  1.
       22    1    1    2    0    0 -0.48114951534E-03  0.29715361908E-02 -0.24043051354E-01  0.24230762485E-01  0.00000000000E+00 0.  1.
</event>
<event>
 5   0  0.4146200E+04  0.9118800E+02  0.7546771E-02  0.1180000E+00
      -11   -1    0    0    0    0  0.00000000000E+00  0.00000000000E+00  0.34996269501E-01  0.35000000000E-01  0.51099999109E-03 0.  1.
       11   -1    0    0    0    0 -0.00000000000E+00 -0.00000000000E+00 -0.34996269501E-01  0.35000000000E-01  0.51099999109E-03 0. -1.
       22    1    1    2    0    0  0.12153138618E-01  0.30464321333E-02 -0.31654621977E-01  0.34044010039E-01  0.00000000000E+00 0. -1.
       22    1    1    2    0    0 -0.14171520301E-01 -0.16103855046E-02  0.24084228076E-01  0.27990630060E-01  0.00000000000E+00 0.  1.
       22    1    1    2    0    0  0.20183816824E-02 -0.14360466288E-02  0.75703939011E-02  0.79653599011E-02  0.00000000000E+00 0.  1.
</event>
<event>
 5   0  0.4146200E+04  0.9118800E+02  0.7546771E-02  0.1180000E+00
      -11   -1    0    0    0    0  0.00000000000E+00  0.00000000000E+00  0.34996269501E-01  0.35000000000E-01  0.51099999109E-03 0.  1.
       11   -1    0    0    0    0 -0.00000000000E+00 -0.00000000000E+00 -0.34996269501E-01  0.35000000000E-01  0.51099999109E-03 0. -1.
       22    1    1    2    0    0  0.14176936991E-01 -0.98331610675E-02 -0.28365487944E-01  0.33200564834E-01  0.00000000000E+00 0. -1.
       22    1    1    2    0    0  0.58298371534E-03 -0.21451816640E-03 -0.17120741323E-02  0.18212868777E-02  0.00000000000E+00 0. -1.
       22    1    1    2    0    0 -0.14759920706E-01  0.10047679234E-01  0.30077562076E-01  0.34978148288E-01  0.00000000000E+00 0.  1.
</event>
<event>
 5   0  0.4146200E+04  0.9118800E+02  0.7546771E-02  0.1180000E+00
      -11   -1    0    0    0    0  0.00000000000E+00  0.00000000000E+00  0.34996269501E-01  0.35000000000E-01  0.51099999109E-03 0.  1.
       11   -1    0    0    0    0 -0.00000000000E+00 -0.00000000000E+00 -0.34996269501E-01  0.35000000000E-01  0.51099999109E-03 0. -1.
       22    1    1    2    0    0 -0.10435802715E-01 -0.12867079182E-01  0.30214685881E-01  0.34458597590E-01  0.00000000000E+00 0.  1.
       22    1    1    2    0    0 -0.13102777468E-03  0.24493713208E-03  0.56877423909E-03  0.63298231528E-03  0.00000000000E+00 0. -1.
       22    1    1    2    0    0  0.10566830490E-01  0.12622142050E-01 -0.30783460120E-01  0.34908420095E-01  0.00000000000E+00 0. -1.
</event>
<event>
 5   0  0.4146200E+04  0.9118800E+02  0.7546771E-02  0.1180000E+00
      -11   -1    0    0    0    0  0.00000000000E+00  0.00000000000E+00  0.34996269501E-01  0.35000000000E-01  0.51099999109E-03 0. -1.
       11   -1    0    0    0    0 -0.00000000000E+00 -0.00000000000E+00 -0.34996269501E-01  0.35000000000E-01  0.51099999109E-03 0.  1.
       22    1    1    2    0    0  0.10486480468E-01  0.10951375831E-01  0.22657071533E-01  0.27262461291E-01  0.00000000000E+00 0. -1.
       22    1    1    2    0    0 -0.50866985902E-02 -0.10070664054E-01 -0.30871116567E-01  0.32868200667E-01  0.00000000000E+00 0.  1.
       22    1    1    2    0    0 -0.53997818776E-02 -0.88071177721E-03  0.82140450337E-02  0.98693380414E-02  0.00000000000E+00 0. -1.
</event>
<event>
 5   0  0.4146200E+04  0.9118800E+02  0.7546771E-02  0.1180000E+00
      -11   -1    0    0    0    0  0.00000000000E+00  0.00000000000E+00  0.34996269501E-01  0.35000000000E-01  0.51099999109E-03 0. -1.
       11   -1    0    0    0    0 -0.00000000000E+00 -0.00000000000E+00 -0.34996269501E-01  0.35000000000E-01  0.51099999109E-03 0.  1.
       22    1    1    2    0    0  0.13280262104E-01  0.99003636083E-02  0.30099084290E-01  0.34356039298E-01  0.00000000000E+00 0. -1.
       22    1    1    2    0    0 -0.13275779432E-01 -0.93304062540E-02 -0.30756119302E-01  0.34774152397E-01  0.00000000000E+00 0.  1.
       22    1    1    2    0    0 -0.44826726335E-05 -0.56995735425E-03  0.65703501197E-03  0.86980830473E-03  0.00000000000E+00 0.  1.
</event>
<event>
 5   0  0.4146200E+04  0.9118800E+02  0.7546771E-02  0.1180000E+00
      -11   -1    0    0    0    0  0.00000000000E+00  0.00000000000E+00  0.34996269501E-01  0.35000000000E-01  0.51099999109E-03 0.  1.
       11   -1    0    0    0    0 -0.00000000000E+00 -0.00000000000E+00 -0.34996269501E-01  0.35000000000E-01  0.51099999109E-03 0. -1.
       22    1    1    2    0    0  0.27708268766E-02  0.56464539454E-03  0.65116548346E-02  0.70991516878E-02  0.00000000000E+00 0.  1.
       22    1    1    2    0    0  0.18260193807E-01  0.78869949303E-02 -0.26188383765E-01  0.32885723515E-01  0.00000000000E+00 0. -1.
       22    1    1    2    0    0 -0.21031020684E-01 -0.84516403248E-02  0.19676728930E-01  0.30015124797E-01  0.00000000000E+00 0.  1.
</event>
<event>
 5   0  0.4146200E+04  0.9118800E+02  0.7546771E-02  0.1180000E+00
      -11   -1    0    0    0    0  0.00000000000E+00  0.00000000000E+00  0.34996269501E-01  0.35000000000E-01  0.51099999109E-03 0.  1.
       11   -1    0    0    0    0 -0.00000000000E+00 -0.00000000000E+00 -0.34996269501E-01  0.35000000000E-01  0.51099999109E-03 0. -1.
       22    1    1    2    0    0 -0.42844133316E-02  0.86086525635E-02 -0.17378093714E-01  0.19861098602E-01  0.00000000000E+00 0. -1.
       22    1    1    2    0    0  0.66621329232E-02 -0.21883920540E-01 -0.55493488447E-02  0.23539015823E-01  0.00000000000E+00 0.  1.
       22    1    1    2    0    0 -0.23777195916E-02  0.13275267977E-01  0.22927442559E-01  0.26599885575E-01  0.00000000000E+00 0. -1.
</event>
<event>
 5   0  0.4146200E+04  0.9118800E+02  0.7546771E-02  0.1180000E+00
      -11   -1    0    0    0    0  0.00000000000E+00  0.00000000000E+00  0.34996269501E-01  0.35000000000E-01  0.51099999109E-03 0.  1.
       11   -1    0    0    0    0 -0.00000000000E+00 -0.00000000000E+00 -0.34996269501E-01  0.35000000000E-01  0.51099999109E-03 0. -1.
       22    1    1    2    0    0  0.86024210263E-02 -0.43897761903E-02 -0.30162147397E-01  0.31670600218E-01  0.00000000000E+00 0. -1.
       22    1    1    2    0    0 -0.10461255468E-01  0.47600151999E-02  0.32984584662E-01  0.34929621184E-01  0.00000000000E+00 0.  1.
       22    1    1    2    0    0  0.18588344420E-02 -0.37023900956E-03 -0.28224372649E-02  0.33997785988E-02  0.00000000000E+00 0.  1.
</event>
<event>
 5   0  0.4146200E+04  0.9118800E+02  0.7546771E-02  0.1180000E+00
      -11   -1    0    0    0    0  0.00000000000E+00  0.00000000000E+00  0.34996269501E-01  0.35000000000E-01  0.51099999109E-03 0.  1.
       11   -1    0    0    0    0 -0.00000000000E+00 -0.00000000000E+00 -0.34996269501E-01  0.35000000000E-01  0.51099999109E-03 0. -1.
       22    1    1    2    0    0 -0.11746017913E-01 -0.17137308899E-01 -0.26983622016E-01  0.34055427617E-01  0.00000000000E+00 0. -1.
       22    1    1    2    0    0  0.13671018816E-01  0.16080216757E-01  0.26127519366E-01  0.33587458889E-01  0.00000000000E+00 0.  1.
       22    1    1    2    0    0 -0.19250009030E-02  0.10570921420E-02  0.85610264953E-03  0.23571134932E-02  0.00000000000E+00 0.  1.
</event>
<event>
 5   0  0.4146200E+04  0.9118800E+02  0.7546771E-02  0.1180000E+00
      -11   -1    0    0    0    0  0.00000000000E+00  0.00000000000E+00  0.34996269501E-01  0.35000000000E-01  0.51099999109E-03 0.  1.
       11   -1    0    0    0    0 -0.00000000000E+00 -0.00000000000E+00 -0.34996269501E-01  0.35000000000E-01  0.51099999109E-03 0. -1.
       22    1    1    2    0    0  0.13696046879E-01  0.17534596727E-01  0.21600135895E-01  0.31009831556E-01  0.00000000000E+00 0.  1.
       22    1    1    2    0    0 -0.44679178223E-02  0.37740830285E-02 -0.12951468175E-01  0.14210788869E-01  0.00000000000E+00 0. -1.
       22    1    1    2    0    0 -0.92281290565E-02 -0.21308679755E-01 -0.86486677192E-02  0.24779379575E-01  0.00000000000E+00 0. -1.
</event>
<event>
 5   0  0.4146200E+04  0.9118800E+02  0.7546771E-02  0.1180000E+00
      -11   -1    0    0    0    0  0.00000000000E+00  0.00000000000E+00  0.34996269501E-01  0.35000000000E-01  0.51099999109E-03 0.  1.
       11   -1    0    0    0    0 -0.00000000000E+00 -0.00000000000E+00 -0.34996269501E-01  0.35000000000E-01  0.51099999109E-03 0. -1.
       22    1    1    2    0    0  0.30606063609E-02 -0.26618832083E-02 -0.52270432500E-02  0.66162613800E-02  0.00000000000E+00 0. -1.
       22    1    1    2    0    0 -0.78485448719E-02  0.12655898066E-01 -0.26157825905E-01  0.30099888181E-01  0.00000000000E+00 0. -1.
       22    1    1    2    0    0  0.47879385110E-02 -0.99940148574E-02  0.31384869155E-01  0.33283850439E-01  0.00000000000E+00 0.  1.
</event>
<event>
 5   0  0.4146200E+04  0.9118800E+02  0.7546771E-02  0.1180000E+00
      -11   -1    0    0    0    0  0.00000000000E+00  0.00000000000E+00  0.34996269501E-01  0.35000000000E-01  0.51099999109E-03 0.  1.
       11   -1    0    0    0    0 -0.00000000000E+00 -0.00000000000E+00 -0.34996269501E-01  0.35000000000E-01  0.51099999109E-03 0. -1.
       22    1    1    2    0    0 -0.41750329328E-04  0.32471915761E-04  0.20752030459E-02  0.20758769706E-02  0.00000000000E+00 0.  1.
       22    1    1    2    0    0  0.37249001671E-02  0.13925853493E-01  0.29705415694E-01  0.33018419077E-01  0.00000000000E+00 0.  1.
       22    1    1    2    0    0 -0.36831498378E-02 -0.13958325409E-01 -0.31780618740E-01  0.34905703953E-01  0.00000000000E+00 0. -1.
</event>
<event>
 5   0  0.4146200E+04  0.9118800E+02  0.7546771E-02  0.1180000E+00
      -11   -1    0    0    0    0  0.00000000000E+00  0.00000000000E+00  0.34996269501E-01  0.35000000000E-01  0.51099999109E-03 0.  1.
       11   -1    0    0    0    0 -0.00000000000E+00 -0.00000000000E+00 -0.34996269501E-01  0.35000000000E-01  0.51099999109E-03 0. -1.
       22    1    1    2    0    0  0.16560724921E-01 -0.52056464636E-02  0.29765986242E-01  0.34458239972E-01  0.00000000000E+00 0. -1.
       22    1    1    2    0    0 -0.16395809461E-01  0.51518010305E-02 -0.30379694130E-01  0.34904003168E-01  0.00000000000E+00 0.  1.
       22    1    1    2    0    0 -0.16491546041E-03  0.53845433031E-04  0.61370788824E-03  0.63775685949E-03  0.00000000000E+00 0. -1.
</event>
<event>
 5   0  0.4146200E+04  0.9118800E+02  0.7546771E-02  0.1180000E+00
      -11   -1    0    0    0    0  0.00000000000E+00  0.00000000000E+00  0.34996269501E-01  0.35000000000E-01  0.51099999109E-03 0.  1.
       11   -1    0    0    0    0 -0.00000000000E+00 -0.00000000000E+00 -0.34996269501E-01  0.35000000000E-01  0.51099999109E-03 0. -1.
       22    1    1    2    0    0  0.25906168047E-02 -0.29032881049E-02 -0.82127709710E-02  0.90879031834E-02  0.00000000000E+00 0. -1.
       22    1    1    2    0    0 -0.31175147443E-02 -0.22921733580E-01 -0.13832736386E-01  0.26953095637E-01  0.00000000000E+00 0. -1.
       22    1    1    2    0    0  0.52689793953E-03  0.25825021685E-01  0.22045507357E-01  0.33959001179E-01  0.00000000000E+00 0.  1.
</event>
<event>
 5   0  0.4146200E+04  0.9118800E+02  0.7546771E-02  0.1180000E+00
      -11   -1    0    0    0    0  0.00000000000E+00  0.00000000000E+00  0.34996269501E-01  0.35000000000E-01  0.51099999109E-03 0.  1.
       11   -1    0    0    0    0 -0.00000000000E+00 -0.00000000000E+00 -0.34996269501E-01  0.35000000000E-01  0.51099999109E-03 0. -1.
       22    1    1    2    0    0  0.33225533857E-03 -0.13329573685E-02 -0.31043551191E-01  0.31073931832E-01  0.00000000000E+00 0. -1.
       22    1    1    2    0    0 -0.23836612364E-02  0.24600382865E-02  0.34544954214E-01  0.34714370092E-01  0.00000000000E+00 0.  1.
       22    1    1    2    0    0  0.20514058978E-02 -0.11270809180E-02 -0.35014030232E-02  0.42116980761E-02  0.00000000000E+00 0. -1.
</event>
<event>
 5   0  0.4146200E+04  0.9118800E+02  0.7546771E-02  0.1180000E+00
      -11   -1    0    0    0    0  0.00000000000E+00  0.00000000000E+00  0.34996269501E-01  0.35000000000E-01  0.51099999109E-03 0. -1.
       11   -1    0    0    0    0 -0.00000000000E+00 -0.00000000000E+00 -0.34996269501E-01  0.35000000000E-01  0.51099999109E-03 0.  1.
       22    1    1    2    0    0  0.18278613910E-04 -0.22970601491E-04  0.54915436031E-03  0.54993842174E-03  0.00000000000E+00 0. -1.
       22    1    1    2    0    0  0.87889573538E-02  0.12406838839E-01 -0.31495766952E-01  0.34973686641E-01  0.00000000000E+00 0.  1.
       22    1    1    2    0    0 -0.88072359678E-02 -0.12383868238E-01  0.30946612592E-01  0.34476374937E-01  0.00000000000E+00 0. -1.
</event>
<event>
 5   0  0.4146200E+04  0.9118800E+02  0.7546771E-02  0.1180000E+00
      -11   -1    0    0    0    0  0.00000000000E+00  0.00000000000E+00  0.34996269501E-01  0.35000000000E-01  0.51099999109E-03 0. -1.
       11   -1    0    0    0    0 -0.00000000000E+00 -0.00000000000E+00 -0.34996269501E-01  0.35000000000E-01  0.51099999109E-03 0.  1.
       22    1    1    2    0    0 -0.55021172047E-02 -0.11171819232E-01  0.31530075253E-02  0.12846178231E-01  0.00000000000E+00 0. -1.
       22    1    1    2    0    0  0.36775965945E-02 -0.40878784290E-02  0.24720293354E-01  0.25324461894E-01  0.00000000000E+00 0. -1.
       22    1    1    2    0    0  0.18245206102E-02  0.15259697661E-01 -0.27873300879E-01  0.31829359875E-01  0.00000000000E+00 0.  1.
</event>
<event>
 5   0  0.4146200E+04  0.9118800E+02  0.7546771E-02  0.1180000E+00
      -11   -1    0    0    0    0  0.00000000000E+00  0.00000000000E+00  0.34996269501E-01  0.35000000000E-01  0.51099999109E-03 0. -1.
       11   -1    0    0    0    0 -0.00000000000E+00 -0.00000000000E+00 -0.34996269501E-01  0.35000000000E-01  0.51099999109E-03 0.  1.
       22    1    1    2    0    0 -0.19549350111E-03  0.98589944241E-04  0.18617659234E-02  0.18745959670E-02  0.00000000000E+00 0. -1.
       22    1    1    2    0    0 -0.20166599500E-01  0.45146564146E-02  0.26060960433E-01  0.33260299407E-01  0.00000000000E+00 0. -1.
       22    1    1    2    0    0  0.20362093002E-01 -0.46132463589E-02 -0.27922726357E-01  0.34865104626E-01  0.00000000000E+00 0.  1.
</event>
<event>
 5   0  0.4146200E+04  0.9118800E+02  0.7546771E-02  0.1180000E+00
      -11   -1    0    0    0    0  0.00000000000E+00  0.00000000000E+00  0.34996269501E-01  0.35000000000E-01  0.51099999109E-03 0. -1.
       11   -1    0    0    0    0 -0.00000000000E+00 -0.00000000000E+00 -0.34996269501E-01  0.35000000000E-01  0.51099999109E-03 0.  1.
       22    1    1    2    0    0 -0.17308499382E-01 -0.11694748220E-01  0.14946403112E-01  0.25685526134E-01  0.00000000000E+00 0. -1.
       22    1    1    2    0    0  0.40194594491E-03 -0.61201981778E-04  0.11102176397E-01  0.11109618669E-01  0.00000000000E+00 0. -1.
       22    1    1    2    0    0  0.16906553437E-01  0.11755950202E-01 -0.26048579509E-01  0.33204855197E-01  0.00000000000E+00 0.  1.
</event>
<event>
 5   0  0.4146200E+04  0.9118800E+02  0.7546771E-02  0.1180000E+00
      -11   -1    0    0    0    0  0.00000000000E+00  0.00000000000E+00  0.34996269501E-01  0.35000000000E-01  0.51099999109E-03 0. -1.
       11   -1    0    0    0    0 -0.00000000000E+00 -0.00000000000E+00 -0.34996269501E-01  0.35000000000E-01  0.51099999109E-03 0.  1.
       22    1    1    2    0    0  0.30580798409E-02 -0.19946536056E-02  0.36853589724E-03  0.36696476707E-02  0.00000000000E+00 0. -1.
       22    1    1    2    0    0 -0.16327551280E-01  0.17014271533E-01  0.24757167580E-01  0.34190520809E-01  0.00000000000E+00 0. -1.
       22    1    1    2    0    0  0.13269471439E-01 -0.15019617928E-01 -0.25125703477E-01  0.32139831521E-01  0.00000000000E+00 0.  1.
</event>
<event>
 5   0  0.4146200E+04  0.9118800E+02  0.7546771E-02  0.1180000E+00
      -11   -1    0    0    0    0  0.00000000000E+00  0.00000000000E+00  0.34996269501E-01  0.35000000000E-01  0.51099999109E-03 0.  1.
       11   -1    0    0    0    0 -0.00000000000E+00 -0.00000000000E+00 -0.34996269501E-01  0.35000000000E-01  0.51099999109E-03 0. -1.
       22    1    1    2    0    0  0.82245214826E-03  0.21314098819E-02  0.34861297143E-01  0.34936075540E-01  0.00000000000E+00 0.  1.
       22    1    1    2    0    0 -0.12493414127E-02 -0.14119453162E-02 -0.32572724858E-01  0.32627240892E-01  0.00000000000E+00 0. -1.
       22    1    1    2    0    0  0.42688926445E-03 -0.71946456571E-03 -0.22885722858E-02  0.24366835684E-02  0.00000000000E+00 0.  1.
</event>
<event>
 5   0  0.4146200E+04  0.9118800E+02  0.7546771E-02  0.1180000E+00
      -11   -1    0    0    0    0  0.00000000000E+00  0.00000000000E+00  0.34996269501E-01  0.35000000000E-01  0.51099999109E-03 0. -1.
       11   -1    0    0    0    0 -0.00000000000E+00 -0.00000000000E+00 -0.34996269501E-01  0.35000000000E-01  0.51099999109E-03 0.  1.
       22    1    1    2    0    0 -0.11687850716E-02 -0.68260193367E-03  0.17016198812E-01  0.17069945107E-01  0.00000000000E+00 0. -1.
       22    1    1    2    0    0  0.10725750574E-01 -0.46234061670E-02 -0.32181687836E-01  0.34235634096E-01  0.00000000000E+00 0.  1.
       22    1    1    2    0    0 -0.95569655024E-02  0.53060081007E-02  0.15165489024E-01  0.18694420797E-01  0.00000000000E+00 0. -1.
</event>
<event>
 5   0  0.4146200E+04  0.9118800E+02  0.7546771E-02  0.1180000E+00
      -11   -1    0    0    0    0  0.00000000000E+00  0.00000000000E+00  0.34996269501E-01  0.35000000000E-01  0.51099999109E-03 0.  1.
       11   -1    0    0    0    0 -0.00000000000E+00 -0.00000000000E+00 -0.34996269501E-01  0.35000000000E-01  0.51099999109E-03 0. -1.
       22    1    1    2    0    0 -0.99539106939E-02  0.69515009894E-02 -0.31761034313E-01  0.34002455863E-01  0.00000000000E+00 0. -1.
       22    1    1    2    0    0  0.17116590634E-02  0.22700891538E-02  0.13095935635E-02  0.31301943737E-02  0.00000000000E+00 0.  1.
       22    1    1    2    0    0  0.82422516305E-02 -0.92215901432E-02  0.30451440750E-01  0.32867349763E-01  0.00000000000E+00 0.  1.
</event>
<event>
 5   0  0.4146200E+04  0.9118800E+02  0.7546771E-02  0.1180000E+00
      -11   -1    0    0    0    0  0.00000000000E+00  0.00000000000E+00  0.34996269501E-01  0.35000000000E-01  0.51099999109E-03 0. -1.
       11   -1    0    0    0    0 -0.00000000000E+00 -0.00000000000E+00 -0.34996269501E-01  0.35000000000E-01  0.51099999109E-03 0.  1.
       22    1    1    2    0    0 -0.13399944250E-01 -0.14074844218E-01 -0.26255868527E-01  0.32665430928E-01  0.00000000000E+00 0.  1.
       22    1    1    2    0    0  0.67201910024E-02 -0.36127773250E-02  0.79031668616E-02  0.10985134207E-01  0.00000000000E+00 0. -1.
       22    1    1    2    0    0  0.66797532472E-02  0.17687621543E-01  0.18352701665E-01  0.26349434865E-01  0.00000000000E+00 0. -1.
</event>
<event>
 5   0  0.4146200E+04  0.9118800E+02  0.7546771E-02  0.1180000E+00
      -11   -1    0    0    0    0  0.00000000000E+00  0.00000000000E+00  0.34996269501E-01  0.35000000000E-01  0.51099999109E-03 0.  1.
       11   -1    0    0    0    0 -0.00000000000E+00 -0.00000000000E+00 -0.34996269501E-01  0.35000000000E-01  0.51099999109E-03 0. -1.
       22    1    1    2    0    0  0.18619007326E-01 -0.96374201408E-02  0.27612417770E-01  0.34669769481E-01  0.00000000000E+00 0.  1.
       22    1    1    2    0    0 -0.18524662776E-01  0.95794177098E-02 -0.28007924661E-01  0.34919510570E-01  0.00000000000E+00 0. -1.
       22    1    1    2    0    0 -0.94344549343E-04  0.58002431067E-04  0.39550689091E-03  0.41071994931E-03  0.00000000000E+00 0. -1.
</event>
<event>
 5   0  0.4146200E+04  0.9118800E+02  0.7546771E-02  0.1180000E+00
      -11   -1    0    0    0    0  0.00000000000E+00  0.00000000000E+00  0.34996269501E-01  0.35000000000E-01  0.51099999109E-03 0. -1.
       11   -1    0    0    0    0 -0.00000000000E+00 -0.00000000000E+00 -0.34996269501E-01  0.35000000000E-01  0.51099999109E-03 0.  1.
       22    1    1    2    0    0 -0.35872647039E-03  0.34731318885E-02 -0.14401323802E-01  0.14818551111E-01  0.00000000000E+00 0.  1.
       22    1    1    2    0    0  0.88247927020E-02  0.36424474296E-02 -0.18310957806E-01  0.20650316349E-01  0.00000000000E+00 0.  1.
       22    1    1    2    0    0 -0.84660662316E-02 -0.71155793181E-02  0.32712281608E-01  0.34531132540E-01  0.00000000000E+00 0. -1.
</event>
<event>
 5   0  0.4146200E+04  0.9118800E+02  0.7546771E-02  0.1180000E+00
      -11   -1    0    0    0    0  0.00000000000E+00  0.00000000000E+00  0.34996269501E-01  0.35000000000E-01  0.51099999109E-03 0.  1.
       11   -1    0    0    0    0 -0.00000000000E+00 -0.00000000000E+00 -0.34996269501E-01  0.35000000000E-01  0.51099999109E-03 0. -1.
       22    1    1    2    0    0 -0.80391329110E-02 -0.60170402173E-02  0.33262906162E-01  0.34745551618E-01  0.00000000000E+00 0.  1.
       22    1    1    2    0    0  0.94446621195E-04  0.23731194959E-02 -0.12552225472E-01  0.12774935640E-01  0.00000000000E+00 0.  1.
       22    1    1    2    0    0  0.79446862898E-02  0.36439207214E-02 -0.20710680690E-01  0.22479512742E-01  0.00000000000E+00 0. -1.
</event>
<event>
 5   0  0.4146200E+04  0.9118800E+02  0.7546771E-02  0.1180000E+00
      -11   -1    0    0    0    0  0.00000000000E+00  0.00000000000E+00  0.34996269501E-01  0.35000000000E-01  0.51099999109E-03 0. -1.
       11   -1    0    0    0    0 -0.00000000000E+00 -0.00000000000E+00 -0.34996269501E-01  0.35000000000E-01  0.51099999109E-03 0.  1.
       22    1    1    2    0    0 -0.16392964356E-01  0.44779590525E-02  0.29982472782E-01  0.34463459951E-01  0.00000000000E+00 0. -1.
       22    1    1    2    0    0 -0.20602038650E-03 -0.23064776941E-03  0.48884859937E-03  0.57845980526E-03  0.00000000000E+00 0. -1.
       22    1    1    2    0    0  0.16598984742E-01 -0.42473112831E-02 -0.30471321381E-01  0.34958080244E-01  0.00000000000E+00 0.  1.
</event>
<event>
 5   0  0.4146200E+04  0.9118800E+02  0.7546771E-02  0.1180000E+00
      -11   -1    0    0    0    0  0.00000000000E+00  0.00000000000E+00  0.34996269501E-01  0.35000000000E-01  0.51099999109E-03 0.  1.
       11   -1    0    0    0    0 -0.00000000000E+00 -0.00000000000E+00 -0.34996269501E-01  0.35000000000E-01  0.51099999109E-03 0. -1.
       22    1    1    2    0    0 -0.33390681434E-03 -0.13773738310E-03  0.20123778510E-03  0.41347550534E-03  0.00000000000E+00 0.  1.
       22    1    1    2    0    0  0.14474010601E-01 -0.16507454340E-01 -0.27139017331E-01  0.34907295704E-01  0.00000000000E+00 0. -1.
       22    1    1    2    0    0 -0.14140103786E-01  0.16645191723E-01  0.26937779546E-01  0.34679228790E-01  0.00000000000E+00 0.  1.
</event>
<event>
 5   0  0.4146200E+04  0.9118800E+02  0.7546771E-02  0.1180000E+00
      -11   -1    0    0    0    0  0.00000000000E+00  0.00000000000E+00  0.34996269501E-01  0.35000000000E-01  0.51099999109E-03 0.  1.
       11   -1    0    0    0    0 -0.00000000000E+00 -0.00000000000E+00 -0.34996269501E-01  0.35000000000E-01  0.51099999109E-03 0. -1.
       22    1    1    2    0    0 -0.11078604347E-01 -0.17084791069E-01 -0.27288605357E-01  0.34048399999E-01  0.00000000000E+00 0. -1.
       22    1    1    2    0    0 -0.40935119335E-03 -0.11764122971E-02  0.40729138652E-02  0.42591245164E-02  0.00000000000E+00 0.  1.
       22    1    1    2    0    0  0.11487955540E-01  0.18261203367E-01  0.23215691492E-01  0.31692475484E-01  0.00000000000E+00 0.  1.
</event>
<event>
 5   0  0.4146200E+04  0.9118800E+02  0.7546771E-02  0.1180000E+00
      -11   -1    0    0    0    0  0.00000000000E+00  0.00000000000E+00  0.34996269501E-01  0.35000000000E-01  0.51099999109E-03 0.  1.
       11   -1    0    0    0    0 -0.00000000000E+00 -0.00000000000E+00 -0.34996269501E-01  0.35000000000E-01  0.51099999109E-03 0. -1.
       22    1    1    2    0    0  0.54138187287E-02 -0.99270071768E-03  0.33807616411E-01  0.34252734421E-01  0.00000000000E+00 0.  1.
       22    1    1    2    0    0  0.20643623677E-02  0.14994237108E-02 -0.25640499621E-02  0.36172110330E-02  0.00000000000E+00 0. -1.
       22    1    1    2    0    0 -0.74781810964E-02 -0.50672299313E-03 -0.31243566449E-01  0.32130054546E-01  0.00000000000E+00 0. -1.
</event>
<event>
 5   0  0.4146200E+04  0.9118800E+02  0.7546771E-02  0.1180000E+00
      -11   -1    0    0    0    0  0.00000000000E+00  0.00000000000E+00  0.34996269501E-01  0.35000000000E-01  0.51099999109E-03 0. -1.
       11   -1    0    0    0    0 -0.00000000000E+00 -0.00000000000E+00 -0.34996269501E-01  0.35000000000E-01  0.51099999109E-03 0.  1.
       22    1    1    2    0    0  0.75209990156E-04  0.26470942401E-03  0.12364143494E-01  0.12367205503E-01  0.00000000000E+00 0. -1.
       22    1    1    2    0    0 -0.22080506928E-01 -0.28970527771E-02 -0.23883859550E-01  0.32655481133E-01  0.00000000000E+00 0. -1.
       22    1    1    2    0    0  0.22005296938E-01  0.26323433531E-02  0.11519716056E-01  0.24977313364E-01  0.00000000000E+00 0.  1.
</event>
<event>
 5   0  0.4146200E+04  0.9118800E+02  0.7546771E-02  0.1180000E+00
      -11   -1    0    0    0    0  0.00000000000E+00  0.00000000000E+00  0.34996269501E-01  0.35000000000E-01  0.51099999109E-03 0.  1.
       11   -1    0    0    0    0 -0.00000000000E+00 -0.00000000000E+00 -0.34996269501E-01  0.35000000000E-01  0.51099999109E-03 0. -1.
       22    1    1    2    0    0  0.71961163675E-03  0.52984059349E-02 -0.13863843927E-01  0.14859243413E-01  0.00000000000E+00 0.  1.
       22    1    1    2    0    0  0.27560969399E-02 -0.37100242619E-02  0.34168481290E-01  0.34479638397E-01  0.00000000000E+00 0.  1.
       22    1    1    2    0    0 -0.34757085766E-02 -0.15883816730E-02 -0.20304637362E-01  0.20661118190E-01  0.00000000000E+00 0. -1.
</event>
<event>
 5   0  0.4146200E+04  0.9118800E+02  0.7546771E-02  0.1180000E+00
      -11   -1    0    0    0    0  0.00000000000E+00  0.00000000000E+00  0.34996269501E-01  0.35000000000E-01  0.51099999109E-03 0. -1.
       11   -1    0    0    0    0 -0.00000000000E+00 -0.00000000000E+00 -0.34996269501E-01  0.35000000000E-01  0.51099999109E-03 0.  1.
       22    1    1    2    0    0 -0.11747925115E-02 -0.22708954108E-03  0.58114134388E-03  0.13302001226E-02  0.00000000000E+00 0. -1.
       22    1    1    2    0    0  0.12230971292E-01  0.14270759937E-01  0.28734305124E-01  0.34335281255E-01  0.00000000000E+00 0. -1.
       22    1    1    2    0    0 -0.11056178781E-01 -0.14043670396E-01 -0.29315446467E-01  0.34334518622E-01  0.00000000000E+00 0.  1.
</event>
<event>
 5   0  0.4146200E+04  0.9118800E+02  0.7546771E-02  0.1180000E+00
      -11   -1    0    0    0    0  0.00000000000E+00  0.00000000000E+00  0.34996269501E-01  0.35000000000E-01  0.51099999109E-03 0. -1.
       11   -1    0    0    0    0 -0.00000000000E+00 -0.00000000000E+00 -0.34996269501E-01  0.35000000000E-01  0.51099999109E-03 0. -1.
       22    1    1    2    0    0  0.62030933722E-04 -0.16491784551E-01 -0.25920600932E-01  0.30722310430E-01  0.00000000000E+00 0. -1.
       22    1    1    2    0    0  0.38315105090E-05  0.16429191856E-01  0.34256230739E-02  0.16782528211E-01  0.00000000000E+00 0.  1.
       22    1    1    2    0    0 -0.65862444231E-04  0.62592694795E-04  0.22494977858E-01  0.22495161358E-01  0.00000000000E+00 0. -1.
</event>
<event>
 5   0  0.4146200E+04  0.9118800E+02  0.7546771E-02  0.1180000E+00
      -11   -1    0    0    0    0  0.00000000000E+00  0.00000000000E+00  0.34996269501E-01  0.35000000000E-01  0.51099999109E-03 0. -1.
       11   -1    0    0    0    0 -0.00000000000E+00 -0.00000000000E+00 -0.34996269501E-01  0.35000000000E-01  0.51099999109E-03 0.  1.
       22    1    1    2    0    0  0.72512058951E-04  0.64399549020E-04 -0.12959604488E-02  0.12995840817E-02  0.00000000000E+00 0. -1.
       22    1    1    2    0    0  0.17268246203E-01 -0.10028465980E-01 -0.27288207591E-01  0.33814327294E-01  0.00000000000E+00 0.  1.
       22    1    1    2    0    0 -0.17340758262E-01  0.99640664308E-02  0.28584168040E-01  0.34886088624E-01  0.00000000000E+00 0. -1.
</event>
<event>
 5   0  0.4146200E+04  0.9118800E+02  0.7546771E-02  0.1180000E+00
      -11   -1    0    0    0    0  0.00000000000E+00  0.00000000000E+00  0.34996269501E-01  0.35000000000E-01  0.51099999109E-03 0.  1.
       11   -1    0    0    0    0 -0.00000000000E+00 -0.00000000000E+00 -0.34996269501E-01  0.35000000000E-01  0.51099999109E-03 0. -1.
       22    1    1    2    0    0 -0.32216325650E-03 -0.12027654482E-01  0.32719927665E-01  0.34862041362E-01  0.00000000000E+00 0.  1.
       22    1    1    2    0    0 -0.20571983936E-03  0.90944166257E-03 -0.51809456807E-03  0.10666896322E-02  0.00000000000E+00 0.  1.
       22    1    1    2    0    0  0.52788309586E-03  0.11118212820E-01 -0.32201833097E-01  0.34071269006E-01  0.00000000000E+00 0. -1.
</event>
<event>
 5   0  0.4146200E+04  0.9118800E+02  0.7546771E-02  0.1180000E+00
      -11   -1    0    0    0    0  0.00000000000E+00  0.00000000000E+00  0.34996269501E-01  0.35000000000E-01  0.51099999109E-03 0. -1.
       11   -1    0    0    0    0 -0.00000000000E+00 -0.00000000000E+00 -0.34996269501E-01  0.35000000000E-01  0.51099999109E-03 0.  1.
       22    1    1    2    0    0 -0.40934903397E-02  0.81291536934E-02  0.33159059209E-01  0.34385505820E-01  0.00000000000E+00 0. -1.
       22    1    1    2    0    0 -0.16409104434E-02 -0.25227880524E-03 -0.14216483973E-01  0.14313093594E-01  0.00000000000E+00 0.  1.
       22    1    1    2    0    0  0.57344007831E-02 -0.78768748881E-02 -0.18942575236E-01  0.21301400586E-01  0.00000000000E+00 0.  1.
</event>
<event>
 5   0  0.4146200E+04  0.9118800E+02  0.7546771E-02  0.1180000E+00
      -11   -1    0    0    0    0  0.00000000000E+00  0.00000000000E+00  0.34996269501E-01  0.35000000000E-01  0.51099999109E-03 0.  1.
       11   -1    0    0    0    0 -0.00000000000E+00 -0.00000000000E+00 -0.34996269501E-01  0.35000000000E-01  0.51099999109E-03 0.  1.
       22    1    1    2    0    0  0.00000000000E+00  0.00000000000E+00  0.34699971435E-01  0.34698028990E-01  0.00000000000E+00 0.  1.
       22    1    1    2    0    0 -0.15445859139E-02  0.10052103013E-02 -0.28199296410E-02  0.33687084432E-02  0.00000000000E+00 0. -1.
       22    1    1    2    0    0  0.15445859139E-02 -0.10052103013E-02 -0.31880041794E-01  0.31933262567E-01  0.00000000000E+00 0.  1.
</event>
<event>
 5   0  0.4146200E+04  0.9118800E+02  0.7546771E-02  0.1180000E+00
      -11   -1    0    0    0    0  0.00000000000E+00  0.00000000000E+00  0.34996269501E-01  0.35000000000E-01  0.51099999109E-03 0.  1.
       11   -1    0    0    0    0 -0.00000000000E+00 -0.00000000000E+00 -0.34996269501E-01  0.35000000000E-01  0.51099999109E-03 0. -1.
       22    1    1    2    0    0  0.16923462707E-03 -0.12002390460E-03 -0.57693724657E-02  0.57731018305E-02  0.00000000000E+00 0. -1.
       22    1    1    2    0    0 -0.66138394083E-02  0.13250081428E-01 -0.25622816485E-01  0.29594530816E-01  0.00000000000E+00 0. -1.
       22    1    1    2    0    0  0.64446047812E-02 -0.13130057524E-01  0.31392188951E-01  0.34632367353E-01  0.00000000000E+00 0.  1.
</event>
<event>
 5   0  0.4146200E+04  0.9118800E+02  0.7546771E-02  0.1180000E+00
      -11   -1    0    0    0    0  0.00000000000E+00  0.00000000000E+00  0.34996269501E-01  0.35000000000E-01  0.51099999109E-03 0.  1.
       11   -1    0    0    0    0 -0.00000000000E+00 -0.00000000000E+00 -0.34996269501E-01  0.35000000000E-01  0.51099999109E-03 0. -1.
       22    1    1    2    0    0  0.11426020219E-02  0.84204947815E-03 -0.15339060432E-02  0.20898455573E-02  0.00000000000E+00 0. -1.
       22    1    1    2    0    0  0.10447981550E-03  0.78689378193E-02  0.33676998954E-01  0.34584264587E-01  0.00000000000E+00 0.  1.
       22    1    1    2    0    0 -0.12470818374E-02 -0.87109872974E-02 -0.32143092911E-01  0.33325889856E-01  0.00000000000E+00 0. -1.
</event>
<event>
 5   0  0.4146200E+04  0.9118800E+02  0.7546771E-02  0.1180000E+00
      -11   -1    0    0    0    0  0.00000000000E+00  0.00000000000E+00  0.34996269501E-01  0.35000000000E-01  0.51099999109E-03 0.  1.
       11   -1    0    0    0    0 -0.00000000000E+00 -0.00000000000E+00 -0.34996269501E-01  0.35000000000E-01  0.51099999109E-03 0. -1.
       22    1    1    2    0    0  0.39034063604E-02 -0.57494893494E-02  0.13324974509E-01  0.15028245229E-01  0.00000000000E+00 0.  1.
       22    1    1    2    0    0 -0.32090214854E-02  0.21366210527E-01 -0.26736255425E-01  0.34374992732E-01  0.00000000000E+00 0.  1.
       22    1    1    2    0    0 -0.69438487493E-03 -0.15616721177E-01  0.13411280916E-01  0.20596762039E-01  0.00000000000E+00 0. -1.
</event>
<event>
 5   0  0.4146200E+04  0.9118800E+02  0.7546771E-02  0.1180000E+00
      -11   -1    0    0    0    0  0.00000000000E+00  0.00000000000E+00  0.34996269501E-01  0.35000000000E-01  0.51099999109E-03 0.  1.
       11   -1    0    0    0    0 -0.00000000000E+00 -0.00000000000E+00 -0.34996269501E-01  0.35000000000E-01  0.51099999109E-03 0. -1.
       22    1    1    2    0    0 -0.48976822222E-03  0.15118228127E-02 -0.48579674533E-02  0.51112942496E-02  0.00000000000E+00 0.  1.
       22    1    1    2    0    0  0.94096322053E-02  0.55691239113E-02  0.32874856825E-01  0.34645526849E-01  0.00000000000E+00 0.  1.
       22    1    1    2    0    0 -0.89198639831E-02 -0.70809467240E-02 -0.28016889372E-01  0.30243178901E-01  0.00000000000E+00 0. -1.
</event>
<event>
 5   0  0.4146200E+04  0.9118800E+02  0.7546771E-02  0.1180000E+00
      -11   -1    0    0    0    0  0.00000000000E+00  0.00000000000E+00  0.34996269501E-01  0.35000000000E-01  0.51099999109E-03 0.  1.
       11   -1    0    0    0    0 -0.00000000000E+00 -0.00000000000E+00 -0.34996269501E-01  0.35000000000E-01  0.51099999109E-03 0. -1.
       22    1    1    2    0    0 -0.29100461771E-03 -0.22922862888E-03  0.34928528715E-01  0.34930493092E-01  0.00000000000E+00 0.  1.
       22    1    1    2    0    0  0.46864083442E-03 -0.43755015589E-03 -0.14684887204E-02  0.16023524870E-02  0.00000000000E+00 0.  1.
       22    1    1    2    0    0 -0.17763621672E-03  0.66677878477E-03 -0.33460039995E-01  0.33467154421E-01  0.00000000000E+00 0. -1.
</event>
<event>
 5   0  0.4146200E+04  0.9118800E+02  0.7546771E-02  0.1180000E+00
      -11   -1    0    0    0    0  0.00000000000E+00  0.00000000000E+00  0.34996269501E-01  0.35000000000E-01  0.51099999109E-03 0. -1.
       11   -1    0    0    0    0 -0.00000000000E+00 -0.00000000000E+00 -0.34996269501E-01  0.35000000000E-01  0.51099999109E-03 0.  1.
       22    1    1    2    0    0  0.29886888277E-02  0.72495861082E-02 -0.27763084917E-01  0.28849222585E-01  0.00000000000E+00 0.  1.
       22    1    1    2    0    0 -0.49395204862E-02 -0.60210974349E-02  0.33801578294E-01  0.34687161488E-01  0.00000000000E+00 0. -1.
       22    1    1    2    0    0  0.19508316585E-02 -0.12284886733E-02 -0.60384933767E-02  0.64636159261E-02  0.00000000000E+00 0. -1.
</event>
<event>
 5   0  0.4146200E+04  0.9118800E+02  0.7546771E-02  0.1180000E+00
      -11   -1    0    0    0    0  0.00000000000E+00  0.00000000000E+00  0.34996269501E-01  0.35000000000E-01  0.51099999109E-03 0. -1.
       11   -1    0    0    0    0 -0.00000000000E+00 -0.00000000000E+00 -0.34996269501E-01  0.35000000000E-01  0.51099999109E-03 0.  1.
       22    1    1    2    0    0  0.83852809423E-02  0.17416117426E-01  0.15119786124E-01  0.24540619697E-01  0.00000000000E+00 0. -1.
       22    1    1    2    0    0 -0.67937212771E-02 -0.19116348585E-02  0.12149274958E-01  0.14050404927E-01  0.00000000000E+00 0. -1.
       22    1    1    2    0    0 -0.15915596652E-02 -0.15504482567E-01 -0.27269061082E-01  0.31408975376E-01  0.00000000000E+00 0.  1.
</event>
<event>
 5   0  0.4146200E+04  0.9118800E+02  0.7546771E-02  0.1180000E+00
      -11   -1    0    0    0    0  0.00000000000E+00  0.00000000000E+00  0.34996269501E-01  0.35000000000E-01  0.51099999109E-03 0.  1.
       11   -1    0    0    0    0 -0.00000000000E+00 -0.00000000000E+00 -0.34996269501E-01  0.35000000000E-01  0.51099999109E-03 0. -1.
       22    1    1    2    0    0  0.15485987468E-01 -0.34276248080E-02  0.23631186423E-01  0.28460453114E-01  0.00000000000E+00 0.  1.
       22    1    1    2    0    0 -0.15463074018E-01  0.30604972869E-02 -0.30673960210E-01  0.34487173509E-01  0.00000000000E+00 0. -1.
       22    1    1    2    0    0 -0.22913449944E-04  0.36712752109E-03  0.70427737864E-02  0.70523733770E-02  0.00000000000E+00 0.  1.
</event>
<event>
 5   0  0.4146200E+04  0.9118800E+02  0.7546771E-02  0.1180000E+00
      -11   -1    0    0    0    0  0.00000000000E+00  0.00000000000E+00  0.34996269501E-01  0.35000000000E-01  0.51099999109E-03 0.  1.
       11   -1    0    0    0    0 -0.00000000000E+00 -0.00000000000E+00 -0.34996269501E-01  0.35000000000E-01  0.51099999109E-03 0. -1.
       22    1    1    2    0    0 -0.13861612712E-02 -0.65801924191E-03  0.20781156967E-02  0.25832145171E-02  0.00000000000E+00 0. -1.
       22    1    1    2    0    0  0.15184678167E-01  0.68194376582E-02  0.28672269071E-01  0.33153856408E-01  0.00000000000E+00 0.  1.
       22    1    1    2    0    0 -0.13798516896E-01 -0.61614184163E-02 -0.30750384768E-01  0.34262929075E-01  0.00000000000E+00 0. -1.
</event>
<event>
 5   0  0.4146200E+04  0.9118800E+02  0.7546771E-02  0.1180000E+00
      -11   -1    0    0    0    0  0.00000000000E+00  0.00000000000E+00  0.34996269501E-01  0.35000000000E-01  0.51099999109E-03 0.  1.
       11   -1    0    0    0    0 -0.00000000000E+00 -0.00000000000E+00 -0.34996269501E-01  0.35000000000E-01  0.51099999109E-03 0.  1.
       22    1    1    2    0    0 -0.35863909438E-02 -0.37944552249E-02 -0.28318015244E-01  0.28795313470E-01  0.00000000000E+00 0.  1.
       22    1    1    2    0    0  0.10291818739E-03  0.12913008984E-03  0.33769038989E-01  0.33769442710E-01  0.00000000000E+00 0.  1.
       22    1    1    2    0    0  0.34834727564E-02  0.36653251351E-02 -0.54510237446E-02  0.74352438195E-02  0.00000000000E+00 0. -1.
</event>
<event>
 5   0  0.4146200E+04  0.9118800E+02  0.7546771E-02  0.1180000E+00
      -11   -1    0    0    0    0  0.00000000000E+00  0.00000000000E+00  0.34996269501E-01  0.35000000000E-01  0.51099999109E-03 0.  1.
       11   -1    0    0    0    0 -0.00000000000E+00 -0.00000000000E+00 -0.34996269501E-01  0.35000000000E-01  0.51099999109E-03 0. -1.
       22    1    1    2    0    0 -0.20017712520E-03  0.29731173548E-02 -0.29212426254E-01  0.29364014462E-01  0.00000000000E+00 0. -1.
       22    1    1    2    0    0  0.11386718444E-02 -0.91434910297E-04  0.34512075316E-01  0.34530975609E-01  0.00000000000E+00 0.  1.
       22    1    1    2    0    0 -0.93849471922E-03 -0.28816824445E-02 -0.52996490617E-02  0.61050099284E-02  0.00000000000E+00 0. -1.
</event>
<event>
 5   0  0.4146200E+04  0.9118800E+02  0.7546771E-02  0.1180000E+00
      -11   -1    0    0    0    0  0.00000000000E+00  0.00000000000E+00  0.34996269501E-01  0.35000000000E-01  0.51099999109E-03 0. -1.
       11   -1    0    0    0    0 -0.00000000000E+00 -0.00000000000E+00 -0.34996269501E-01  0.35000000000E-01  0.51099999109E-03 0.  1.
       22    1    1    2    0    0 -0.31947106790E-04  0.93166829175E-02  0.32676550233E-01  0.33978795393E-01  0.00000000000E+00 0. -1.
       22    1    1    2    0    0 -0.18338331917E-03 -0.11865024979E-01 -0.30256411541E-01  0.32500198254E-01  0.00000000000E+00 0.  1.
       22    1    1    2    0    0  0.21533042596E-03  0.25483420613E-02 -0.24201386921E-02  0.35210063537E-02  0.00000000000E+00 0. -1.
</event>
<event>
 5   0  0.4146200E+04  0.9118800E+02  0.7546771E-02  0.1180000E+00
      -11   -1    0    0    0    0  0.00000000000E+00  0.00000000000E+00  0.34996269501E-01  0.35000000000E-01  0.51099999109E-03 0. -1.
       11   -1    0    0    0    0 -0.00000000000E+00 -0.00000000000E+00 -0.34996269501E-01  0.35000000000E-01  0.51099999109E-03 0.  1.
       22    1    1    2    0    0 -0.35770964261E-02  0.16259628225E-01 -0.19802572640E-01  0.25871084477E-01  0.00000000000E+00 0.  1.
       22    1    1    2    0    0  0.32224208906E-02 -0.17082301215E-01  0.29580369723E-01  0.34310162986E-01  0.00000000000E+00 0. -1.
       22    1    1    2    0    0  0.35467553551E-03  0.82267298997E-03 -0.97777970827E-02  0.98187525366E-02  0.00000000000E+00 0.  1.
</event>
<event>
 5   0  0.4146200E+04  0.9118800E+02  0.7546771E-02  0.1180000E+00
      -11   -1    0    0    0    0  0.00000000000E+00  0.00000000000E+00  0.34996269501E-01  0.35000000000E-01  0.51099999109E-03 0. -1.
       11   -1    0    0    0    0 -0.00000000000E+00 -0.00000000000E+00 -0.34996269501E-01  0.35000000000E-01  0.51099999109E-03 0.  1.
       22    1    1    2    0    0 -0.20070567530E-01  0.22078034204E-01 -0.78373718571E-02  0.30849500368E-01  0.00000000000E+00 0.  1.
       22    1    1    2    0    0  0.38932335152E-03 -0.30504128510E-02 -0.72626761793E-02  0.78868914357E-02  0.00000000000E+00 0.  1.
       22    1    1    2    0    0  0.19681244179E-01 -0.19027621353E-01  0.15100048036E-01  0.31263608197E-01  0.00000000000E+00 0. -1.
</event>
<event>
 5   0  0.4146200E+04  0.9118800E+02  0.7546771E-02  0.1180000E+00
      -11   -1    0    0    0    0  0.00000000000E+00  0.00000000000E+00  0.34996269501E-01  0.35000000000E-01  0.51099999109E-03 0.  1.
       11   -1    0    0    0    0 -0.00000000000E+00 -0.00000000000E+00 -0.34996269501E-01  0.35000000000E-01  0.51099999109E-03 0. -1.
       22    1    1    2    0    0 -0.12962069711E-01  0.49100353109E-02 -0.30465170077E-01  0.33470140211E-01  0.00000000000E+00 0. -1.
       22    1    1    2    0    0  0.11838615396E-01 -0.49059026707E-02  0.32090176035E-01  0.34554306439E-01  0.00000000000E+00 0.  1.
       22    1    1    2    0    0  0.11234543148E-02 -0.41326401955E-05 -0.16250059579E-02  0.19755533502E-02  0.00000000000E+00 0. -1.
</event>
<event>
 5   0  0.4146200E+04  0.9118800E+02  0.7546771E-02  0.1180000E+00
      -11   -1    0    0    0    0  0.00000000000E+00  0.00000000000E+00  0.34996269501E-01  0.35000000000E-01  0.51099999109E-03 0. -1.
       11   -1    0    0    0    0 -0.00000000000E+00 -0.00000000000E+00 -0.34996269501E-01  0.35000000000E-01  0.51099999109E-03 0.  1.
       22    1    1    2    0    0  0.82811502942E-03  0.20744834220E-02  0.23235391262E-01  0.23342507643E-01  0.00000000000E+00 0. -1.
       22    1    1    2    0    0 -0.68679618110E-02  0.16816771718E-01 -0.19174447046E-01  0.26412726667E-01  0.00000000000E+00 0.  1.
       22    1    1    2    0    0  0.60398467816E-02 -0.18891255140E-01 -0.40609442158E-02  0.20244765690E-01  0.00000000000E+00 0. -1.
</event>
<event>
 5   0  0.4146200E+04  0.9118800E+02  0.7546771E-02  0.1180000E+00
      -11   -1    0    0    0    0  0.00000000000E+00  0.00000000000E+00  0.34996269501E-01  0.35000000000E-01  0.51099999109E-03 0. -1.
       11   -1    0    0    0    0 -0.00000000000E+00 -0.00000000000E+00 -0.34996269501E-01  0.35000000000E-01  0.51099999109E-03 0.  1.
       22    1    1    2    0    0 -0.26160757020E-03 -0.29104682047E-02 -0.52690946482E-02  0.60251657324E-02  0.00000000000E+00 0.  1.
       22    1    1    2    0    0  0.14034037332E-02  0.62296581970E-02  0.34220604138E-01  0.34811319005E-01  0.00000000000E+00 0. -1.
       22    1    1    2    0    0 -0.11417961630E-02 -0.33191899923E-02 -0.28951509490E-01  0.29163515262E-01  0.00000000000E+00 0.  1.
</event>
<event>
 5   0  0.4146200E+04  0.9118800E+02  0.7546771E-02  0.1180000E+00
      -11   -1    0    0    0    0  0.00000000000E+00  0.00000000000E+00  0.34996269501E-01  0.35000000000E-01  0.51099999109E-03 0. -1.
       11   -1    0    0    0    0 -0.00000000000E+00 -0.00000000000E+00 -0.34996269501E-01  0.35000000000E-01  0.51099999109E-03 0.  1.
       22    1    1    2    0    0  0.15642589554E-01 -0.95191123531E-02 -0.25307536198E-01  0.31237405404E-01  0.00000000000E+00 0.  1.
       22    1    1    2    0    0 -0.15967263260E-01  0.92174699573E-02  0.29369333364E-01  0.34676692326E-01  0.00000000000E+00 0. -1.
       22    1    1    2    0    0  0.32467370541E-03  0.30164239580E-03 -0.40617971658E-02  0.40859022708E-02  0.00000000000E+00 0.  1.
</event>
<event>
 5   0  0.4146200E+04  0.9118800E+02  0.7546771E-02  0.1180000E+00
      -11   -1    0    0    0    0  0.00000000000E+00  0.00000000000E+00  0.34996269501E-01  0.35000000000E-01  0.51099999109E-03 0. -1.
       11   -1    0    0    0    0 -0.00000000000E+00 -0.00000000000E+00 -0.34996269501E-01  0.35000000000E-01  0.51099999109E-03 0.  1.
       22    1    1    2    0    0  0.58246584772E-03  0.16243825619E-03  0.20914285861E-03  0.63983856256E-03  0.00000000000E+00 0.  1.
       22    1    1    2    0    0 -0.12169739068E-01  0.82542235244E-02 -0.31601521034E-01  0.34855284917E-01  0.00000000000E+00 0.  1.
       22    1    1    2    0    0  0.11587273220E-01 -0.84166617806E-02  0.31392378175E-01  0.34504876521E-01  0.00000000000E+00 0. -1.
</event>
<event>
 5   0  0.4146200E+04  0.9118800E+02  0.7546771E-02  0.1180000E+00
      -11   -1    0    0    0    0  0.00000000000E+00  0.00000000000E+00  0.34996269501E-01  0.35000000000E-01  0.51099999109E-03 0.  1.
       11   -1    0    0    0    0 -0.00000000000E+00 -0.00000000000E+00 -0.34996269501E-01  0.35000000000E-01  0.51099999109E-03 0. -1.
       22    1    1    2    0    0 -0.64223687575E-02 -0.14764960106E-01  0.30704249712E-01  0.34669897862E-01  0.00000000000E+00 0.  1.
       22    1    1    2    0    0 -0.34882295757E-04 -0.39895124464E-04  0.33538702352E-03  0.33954800994E-03  0.00000000000E+00 0.  1.
       22    1    1    2    0    0  0.64572510532E-02  0.14804855230E-01 -0.31039636735E-01  0.34990554128E-01  0.00000000000E+00 0. -1.
</event>
<event>
 5   0  0.4146200E+04  0.9118800E+02  0.7546771E-02  0.1180000E+00
      -11   -1    0    0    0    0  0.00000000000E+00  0.00000000000E+00  0.34996269501E-01  0.35000000000E-01  0.51099999109E-03 0.  1.
       11   -1    0    0    0    0 -0.00000000000E+00 -0.00000000000E+00 -0.34996269501E-01  0.35000000000E-01  0.51099999109E-03 0. -1.
       22    1    1    2    0    0  0.10322003781E-03 -0.14062741138E-03  0.52658623393E-02  0.52687509546E-02  0.00000000000E+00 0.  1.
       22    1    1    2    0    0  0.44959998437E-02 -0.18883992288E-01 -0.28417543160E-01  0.34414763381E-01  0.00000000000E+00 0. -1.
       22    1    1    2    0    0 -0.45992198816E-02  0.19024619699E-01  0.23151680821E-01  0.30316485664E-01  0.00000000000E+00 0.  1.
</event>
<event>
 5   0  0.4146200E+04  0.9118800E+02  0.7546771E-02  0.1180000E+00
      -11   -1    0    0    0    0  0.00000000000E+00  0.00000000000E+00  0.34996269501E-01  0.35000000000E-01  0.51099999109E-03 0.  1.
       11   -1    0    0    0    0 -0.00000000000E+00 -0.00000000000E+00 -0.34996269501E-01  0.35000000000E-01  0.51099999109E-03 0. -1.
       22    1    1    2    0    0 -0.10380266979E-01  0.11685013731E-01  0.14806201070E-01  0.21529353882E-01  0.00000000000E+00 0.  1.
       22    1    1    2    0    0  0.81662593792E-04 -0.30306933850E-03  0.14968741761E-01  0.14972032250E-01  0.00000000000E+00 0.  1.
       22    1    1    2    0    0  0.10298604386E-01 -0.11381944392E-01 -0.29774942831E-01  0.33498613867E-01  0.00000000000E+00 0. -1.
</event>
<event>
 5   0  0.4146200E+04  0.9118800E+02  0.7546771E-02  0.1180000E+00
      -11   -1    0    0    0    0  0.00000000000E+00  0.00000000000E+00  0.34996269501E-01  0.35000000000E-01  0.51099999109E-03 0.  1.
       11   -1    0    0    0    0 -0.00000000000E+00 -0.00000000000E+00 -0.34996269501E-01  0.35000000000E-01  0.51099999109E-03 0. -1.
       22    1    1    2    0    0 -0.68311571217E-02 -0.81234649928E-02  0.33183345796E-01  0.34839486640E-01  0.00000000000E+00 0.  1.
       22    1    1    2    0    0 -0.30525024644E-03  0.28345303215E-03 -0.55133529242E-02  0.55290671727E-02  0.00000000000E+00 0.  1.
       22    1    1    2    0    0  0.71364073681E-02  0.78400119607E-02 -0.27669992872E-01  0.29631446188E-01  0.00000000000E+00 0. -1.
</event>
<event>
 5   0  0.4146200E+04  0.9118800E+02  0.7546771E-02  0.1180000E+00
      -11   -1    0    0    0    0  0.00000000000E+00  0.00000000000E+00  0.34996269501E-01  0.35000000000E-01  0.51099999109E-03 0. -1.
       11   -1    0    0    0    0 -0.00000000000E+00 -0.00000000000E+00 -0.34996269501E-01  0.35000000000E-01  0.51099999109E-03 0.  1.
       22    1    1    2    0    0 -0.13306228264E-02  0.57026804829E-02  0.14184156271E-01  0.15345403577E-01  0.00000000000E+00 0. -1.
       22    1    1    2    0    0  0.82845456001E-02 -0.19293899974E-01  0.12117632558E-01  0.24243046236E-01  0.00000000000E+00 0. -1.
       22    1    1    2    0    0 -0.69539227736E-02  0.13591219491E-01 -0.26301788829E-01  0.30411550187E-01  0.00000000000E+00 0.  1.
</event>
<event>
 5   0  0.4146200E+04  0.9118800E+02  0.7546771E-02  0.1180000E+00
      -11   -1    0    0    0    0  0.00000000000E+00  0.00000000000E+00  0.34996269501E-01  0.35000000000E-01  0.51099999109E-03 0.  1.
       11   -1    0    0    0    0 -0.00000000000E+00 -0.00000000000E+00 -0.34996269501E-01  0.35000000000E-01  0.51099999109E-03 0. -1.
       22    1    1    2    0    0 -0.16440272973E-01  0.11654962486E-01  0.28231616038E-01  0.34686378740E-01  0.00000000000E+00 0.  1.
       22    1    1    2    0    0  0.13194108648E-02 -0.40873524702E-02 -0.52911467193E-02  0.68149489250E-02  0.00000000000E+00 0. -1.
       22    1    1    2    0    0  0.15120862108E-01 -0.75676100162E-02 -0.22940469319E-01  0.28498672335E-01  0.00000000000E+00 0. -1.
</event>
<event>
 5   0  0.4146200E+04  0.9118800E+02  0.7546771E-02  0.1180000E+00
      -11   -1    0    0    0    0  0.00000000000E+00  0.00000000000E+00  0.34996269501E-01  0.35000000000E-01  0.51099999109E-03 0. -1.
       11   -1    0    0    0    0 -0.00000000000E+00 -0.00000000000E+00 -0.34996269501E-01  0.35000000000E-01  0.51099999109E-03 0.  1.
       22    1    1    2    0    0  0.47131334347E-04  0.17456082450E-03  0.28315297651E-02  0.28372968923E-02  0.00000000000E+00 0. -1.
       22    1    1    2    0    0  0.24579117887E-01 -0.23887821561E-04 -0.24247581433E-01  0.34526494350E-01  0.00000000000E+00 0.  1.
       22    1    1    2    0    0 -0.24626249221E-01 -0.15067300293E-03  0.21416051668E-01  0.32636208758E-01  0.00000000000E+00 0. -1.
</event>
<event>
 5   0  0.4146200E+04  0.9118800E+02  0.7546771E-02  0.1180000E+00
      -11   -1    0    0    0    0  0.00000000000E+00  0.00000000000E+00  0.34996269501E-01  0.35000000000E-01  0.51099999109E-03 0. -1.
       11   -1    0    0    0    0 -0.00000000000E+00 -0.00000000000E+00 -0.34996269501E-01  0.35000000000E-01  0.51099999109E-03 0.  1.
       22    1    1    2    0    0 -0.13250000698E-01  0.11158515273E-02 -0.19193679825E-01  0.23349625015E-01  0.00000000000E+00 0.  1.
       22    1    1    2    0    0 -0.33981720439E-02 -0.19868971221E-02 -0.11262210917E-01  0.11930328082E-01  0.00000000000E+00 0.  1.
       22    1    1    2    0    0  0.16648172742E-01  0.87104559484E-03  0.30455890741E-01  0.34720046903E-01  0.00000000000E+00 0. -1.
</event>
<event>
 5   0  0.4146200E+04  0.9118800E+02  0.7546771E-02  0.1180000E+00
      -11   -1    0    0    0    0  0.00000000000E+00  0.00000000000E+00  0.34996269501E-01  0.35000000000E-01  0.51099999109E-03 0.  1.
       11   -1    0    0    0    0 -0.00000000000E+00 -0.00000000000E+00 -0.34996269501E-01  0.35000000000E-01  0.51099999109E-03 0. -1.
       22    1    1    2    0    0  0.28791003283E-02  0.79840164610E-02  0.25627393589E-01  0.26996241215E-01  0.00000000000E+00 0.  1.
       22    1    1    2    0    0  0.82019136218E-02  0.48176235426E-02  0.28004343799E-02  0.99158114329E-02  0.00000000000E+00 0.  1.
       22    1    1    2    0    0 -0.11081013950E-01 -0.12801640004E-01 -0.28427827969E-01  0.33087947352E-01  0.00000000000E+00 0. -1.
</event>
<event>
 5   0  0.4146200E+04  0.9118800E+02  0.7546771E-02  0.1180000E+00
      -11   -1    0    0    0    0  0.00000000000E+00  0.00000000000E+00  0.34996269501E-01  0.35000000000E-01  0.51099999109E-03 0.  1.
       11   -1    0    0    0    0 -0.00000000000E+00 -0.00000000000E+00 -0.34996269501E-01  0.35000000000E-01  0.51099999109E-03 0. -1.
       22    1    1    2    0    0  0.10094508581E-01 -0.69000096489E-02 -0.32713726019E-01  0.34924162219E-01  0.00000000000E+00 0. -1.
       22    1    1    2    0    0 -0.13477990994E-02  0.85907551316E-04  0.60453774638E-02  0.61943951440E-02  0.00000000000E+00 0.  1.
       22    1    1    2    0    0 -0.87467094816E-02  0.68141020975E-02  0.26668348555E-01  0.28881442637E-01  0.00000000000E+00 0.  1.
</event>
<event>
 5   0  0.4146200E+04  0.9118800E+02  0.7546771E-02  0.1180000E+00
      -11   -1    0    0    0    0  0.00000000000E+00  0.00000000000E+00  0.34996269501E-01  0.35000000000E-01  0.51099999109E-03 0.  1.
       11   -1    0    0    0    0 -0.00000000000E+00 -0.00000000000E+00 -0.34996269501E-01  0.35000000000E-01  0.51099999109E-03 0. -1.
       22    1    1    2    0    0  0.29860314362E-03  0.11801001765E-02  0.34903522642E-01  0.34924743279E-01  0.00000000000E+00 0.  1.
       22    1    1    2    0    0 -0.48842685961E-03 -0.53866676538E-03 -0.33620154046E-01  0.33628016307E-01  0.00000000000E+00 0. -1.
       22    1    1    2    0    0  0.18982371599E-03 -0.64143341108E-03 -0.12833685962E-02  0.14472404146E-02  0.00000000000E+00 0. -1.
</event>
<event>
 5   0  0.4146200E+04  0.9118800E+02  0.7546771E-02  0.1180000E+00
      -11   -1    0    0    0    0  0.00000000000E+00  0.00000000000E+00  0.34996269501E-01  0.35000000000E-01  0.51099999109E-03 0. -1.
       11   -1    0    0    0    0 -0.00000000000E+00 -0.00000000000E+00 -0.34996269501E-01  0.35000000000E-01  0.51099999109E-03 0.  1.
       22    1    1    2    0    0  0.83690752597E-02 -0.65369751441E-03 -0.24153016736E-01  0.25570235795E-01  0.00000000000E+00 0.  1.
       22    1    1    2    0    0 -0.10032630523E-01  0.16003080476E-01  0.21746845712E-01  0.28804123981E-01  0.00000000000E+00 0. -1.
       22    1    1    2    0    0  0.16635552633E-02 -0.15349382962E-01  0.24061710241E-02  0.15625640224E-01  0.00000000000E+00 0. -1.
</event>
<event>
 5   0  0.4146200E+04  0.9118800E+02  0.7546771E-02  0.1180000E+00
      -11   -1    0    0    0    0  0.00000000000E+00  0.00000000000E+00  0.34996269501E-01  0.35000000000E-01  0.51099999109E-03 0. -1.
       11   -1    0    0    0    0 -0.00000000000E+00 -0.00000000000E+00 -0.34996269501E-01  0.35000000000E-01  0.51099999109E-03 0.  1.
       22    1    1    2    0    0  0.76756487694E-02 -0.15064400533E-01  0.10520947131E-01  0.19913364256E-01  0.00000000000E+00 0. -1.
       22    1    1    2    0    0  0.15191484870E-02  0.54680370298E-02  0.17864293046E-01  0.18744071252E-01  0.00000000000E+00 0. -1.
       22    1    1    2    0    0 -0.91947972564E-02  0.95963635034E-02 -0.28385240176E-01  0.31342564492E-01  0.00000000000E+00 0.  1.
</event>
<event>
 5   0  0.4146200E+04  0.9118800E+02  0.7546771E-02  0.1180000E+00
      -11   -1    0    0    0    0  0.00000000000E+00  0.00000000000E+00  0.34996269501E-01  0.35000000000E-01  0.51099999109E-03 0.  1.
       11   -1    0    0    0    0 -0.00000000000E+00 -0.00000000000E+00 -0.34996269501E-01  0.35000000000E-01  0.51099999109E-03 0.  1.
       22    1    1    2    0    0  0.37887454356E-02 -0.26943076052E-02  0.34068052276E-01  0.34383805364E-01  0.00000000000E+00 0.  1.
       22    1    1    2    0    0 -0.15171928666E-03 -0.19201395263E-03 -0.27873951506E-01  0.27875025752E-01  0.00000000000E+00 0.  1.
       22    1    1    2    0    0 -0.36370261490E-02  0.28863215579E-02 -0.61941007698E-02  0.77411688840E-02  0.00000000000E+00 0. -1.
</event>
<event>
 5   0  0.4146200E+04  0.9118800E+02  0.7546771E-02  0.1180000E+00
      -11   -1    0    0    0    0  0.00000000000E+00  0.00000000000E+00  0.34996269501E-01  0.35000000000E-01  0.51099999109E-03 0. -1.
       11   -1    0    0    0    0 -0.00000000000E+00 -0.00000000000E+00 -0.34996269501E-01  0.35000000000E-01  0.51099999109E-03 0.  1.
       22    1    1    2    0    0  0.47103693824E-03  0.25348618400E-01 -0.23528035936E-01  0.34588188817E-01  0.00000000000E+00 0.  1.
       22    1    1    2    0    0 -0.29600049400E-03 -0.49199366458E-04 -0.45890477949E-03  0.54829779021E-03  0.00000000000E+00 0. -1.
       22    1    1    2    0    0 -0.17503644424E-03 -0.25299419034E-01  0.23986940716E-01  0.34863513393E-01  0.00000000000E+00 0. -1.
</event>
<event>
 5   0  0.4146200E+04  0.9118800E+02  0.7546771E-02  0.1180000E+00
      -11   -1    0    0    0    0  0.00000000000E+00  0.00000000000E+00  0.34996269501E-01  0.35000000000E-01  0.51099999109E-03 0.  1.
       11   -1    0    0    0    0 -0.00000000000E+00 -0.00000000000E+00 -0.34996269501E-01  0.35000000000E-01  0.51099999109E-03 0. -1.
       22    1    1    2    0    0 -0.12514066702E-01 -0.13423492411E-01  0.29410575322E-01  0.34666611526E-01  0.00000000000E+00 0.  1.
       22    1    1    2    0    0 -0.42213730205E-03  0.23593891414E-03  0.12229063985E-03  0.49882068280E-03  0.00000000000E+00 0. -1.
       22    1    1    2    0    0  0.12936204004E-01  0.13187553497E-01 -0.29532865962E-01  0.34834567791E-01  0.00000000000E+00 0. -1.
</event>
<event>
 5   0  0.4146200E+04  0.9118800E+02  0.7546771E-02  0.1180000E+00
      -11   -1    0    0    0    0  0.00000000000E+00  0.00000000000E+00  0.34996269501E-01  0.35000000000E-01  0.51099999109E-03 0.  1.
       11   -1    0    0    0    0 -0.00000000000E+00 -0.00000000000E+00 -0.34996269501E-01  0.35000000000E-01  0.51099999109E-03 0. -1.
       22    1    1    2    0    0  0.13655619659E-01  0.41207712085E-02 -0.26921051624E-01  0.30466370381E-01  0.00000000000E+00 0. -1.
       22    1    1    2    0    0 -0.59052196459E-02 -0.34021026368E-04  0.29746863098E-01  0.30327357958E-01  0.00000000000E+00 0.  1.
       22    1    1    2    0    0 -0.77504000134E-02 -0.40867501821E-02 -0.28258114744E-02  0.92062716616E-02  0.00000000000E+00 0.  1.
</event>
<event>
 5   0  0.4146200E+04  0.9118800E+02  0.7546771E-02  0.1180000E+00
      -11   -1    0    0    0    0  0.00000000000E+00  0.00000000000E+00  0.34996269501E-01  0.35000000000E-01  0.51099999109E-03 0.  1.
       11   -1    0    0    0    0 -0.00000000000E+00 -0.00000000000E+00 -0.34996269501E-01  0.35000000000E-01  0.51099999109E-03 0. -1.
       22    1    1    2    0    0 -0.18494294566E-03  0.43427909017E-03 -0.91403412833E-03  0.10287179444E-02  0.00000000000E+00 0. -1.
       22    1    1    2    0    0  0.16025853068E-01  0.86463390090E-02 -0.28812792557E-01  0.34084661650E-01  0.00000000000E+00 0. -1.
       22    1    1    2    0    0 -0.15840910122E-01 -0.90806180991E-02  0.29726826686E-01  0.34886620406E-01  0.00000000000E+00 0.  1.
</event>
<event>
 5   0  0.4146200E+04  0.9118800E+02  0.7546771E-02  0.1180000E+00
      -11   -1    0    0    0    0  0.00000000000E+00  0.00000000000E+00  0.34996269501E-01  0.35000000000E-01  0.51099999109E-03 0. -1.
       11   -1    0    0    0    0 -0.00000000000E+00 -0.00000000000E+00 -0.34996269501E-01  0.35000000000E-01  0.51099999109E-03 0.  1.
       22    1    1    2    0    0 -0.30699694945E-03  0.65117211543E-04 -0.80541327459E-03  0.86439454018E-03  0.00000000000E+00 0.  1.
       22    1    1    2    0    0 -0.12860191575E-01  0.94056395586E-03  0.32411171274E-01  0.34881989783E-01  0.00000000000E+00 0. -1.
       22    1    1    2    0    0  0.13167188524E-01 -0.10056811674E-02 -0.31605757999E-01  0.34253615677E-01  0.00000000000E+00 0.  1.
</event>
<event>
 5   0  0.4146200E+04  0.9118800E+02  0.7546771E-02  0.1180000E+00
      -11   -1    0    0    0    0  0.00000000000E+00  0.00000000000E+00  0.34996269501E-01  0.35000000000E-01  0.51099999109E-03 0. -1.
       11   -1    0    0    0    0 -0.00000000000E+00 -0.00000000000E+00 -0.34996269501E-01  0.35000000000E-01  0.51099999109E-03 0.  1.
       22    1    1    2    0    0  0.81751950635E-03  0.12413903666E-02  0.80282971191E-02  0.81647377678E-02  0.00000000000E+00 0.  1.
       22    1    1    2    0    0  0.47394766825E-03  0.14349288856E-01 -0.30930359578E-01  0.34100056609E-01  0.00000000000E+00 0.  1.
       22    1    1    2    0    0 -0.12914671746E-02 -0.15590679223E-01  0.22902062459E-01  0.27735205624E-01  0.00000000000E+00 0. -1.
</event>
<event>
 5   0  0.4146200E+04  0.9118800E+02  0.7546771E-02  0.1180000E+00
      -11   -1    0    0    0    0  0.00000000000E+00  0.00000000000E+00  0.34996269501E-01  0.35000000000E-01  0.51099999109E-03 0.  1.
       11   -1    0    0    0    0 -0.00000000000E+00 -0.00000000000E+00 -0.34996269501E-01  0.35000000000E-01  0.51099999109E-03 0. -1.
       22    1    1    2    0    0 -0.28667225950E-02 -0.25172957057E-02  0.25536017625E-01  0.25819432067E-01  0.00000000000E+00 0.  1.
       22    1    1    2    0    0 -0.83975524660E-02 -0.18665659168E-03  0.61715416488E-02  0.10423130740E-01  0.00000000000E+00 0.  1.
       22    1    1    2    0    0  0.11264275061E-01  0.27039522974E-02 -0.31707559274E-01  0.33757437193E-01  0.00000000000E+00 0. -1.
</event>
<event>
 5   0  0.4146200E+04  0.9118800E+02  0.7546771E-02  0.1180000E+00
      -11   -1    0    0    0    0  0.00000000000E+00  0.00000000000E+00  0.34996269501E-01  0.35000000000E-01  0.51099999109E-03 0.  1.
       11   -1    0    0    0    0 -0.00000000000E+00 -0.00000000000E+00 -0.34996269501E-01  0.35000000000E-01  0.51099999109E-03 0. -1.
       22    1    1    2    0    0  0.34882184979E-03  0.40773801882E-03 -0.62763895935E-03  0.82574671551E-03  0.00000000000E+00 0.  1.
       22    1    1    2    0    0  0.87348181713E-03  0.15643029618E-01 -0.30411073874E-01  0.34209658874E-01  0.00000000000E+00 0. -1.
       22    1    1    2    0    0 -0.12223036669E-02 -0.16050767637E-01  0.31038712833E-01  0.34964594411E-01  0.00000000000E+00 0.  1.
</event>
<event>
 5   0  0.4146200E+04  0.9118800E+02  0.7546771E-02  0.1180000E+00
      -11   -1    0    0    0    0  0.00000000000E+00  0.00000000000E+00  0.34996269501E-01  0.35000000000E-01  0.51099999109E-03 0. -1.
       11   -1    0    0    0    0 -0.00000000000E+00 -0.00000000000E+00 -0.34996269501E-01  0.35000000000E-01  0.51099999109E-03 0.  1.
       22    1    1    2    0    0  0.15584449884E-01  0.66324855849E-02 -0.26375263061E-01  0.31345166210E-01  0.00000000000E+00 0.  1.
       22    1    1    2    0    0 -0.88129290884E-02 -0.44040599887E-02 -0.14254597361E-02  0.99546671948E-02  0.00000000000E+00 0. -1.
       22    1    1    2    0    0 -0.67715207952E-02 -0.22284255962E-02  0.27800722797E-01  0.28700166595E-01  0.00000000000E+00 0. -1.
</event>
<event>
 5   0  0.4146200E+04  0.9118800E+02  0.7546771E-02  0.1180000E+00
      -11   -1    0    0    0    0  0.00000000000E+00  0.00000000000E+00  0.34996269501E-01  0.35000000000E-01  0.51099999109E-03 0.  1.
       11   -1    0    0    0    0 -0.00000000000E+00 -0.00000000000E+00 -0.34996269501E-01  0.35000000000E-01  0.51099999109E-03 0.  1.
       22    1    1    2    0    0  0.99069353460E-03 -0.21021749437E-02 -0.31288477517E-01  0.31374662365E-01  0.00000000000E+00 0.  1.
       22    1    1    2    0    0  0.44017166711E-03  0.58810737936E-03  0.34656949729E-01  0.34664734038E-01  0.00000000000E+00 0.  1.
       22    1    1    2    0    0 -0.14308652017E-02  0.15140675643E-02 -0.33684722122E-02  0.39606035978E-02  0.00000000000E+00 0. -1.
</event>
<event>
 5   0  0.4146200E+04  0.9118800E+02  0.7546771E-02  0.1180000E+00
      -11   -1    0    0    0    0  0.00000000000E+00  0.00000000000E+00  0.34996269501E-01  0.35000000000E-01  0.51099999109E-03 0.  1.
       11   -1    0    0    0    0 -0.00000000000E+00 -0.00000000000E+00 -0.34996269501E-01  0.35000000000E-01  0.51099999109E-03 0. -1.
       22    1    1    2    0    0 -0.50252051014E-02 -0.18632414724E-01  0.26514944035E-01  0.32794234584E-01  0.00000000000E+00 0.  1.
       22    1    1    2    0    0  0.87402942778E-02  0.18586555507E-01 -0.15944975590E-01  0.26001827556E-01  0.00000000000E+00 0. -1.
       22    1    1    2    0    0 -0.37150891764E-02  0.45859217496E-04 -0.10569968445E-01  0.11203937860E-01  0.00000000000E+00 0.  1.
</event>
<event>
 5   0  0.4146200E+04  0.9118800E+02  0.7546771E-02  0.1180000E+00
      -11   -1    0    0    0    0  0.00000000000E+00  0.00000000000E+00  0.34996269501E-01  0.35000000000E-01  0.51099999109E-03 0.  1.
       11   -1    0    0    0    0 -0.00000000000E+00 -0.00000000000E+00 -0.34996269501E-01  0.35000000000E-01  0.51099999109E-03 0. -1.
       22    1    1    2    0    0 -0.16596946072E-01  0.40069401938E-02 -0.23212150899E-01  0.28815241418E-01  0.00000000000E+00 0. -1.
       22    1    1    2    0    0  0.13422803186E-01 -0.15761601485E-02 -0.36719828205E-02  0.14004977116E-01  0.00000000000E+00 0.  1.
       22    1    1    2    0    0  0.31741428862E-02 -0.24307800453E-02  0.26884133720E-01  0.27179781466E-01  0.00000000000E+00 0.  1.
</event>
<event>
 5   0  0.4146200E+04  0.9118800E+02  0.7546771E-02  0.1180000E+00
      -11   -1    0    0    0    0  0.00000000000E+00  0.00000000000E+00  0.34996269501E-01  0.35000000000E-01  0.51099999109E-03 0. -1.
       11   -1    0    0    0    0 -0.00000000000E+00 -0.00000000000E+00 -0.34996269501E-01  0.35000000000E-01  0.51099999109E-03 0.  1.
       22    1    1    2    0    0 -0.38617910025E-02 -0.63297960935E-03  0.34504136413E-01  0.34725344096E-01  0.00000000000E+00 0. -1.
       22    1    1    2    0    0  0.51727276202E-02  0.11433946715E-02 -0.31676118927E-01  0.32116054750E-01  0.00000000000E+00 0.  1.
       22    1    1    2    0    0 -0.13109366177E-02 -0.51041506220E-03 -0.28280174865E-02  0.31586011548E-02  0.00000000000E+00 0. -1.
</event>
<event>
 5   0  0.4146200E+04  0.9118800E+02  0.7546771E-02  0.1180000E+00
      -11   -1    0    0    0    0  0.00000000000E+00  0.00000000000E+00  0.34996269501E-01  0.35000000000E-01  0.51099999109E-03 0.  1.
       11   -1    0    0    0    0 -0.00000000000E+00 -0.00000000000E+00 -0.34996269501E-01  0.35000000000E-01  0.51099999109E-03 0.  1.
       22    1    1    2    0    0  0.00000000000E+00  0.00000000000E+00  0.34519998235E-01  0.34517300423E-01  0.00000000000E+00 0.  1.
       22    1    1    2    0    0 -0.34361361456E-02  0.10514614528E-02 -0.86856038136E-02  0.93995912893E-02  0.00000000000E+00 0.  1.
       22    1    1    2    0    0  0.34361361456E-02 -0.10514614528E-02 -0.25834394422E-01  0.26083108287E-01  0.00000000000E+00 0. -1.
</event>
<event>
 5   0  0.4146200E+04  0.9118800E+02  0.7546771E-02  0.1180000E+00
      -11   -1    0    0    0    0  0.00000000000E+00  0.00000000000E+00  0.34996269501E-01  0.35000000000E-01  0.51099999109E-03 0.  1.
       11   -1    0    0    0    0 -0.00000000000E+00 -0.00000000000E+00 -0.34996269501E-01  0.35000000000E-01  0.51099999109E-03 0. -1.
       22    1    1    2    0    0  0.63810251088E-02  0.20356751479E-01  0.27213539147E-01  0.34578772753E-01  0.00000000000E+00 0.  1.
       22    1    1    2    0    0  0.61891221379E-03  0.39878429154E-03 -0.12647309447E-02  0.14634293977E-02  0.00000000000E+00 0. -1.
       22    1    1    2    0    0 -0.69999373226E-02 -0.20755535770E-01 -0.25948808202E-01  0.33957797849E-01  0.00000000000E+00 0. -1.
</event>
<event>
 5   0  0.4146200E+04  0.9118800E+02  0.7546771E-02  0.1180000E+00
      -11   -1    0    0    0    0  0.00000000000E+00  0.00000000000E+00  0.34996269501E-01  0.35000000000E-01  0.51099999109E-03 0.  1.
       11   -1    0    0    0    0 -0.00000000000E+00 -0.00000000000E+00 -0.34996269501E-01  0.35000000000E-01  0.51099999109E-03 0. -1.
       22    1    1    2    0    0 -0.13047709484E-01 -0.34971947359E-02 -0.31842520833E-01  0.34589293529E-01  0.00000000000E+00 0. -1.
       22    1    1    2    0    0  0.13283047800E-01  0.39494806236E-02  0.32004403728E-01  0.34875774028E-01  0.00000000000E+00 0.  1.
       22    1    1    2    0    0 -0.23533831612E-03 -0.45228588773E-03 -0.16188289503E-03  0.53493244338E-03  0.00000000000E+00 0.  1.
</event>
<event>
 5   0  0.4146200E+04  0.9118800E+02  0.7546771E-02  0.1180000E+00
      -11   -1    0    0    0    0  0.00000000000E+00  0.00000000000E+00  0.34996269501E-01  0.35000000000E-01  0.51099999109E-03 0. -1.
       11   -1    0    0    0    0 -0.00000000000E+00 -0.00000000000E+00 -0.34996269501E-01  0.35000000000E-01  0.51099999109E-03 0.  1.
       22    1    1    2    0    0 -0.91776287547E-02 -0.26359660584E-01  0.18016166525E-01  0.33221120269E-01  0.00000000000E+00 0. -1.
       22    1    1    2    0    0  0.67497106547E-02  0.17172320217E-01 -0.25499429530E-02  0.18626577373E-01  0.00000000000E+00 0.  1.
       22    1    1    2    0    0  0.24279181000E-02  0.91873403662E-02 -0.15466223572E-01  0.18152302358E-01  0.00000000000E+00 0.  1.
</event>
<event>
 5   0  0.4146200E+04  0.9118800E+02  0.7546771E-02  0.1180000E+00
      -11   -1    0    0    0    0  0.00000000000E+00  0.00000000000E+00  0.34996269501E-01  0.35000000000E-01  0.51099999109E-03 0.  1.
       11   -1    0    0    0    0 -0.00000000000E+00 -0.00000000000E+00 -0.34996269501E-01  0.35000000000E-01  0.51099999109E-03 0. -1.
       22    1    1    2    0    0  0.12235830604E-01  0.15442274791E-01 -0.28698922936E-01  0.34811026686E-01  0.00000000000E+00 0. -1.
       22    1    1    2    0    0 -0.46084144032E-04 -0.85854319332E-04  0.23182821417E-02  0.23203290286E-02  0.00000000000E+00 0. -1.
       22    1    1    2    0    0 -0.12189746460E-01 -0.15356420472E-01  0.26380640794E-01  0.32868644285E-01  0.00000000000E+00 0.  1.
</event>
<event>
 5   0  0.4146200E+04  0.9118800E+02  0.7546771E-02  0.1180000E+00
      -11   -1    0    0    0    0  0.00000000000E+00  0.00000000000E+00  0.34996269501E-01  0.35000000000E-01  0.51099999109E-03 0.  1.
       11   -1    0    0    0    0 -0.00000000000E+00 -0.00000000000E+00 -0.34996269501E-01  0.35000000000E-01  0.51099999109E-03 0. -1.
       22    1    1    2    0    0  0.10233354006E-02  0.43447237771E-02 -0.85696767437E-02  0.96624634298E-02  0.00000000000E+00 0.  1.
       22    1    1    2    0    0  0.34195561897E-02  0.22382522946E-01  0.20675692970E-01  0.30661946737E-01  0.00000000000E+00 0. -1.
       22    1    1    2    0    0 -0.44428915903E-02 -0.26727246723E-01 -0.12106016226E-01  0.29675589833E-01  0.00000000000E+00 0.  1.
</event>
<event>
 5   0  0.4146200E+04  0.9118800E+02  0.7546771E-02  0.1180000E+00
      -11   -1    0    0    0    0  0.00000000000E+00  0.00000000000E+00  0.34996269501E-01  0.35000000000E-01  0.51099999109E-03 0.  1.
       11   -1    0    0    0    0 -0.00000000000E+00 -0.00000000000E+00 -0.34996269501E-01  0.35000000000E-01  0.51099999109E-03 0. -1.
       22    1    1    2    0    0 -0.81013533493E-04  0.28786728503E-03  0.19077801441E-02  0.19310763435E-02  0.00000000000E+00 0.  1.
       22    1    1    2    0    0  0.87180141342E-02 -0.89497668513E-02  0.30752227411E-01  0.33193396751E-01  0.00000000000E+00 0.  1.
       22    1    1    2    0    0 -0.86370006007E-02  0.86618995663E-02 -0.32660007555E-01  0.34875526906E-01  0.00000000000E+00 0. -1.
</event>
<event>
 5   0  0.4146200E+04  0.9118800E+02  0.7546771E-02  0.1180000E+00
      -11   -1    0    0    0    0  0.00000000000E+00  0.00000000000E+00  0.34996269501E-01  0.35000000000E-01  0.51099999109E-03 0. -1.
       11   -1    0    0    0    0 -0.00000000000E+00 -0.00000000000E+00 -0.34996269501E-01  0.35000000000E-01  0.51099999109E-03 0.  1.
       22    1    1    2    0    0  0.32535801745E-02  0.29360817179E-04  0.34647246577E-01  0.34799688812E-01  0.00000000000E+00 0. -1.
       22    1    1    2    0    0 -0.16113507795E-02 -0.10955065827E-02 -0.36177247982E-02  0.41090776000E-02  0.00000000000E+00 0.  1.
       22    1    1    2    0    0 -0.16422293949E-02  0.10661457655E-02 -0.31029521779E-01  0.31091233588E-01  0.00000000000E+00 0.  1.
</event>
<event>
 5   0  0.4146200E+04  0.9118800E+02  0.7546771E-02  0.1180000E+00
      -11   -1    0    0    0    0  0.00000000000E+00  0.00000000000E+00  0.34996269501E-01  0.35000000000E-01  0.51099999109E-03 0.  1.
       11   -1    0    0    0    0 -0.00000000000E+00 -0.00000000000E+00 -0.34996269501E-01  0.35000000000E-01  0.51099999109E-03 0. -1.
       22    1    1    2    0    0 -0.84624464243E-03  0.52288928647E-03  0.77789815163E-02  0.78423272459E-02  0.00000000000E+00 0.  1.
       22    1    1    2    0    0  0.20149224941E-01  0.84339826213E-04  0.19957343619E-01  0.28360076573E-01  0.00000000000E+00 0.  1.
       22    1    1    2    0    0 -0.19302980298E-01 -0.60722911268E-03 -0.27736325135E-01  0.33797596181E-01  0.00000000000E+00 0. -1.
</event>
<event>
 5   0  0.4146200E+04  0.9118800E+02  0.7546771E-02  0.1180000E+00
      -11   -1    0    0    0    0  0.00000000000E+00  0.00000000000E+00  0.34996269501E-01  0.35000000000E-01  0.51099999109E-03 0. -1.
       11   -1    0    0    0    0 -0.00000000000E+00 -0.00000000000E+00 -0.34996269501E-01  0.35000000000E-01  0.51099999109E-03 0.  1.
       22    1    1    2    0    0 -0.15159577359E-01 -0.47510165820E-02 -0.30858750631E-01  0.34708031272E-01  0.00000000000E+00 0.  1.
       22    1    1    2    0    0  0.70569273815E-05 -0.37351426237E-04 -0.30664066682E-03  0.30898774702E-03  0.00000000000E+00 0.  1.
       22    1    1    2    0    0  0.15152520432E-01  0.47883680083E-02  0.31165391297E-01  0.34982980981E-01  0.00000000000E+00 0. -1.
</event>
<event>
 5   0  0.4146200E+04  0.9118800E+02  0.7546771E-02  0.1180000E+00
      -11   -1    0    0    0    0  0.00000000000E+00  0.00000000000E+00  0.34996269501E-01  0.35000000000E-01  0.51099999109E-03 0.  1.
       11   -1    0    0    0    0 -0.00000000000E+00 -0.00000000000E+00 -0.34996269501E-01  0.35000000000E-01  0.51099999109E-03 0. -1.
       22    1    1    2    0    0  0.47859354731E-02  0.27789709741E-02  0.28680588231E-01  0.29209655926E-01  0.00000000000E+00 0.  1.
       22    1    1    2    0    0  0.44713012205E-02 -0.98553582506E-02 -0.26909799252E-01  0.29004446497E-01  0.00000000000E+00 0.  1.
       22    1    1    2    0    0 -0.92572366935E-02  0.70763872765E-02 -0.17707889789E-02  0.11785897577E-01  0.00000000000E+00 0. -1.
</event>
<event>
 5   0  0.4146200E+04  0.9118800E+02  0.7546771E-02  0.1180000E+00
      -11   -1    0    0    0    0  0.00000000000E+00  0.00000000000E+00  0.34996269501E-01  0.35000000000E-01  0.51099999109E-03 0.  1.
       11   -1    0    0    0    0 -0.00000000000E+00 -0.00000000000E+00 -0.34996269501E-01  0.35000000000E-01  0.51099999109E-03 0. -1.
       22    1    1    2    0    0  0.13920798067E-01 -0.12639945340E-01  0.29186607707E-01  0.34719085622E-01  0.00000000000E+00 0.  1.
       22    1    1    2    0    0  0.99371735315E-05  0.44443818242E-04  0.30976780871E-03  0.31309758177E-03  0.00000000000E+00 0.  1.
       22    1    1    2    0    0 -0.13930735240E-01  0.12595501521E-01 -0.29496375516E-01  0.34967816796E-01  0.00000000000E+00 0. -1.
</event>
<event>
 5   0  0.4146200E+04  0.9118800E+02  0.7546771E-02  0.1180000E+00
      -11   -1    0    0    0    0  0.00000000000E+00  0.00000000000E+00  0.34996269501E-01  0.35000000000E-01  0.51099999109E-03 0. -1.
       11   -1    0    0    0    0 -0.00000000000E+00 -0.00000000000E+00 -0.34996269501E-01  0.35000000000E-01  0.51099999109E-03 0.  1.
       22    1    1    2    0    0 -0.10090056099E-01 -0.54416680558E-02 -0.33974233429E-02  0.11956733194E-01  0.00000000000E+00 0. -1.
       22    1    1    2    0    0  0.10426463692E-01 -0.51923033529E-02 -0.25074843648E-01  0.27648127300E-01  0.00000000000E+00 0.  1.
       22    1    1    2    0    0 -0.33640759280E-03  0.10633971409E-01  0.28472266991E-01  0.30395139506E-01  0.00000000000E+00 0. -1.
</event>
<event>
 5   0  0.4146200E+04  0.9118800E+02  0.7546771E-02  0.1180000E+00
      -11   -1    0    0    0    0  0.00000000000E+00  0.00000000000E+00  0.34996269501E-01  0.35000000000E-01  0.51099999109E-03 0. -1.
       11   -1    0    0    0    0 -0.00000000000E+00 -0.00000000000E+00 -0.34996269501E-01  0.35000000000E-01  0.51099999109E-03 0.  1.
       22    1    1    2    0    0 -0.42742038616E-03  0.22428365125E-03 -0.32926441901E-03  0.58429992328E-03  0.00000000000E+00 0.  1.
       22    1    1    2    0    0  0.13463605627E-01 -0.15599987925E-01 -0.27926583490E-01  0.34706229487E-01  0.00000000000E+00 0.  1.
       22    1    1    2    0    0 -0.13036185241E-01  0.15375704274E-01  0.28255847909E-01  0.34709470590E-01  0.00000000000E+00 0. -1.
</event>
<event>
 5   0  0.4146200E+04  0.9118800E+02  0.7546771E-02  0.1180000E+00
      -11   -1    0    0    0    0  0.00000000000E+00  0.00000000000E+00  0.34996269501E-01  0.35000000000E-01  0.51099999109E-03 0.  1.
       11   -1    0    0    0    0 -0.00000000000E+00 -0.00000000000E+00 -0.34996269501E-01  0.35000000000E-01  0.51099999109E-03 0. -1.
       22    1    1    2    0    0  0.42238626182E-02 -0.28960985954E-02  0.34332246305E-01  0.34712123802E-01  0.00000000000E+00 0.  1.
       22    1    1    2    0    0  0.63005670882E-03  0.75331339273E-04 -0.18120285514E-01  0.18131392483E-01  0.00000000000E+00 0. -1.
       22    1    1    2    0    0 -0.48539193270E-02  0.28207672561E-02 -0.16211960791E-01  0.17156483714E-01  0.00000000000E+00 0. -1.
</event>
<event>
 5   0  0.4146200E+04  0.9118800E+02  0.7546771E-02  0.1180000E+00
      -11   -1    0    0    0    0  0.00000000000E+00  0.00000000000E+00  0.34996269501E-01  0.35000000000E-01  0.51099999109E-03 0.  1.
       11   -1    0    0    0    0 -0.00000000000E+00 -0.00000000000E+00 -0.34996269501E-01  0.35000000000E-01  0.51099999109E-03 0. -1.
       22    1    1    2    0    0 -0.33113129091E-02  0.22329730231E-02  0.34756080449E-01  0.34984797982E-01  0.00000000000E+00 0.  1.
       22    1    1    2    0    0 -0.68088885934E-04 -0.14679971923E-03 -0.41816637953E-03  0.44838529740E-03  0.00000000000E+00 0.  1.
       22    1    1    2    0    0  0.33794017950E-02 -0.20861733039E-02 -0.34337914069E-01  0.34566816720E-01  0.00000000000E+00 0. -1.
</event>
<event>
 5   0  0.4146200E+04  0.9118800E+02  0.7546771E-02  0.1180000E+00
      -11   -1    0    0    0    0  0.00000000000E+00  0.00000000000E+00  0.34996269501E-01  0.35000000000E-01  0.51099999109E-03 0. -1.
       11   -1    0    0    0    0 -0.00000000000E+00 -0.00000000000E+00 -0.34996269501E-01  0.35000000000E-01  0.51099999109E-03 0.  1.
       22    1    1    2    0    0 -0.15010832074E-03  0.16365053496E-01 -0.30904100588E-01  0.34970000594E-01  0.00000000000E+00 0.  1.
       22    1    1    2    0    0  0.11958173944E-04  0.11576712285E-04  0.46093641153E-03  0.46123680867E-03  0.00000000000E+00 0. -1.
       22    1    1    2    0    0  0.13815014679E-03 -0.16376630208E-01  0.30443164176E-01  0.34568762597E-01  0.00000000000E+00 0. -1.
</event>
<event>
 5   0  0.4146200E+04  0.9118800E+02  0.7546771E-02  0.1180000E+00
      -11   -1    0    0    0    0  0.00000000000E+00  0.00000000000E+00  0.34996269501E-01  0.35000000000E-01  0.51099999109E-03 0.  1.
       11   -1    0    0    0    0 -0.00000000000E+00 -0.00000000000E+00 -0.34996269501E-01  0.35000000000E-01  0.51099999109E-03 0. -1.
       22    1    1    2    0    0  0.71400538719E-02  0.61507545950E-02  0.27334665631E-01  0.28913597087E-01  0.00000000000E+00 0.  1.
       22    1    1    2    0    0  0.85629769965E-02  0.34078161627E-02 -0.18546935606E-01  0.20710543364E-01  0.00000000000E+00 0.  1.
       22    1    1    2    0    0 -0.15703030868E-01 -0.95585707578E-02 -0.87877300245E-02  0.20375859549E-01  0.00000000000E+00 0. -1.
</event>
<event>
 5   0  0.4146200E+04  0.9118800E+02  0.7546771E-02  0.1180000E+00
      -11   -1    0    0    0    0  0.00000000000E+00  0.00000000000E+00  0.34996269501E-01  0.35000000000E-01  0.51099999109E-03 0. -1.
       11   -1    0    0    0    0 -0.00000000000E+00 -0.00000000000E+00 -0.34996269501E-01  0.35000000000E-01  0.51099999109E-03 0.  1.
       22    1    1    2    0    0 -0.23200258075E-01  0.42181471631E-02  0.22891748582E-01  0.32864523325E-01  0.00000000000E+00 0. -1.
       22    1    1    2    0    0 -0.12239255384E-02 -0.70540725769E-04  0.17870288543E-02  0.21671275559E-02  0.00000000000E+00 0.  1.
       22    1    1    2    0    0  0.24424183614E-01 -0.41476064373E-02 -0.24678777436E-01  0.34968349119E-01  0.00000000000E+00 0.  1.
</event>
<event>
 5   0  0.4146200E+04  0.9118800E+02  0.7546771E-02  0.1180000E+00
      -11   -1    0    0    0    0  0.00000000000E+00  0.00000000000E+00  0.34996269501E-01  0.35000000000E-01  0.51099999109E-03 0.  1.
       11   -1    0    0    0    0 -0.00000000000E+00 -0.00000000000E+00 -0.34996269501E-01  0.35000000000E-01  0.51099999109E-03 0.  1.
       22    1    1    2    0    0 -0.11911552894E-02 -0.20367255195E-02 -0.31004782718E-01  0.31094431224E-01  0.00000000000E+00 0.  1.
       22    1    1    2    0    0  0.57789582031E-04  0.22032770055E-03  0.34664687833E-01  0.34665436194E-01  0.00000000000E+00 0.  1.
       22    1    1    2    0    0  0.11333657074E-02  0.18163978189E-02 -0.36599051152E-02  0.42401325823E-02  0.00000000000E+00 0. -1.
</event>
<event>
 5   0  0.4146200E+04  0.9118800E+02  0.7546771E-02  0.1180000E+00
      -11   -1    0    0    0    0  0.00000000000E+00  0.00000000000E+00  0.34996269501E-01  0.35000000000E-01  0.51099999109E-03 0. -1.
       11   -1    0    0    0    0 -0.00000000000E+00 -0.00000000000E+00 -0.34996269501E-01  0.35000000000E-01  0.51099999109E-03 0.  1.
       22    1    1    2    0    0 -0.36798033534E-02  0.12117820572E-01  0.27881960124E-01  0.30623295519E-01  0.00000000000E+00 0. -1.
       22    1    1    2    0    0  0.31846991951E-02 -0.13096409680E-01 -0.32207704266E-01  0.34914101299E-01  0.00000000000E+00 0.  1.
       22    1    1    2    0    0  0.49510415835E-03  0.97858910849E-03  0.43257441420E-02  0.44626031812E-02  0.00000000000E+00 0. -1.
</event>
<event>
 5   0  0.4146200E+04  0.9118800E+02  0.7546771E-02  0.1180000E+00
      -11   -1    0    0    0    0  0.00000000000E+00  0.00000000000E+00  0.34996269501E-01  0.35000000000E-01  0.51099999109E-03 0.  1.
       11   -1    0    0    0    0 -0.00000000000E+00 -0.00000000000E+00 -0.34996269501E-01  0.35000000000E-01  0.51099999109E-03 0. -1.
       22    1    1    2    0    0  0.31507795371E-02  0.82963321431E-02 -0.10953497177E-01  0.14097362843E-01  0.00000000000E+00 0. -1.
       22    1    1    2    0    0 -0.54614672104E-02  0.66362476125E-02 -0.19828993503E-01  0.21611487451E-01  0.00000000000E+00 0. -1.
       22    1    1    2    0    0  0.23106876732E-02 -0.14932579756E-01  0.30782490681E-01  0.34291149706E-01  0.00000000000E+00 0.  1.
</event>
<event>
 5   0  0.4146200E+04  0.9118800E+02  0.7546771E-02  0.1180000E+00
      -11   -1    0    0    0    0  0.00000000000E+00  0.00000000000E+00  0.34996269501E-01  0.35000000000E-01  0.51099999109E-03 0.  1.
       11   -1    0    0    0    0 -0.00000000000E+00 -0.00000000000E+00 -0.34996269501E-01  0.35000000000E-01  0.51099999109E-03 0. -1.
       22    1    1    2    0    0 -0.55589647729E-02  0.20757380125E-02 -0.16229645203E-01  0.17280398175E-01  0.00000000000E+00 0. -1.
       22    1    1    2    0    0  0.47751487162E-02 -0.89389084315E-02 -0.16448173916E-01  0.19319641673E-01  0.00000000000E+00 0.  1.
       22    1    1    2    0    0  0.78381605666E-03  0.68631704191E-02  0.32677819119E-01  0.33399960153E-01  0.00000000000E+00 0.  1.
</event>
<event>
 5   0  0.4146200E+04  0.9118800E+02  0.7546771E-02  0.1180000E+00
      -11   -1    0    0    0    0  0.00000000000E+00  0.00000000000E+00  0.34996269501E-01  0.35000000000E-01  0.51099999109E-03 0.  1.
       11   -1    0    0    0    0 -0.00000000000E+00 -0.00000000000E+00 -0.34996269501E-01  0.35000000000E-01  0.51099999109E-03 0. -1.
       22    1    1    2    0    0 -0.39757819391E-02  0.29878861692E-02 -0.27117107355E-01  0.27569400013E-01  0.00000000000E+00 0. -1.
       22    1    1    2    0    0  0.74306733974E-02 -0.63839073338E-02  0.33222471118E-01  0.34636711264E-01  0.00000000000E+00 0.  1.
       22    1    1    2    0    0 -0.34548914583E-02  0.33960211647E-02 -0.61053637631E-02  0.77938887225E-02  0.00000000000E+00 0. -1.
</event>
<event>
 5   0  0.4146200E+04  0.9118800E+02  0.7546771E-02  0.1180000E+00
      -11   -1    0    0    0    0  0.00000000000E+00  0.00000000000E+00  0.34996269501E-01  0.35000000000E-01  0.51099999109E-03 0. -1.
       11   -1    0    0    0    0 -0.00000000000E+00 -0.00000000000E+00 -0.34996269501E-01  0.35000000000E-01  0.51099999109E-03 0.  1.
       22    1    1    2    0    0 -0.29048082422E-03 -0.12316412160E-02 -0.32776825907E-01  0.32801244424E-01  0.00000000000E+00 0.  1.
       22    1    1    2    0    0  0.17629248294E-02  0.17967944055E-02  0.34654943163E-01  0.34746243822E-01  0.00000000000E+00 0. -1.
       22    1    1    2    0    0 -0.14724440051E-02 -0.56515318950E-03 -0.18781172559E-02  0.24525117539E-02  0.00000000000E+00 0.  1.
</event>
<event>
 5   0  0.4146200E+04  0.9118800E+02  0.7546771E-02  0.1180000E+00
      -11   -1    0    0    0    0  0.00000000000E+00  0.00000000000E+00  0.34996269501E-01  0.35000000000E-01  0.51099999109E-03 0. -1.
       11   -1    0    0    0    0 -0.00000000000E+00 -0.00000000000E+00 -0.34996269501E-01  0.35000000000E-01  0.51099999109E-03 0.  1.
       22    1    1    2    0    0  0.31301370459E-03 -0.10531686158E-03 -0.33025737296E-03  0.46705369390E-03  0.00000000000E+00 0.  1.
       22    1    1    2    0    0  0.17307160809E-01  0.17641111732E-01  0.24543886148E-01  0.34830288337E-01  0.00000000000E+00 0. -1.
       22    1    1    2    0    0 -0.17620174514E-01 -0.17535794871E-01 -0.24213628775E-01  0.34702657969E-01  0.00000000000E+00 0.  1.
</event>
<event>
 5   0  0.4146200E+04  0.9118800E+02  0.7546771E-02  0.1180000E+00
      -11   -1    0    0    0    0  0.00000000000E+00  0.00000000000E+00  0.34996269501E-01  0.35000000000E-01  0.51099999109E-03 0. -1.
       11   -1    0    0    0    0 -0.00000000000E+00 -0.00000000000E+00 -0.34996269501E-01  0.35000000000E-01  0.51099999109E-03 0.  1.
       22    1    1    2    0    0  0.11296450723E-01  0.76414557306E-02  0.32158430777E-01  0.34930879099E-01  0.00000000000E+00 0. -1.
       22    1    1    2    0    0  0.20057110831E-03 -0.36978320936E-04 -0.44865623847E-03  0.49283728149E-03  0.00000000000E+00 0. -1.
       22    1    1    2    0    0 -0.11497021832E-01 -0.76044774097E-02 -0.31709774538E-01  0.34576283619E-01  0.00000000000E+00 0.  1.
</event>
<event>
 5   0  0.4146200E+04  0.9118800E+02  0.7546771E-02  0.1180000E+00
      -11   -1    0    0    0    0  0.00000000000E+00  0.00000000000E+00  0.34996269501E-01  0.35000000000E-01  0.51099999109E-03 0.  1.
       11   -1    0    0    0    0 -0.00000000000E+00 -0.00000000000E+00 -0.34996269501E-01  0.35000000000E-01  0.51099999109E-03 0. -1.
       22    1    1    2    0    0  0.32432557264E-03 -0.13685294985E-01  0.93574000201E-03  0.13721082146E-01  0.00000000000E+00 0.  1.
       22    1    1    2    0    0  0.99483314270E-03  0.13324835045E-01 -0.27028173300E-01  0.30150672860E-01  0.00000000000E+00 0. -1.
       22    1    1    2    0    0 -0.13191587153E-02  0.36045993976E-03  0.26092433298E-01  0.26128244994E-01  0.00000000000E+00 0.  1.
</event>
<event>
 5   0  0.4146200E+04  0.9118800E+02  0.7546771E-02  0.1180000E+00
      -11   -1    0    0    0    0  0.00000000000E+00  0.00000000000E+00  0.34996269501E-01  0.35000000000E-01  0.51099999109E-03 0. -1.
       11   -1    0    0    0    0 -0.00000000000E+00 -0.00000000000E+00 -0.34996269501E-01  0.35000000000E-01  0.51099999109E-03 0.  1.
       22    1    1    2    0    0 -0.64988060376E-04  0.12862656629E-02 -0.74988249276E-03  0.14903108925E-02  0.00000000000E+00 0.  1.
       22    1    1    2    0    0  0.18449207721E-01 -0.62571125673E-02 -0.27947876908E-01  0.34067705336E-01  0.00000000000E+00 0.  1.
       22    1    1    2    0    0 -0.18384219660E-01  0.49708469044E-02  0.28697759401E-01  0.34441983771E-01  0.00000000000E+00 0. -1.
</event>
<event>
 5   0  0.4146200E+04  0.9118800E+02  0.7546771E-02  0.1180000E+00
      -11   -1    0    0    0    0  0.00000000000E+00  0.00000000000E+00  0.34996269501E-01  0.35000000000E-01  0.51099999109E-03 0. -1.
       11   -1    0    0    0    0 -0.00000000000E+00 -0.00000000000E+00 -0.34996269501E-01  0.35000000000E-01  0.51099999109E-03 0.  1.
       22    1    1    2    0    0  0.80274214943E-02 -0.51038422785E-04 -0.32914295508E-01  0.33879093104E-01  0.00000000000E+00 0.  1.
       22    1    1    2    0    0 -0.83388582659E-02 -0.48133788894E-03  0.33924302591E-01  0.34937466273E-01  0.00000000000E+00 0. -1.
       22    1    1    2    0    0  0.31143677155E-03  0.53237631172E-03 -0.10100070829E-02  0.11834406227E-02  0.00000000000E+00 0.  1.
</event>
<event>
 5   0  0.4146200E+04  0.9118800E+02  0.7546771E-02  0.1180000E+00
      -11   -1    0    0    0    0  0.00000000000E+00  0.00000000000E+00  0.34996269501E-01  0.35000000000E-01  0.51099999109E-03 0.  1.
       11   -1    0    0    0    0 -0.00000000000E+00 -0.00000000000E+00 -0.34996269501E-01  0.35000000000E-01  0.51099999109E-03 0. -1.
       22    1    1    2    0    0  0.31614125688E-03  0.55711319282E-03 -0.16824328962E-02  0.18002502198E-02  0.00000000000E+00 0.  1.
       22    1    1    2    0    0 -0.57812647764E-02 -0.95613214371E-03  0.34466405337E-01  0.34960982652E-01  0.00000000000E+00 0.  1.
       22    1    1    2    0    0  0.54651235195E-02  0.39901895089E-03 -0.32783972441E-01  0.33238767129E-01  0.00000000000E+00 0. -1.
</event>
<event>
 5   0  0.4146200E+04  0.9118800E+02  0.7546771E-02  0.1180000E+00
      -11   -1    0    0    0    0  0.00000000000E+00  0.00000000000E+00  0.34996269501E-01  0.35000000000E-01  0.51099999109E-03 0.  1.
       11   -1    0    0    0    0 -0.00000000000E+00 -0.00000000000E+00 -0.34996269501E-01  0.35000000000E-01  0.51099999109E-03 0.  1.
       22    1    1    2    0    0 -0.00000000000E+00 -0.00000000000E+00  0.34949669210E-01  0.34947108880E-01  0.00000000000E+00 0.  1.
       22    1    1    2    0    0  0.33500905844E-03 -0.10783002051E-03 -0.34389765643E-01  0.34391566398E-01  0.00000000000E+00 0.  1.
       22    1    1    2    0    0 -0.33500905844E-03  0.10783002051E-03 -0.55990356691E-03  0.66132472115E-03  0.00000000000E+00 0. -1.
</event>
<event>
 5   0  0.4146200E+04  0.9118800E+02  0.7546771E-02  0.1180000E+00
      -11   -1    0    0    0    0  0.00000000000E+00  0.00000000000E+00  0.34996269501E-01  0.35000000000E-01  0.51099999109E-03 0. -1.
       11   -1    0    0    0    0 -0.00000000000E+00 -0.00000000000E+00 -0.34996269501E-01  0.35000000000E-01  0.51099999109E-03 0.  1.
       22    1    1    2    0    0  0.20980963175E-02  0.25857123154E-03 -0.34298817231E-01  0.34363901564E-01  0.00000000000E+00 0.  1.
       22    1    1    2    0    0 -0.24448920104E-02 -0.29447979899E-03  0.34875436107E-01  0.34962269076E-01  0.00000000000E+00 0. -1.
       22    1    1    2    0    0  0.34679569289E-03  0.35908567449E-04 -0.57661887609E-03  0.67382935977E-03  0.00000000000E+00 0. -1.
</event>
<event>
 5   0  0.4146200E+04  0.9118800E+02  0.7546771E-02  0.1180000E+00
      -11   -1    0    0    0    0  0.00000000000E+00  0.00000000000E+00  0.34996269501E-01  0.35000000000E-01  0.51099999109E-03 0. -1.
       11   -1    0    0    0    0 -0.00000000000E+00 -0.00000000000E+00 -0.34996269501E-01  0.35000000000E-01  0.51099999109E-03 0.  1.
       22    1    1    2    0    0  0.12697125372E-01  0.54224773333E-02 -0.19091850177E-01  0.23560963400E-01  0.00000000000E+00 0.  1.
       22    1    1    2    0    0 -0.13532287080E-01 -0.62428042460E-02  0.31040772869E-01  0.34432905465E-01  0.00000000000E+00 0. -1.
       22    1    1    2    0    0  0.83516170809E-03  0.82032691273E-03 -0.11948922692E-01  0.12006131135E-01  0.00000000000E+00 0.  1.
</event>
<event>
 5   0  0.4146200E+04  0.9118800E+02  0.7546771E-02  0.1180000E+00
      -11   -1    0    0    0    0  0.00000000000E+00  0.00000000000E+00  0.34996269501E-01  0.35000000000E-01  0.51099999109E-03 0.  1.
       11   -1    0    0    0    0 -0.00000000000E+00 -0.00000000000E+00 -0.34996269501E-01  0.35000000000E-01  0.51099999109E-03 0. -1.
       22    1    1    2    0    0 -0.20766681204E-02  0.18957247060E-02  0.18062346931E-02  0.33419764227E-02  0.00000000000E+00 0. -1.
       22    1    1    2    0    0  0.61817728665E-02  0.18617191838E-01  0.25554840647E-01  0.32215897135E-01  0.00000000000E+00 0.  1.
       22    1    1    2    0    0 -0.41051047461E-02 -0.20512916544E-01 -0.27361075340E-01  0.34442126443E-01  0.00000000000E+00 0. -1.
</event>
<event>
 5   0  0.4146200E+04  0.9118800E+02  0.7546771E-02  0.1180000E+00
      -11   -1    0    0    0    0  0.00000000000E+00  0.00000000000E+00  0.34996269501E-01  0.35000000000E-01  0.51099999109E-03 0. -1.
       11   -1    0    0    0    0 -0.00000000000E+00 -0.00000000000E+00 -0.34996269501E-01  0.35000000000E-01  0.51099999109E-03 0.  1.
       22    1    1    2    0    0 -0.11443971644E-03  0.43168596411E-03  0.37257769089E-03  0.58160412314E-03  0.00000000000E+00 0. -1.
       22    1    1    2    0    0 -0.17431956109E-01  0.14589010430E-01  0.25883941727E-01  0.34448378168E-01  0.00000000000E+00 0. -1.
       22    1    1    2    0    0  0.17546395825E-01 -0.15020696394E-01 -0.26256519418E-01  0.34970017709E-01  0.00000000000E+00 0.  1.
</event>
<event>
 5   0  0.4146200E+04  0.9118800E+02  0.7546771E-02  0.1180000E+00
      -11   -1    0    0    0    0  0.00000000000E+00  0.00000000000E+00  0.34996269501E-01  0.35000000000E-01  0.51099999109E-03 0.  1.
       11   -1    0    0    0    0 -0.00000000000E+00 -0.00000000000E+00 -0.34996269501E-01  0.35000000000E-01  0.51099999109E-03 0. -1.
       22    1    1    2    0    0  0.15932178060E-02 -0.80775930033E-03 -0.20451772092E-02  0.27154314356E-02  0.00000000000E+00 0.  1.
       22    1    1    2    0    0  0.13853959468E-04 -0.13434237085E-02 -0.32553819466E-01  0.32581530673E-01  0.00000000000E+00 0. -1.
       22    1    1    2    0    0 -0.16070717654E-02  0.21511830088E-02  0.34598996675E-01  0.34703037891E-01  0.00000000000E+00 0.  1.
</event>
<event>
 5   0  0.4146200E+04  0.9118800E+02  0.7546771E-02  0.1180000E+00
      -11   -1    0    0    0    0  0.00000000000E+00  0.00000000000E+00  0.34996269501E-01  0.35000000000E-01  0.51099999109E-03 0. -1.
       11   -1    0    0    0    0 -0.00000000000E+00 -0.00000000000E+00 -0.34996269501E-01  0.35000000000E-01  0.51099999109E-03 0. -1.
       22    1    1    2    0    0  0.21002146757E-02 -0.30550779519E-02  0.34074219402E-01  0.34275309347E-01  0.00000000000E+00 0. -1.
       22    1    1    2    0    0  0.29959376938E-02 -0.16725681724E-02 -0.73541934323E-02  0.81152503348E-02  0.00000000000E+00 0.  1.
       22    1    1    2    0    0 -0.50961523695E-02  0.47276461244E-02 -0.26720025970E-01  0.27609440318E-01  0.00000000000E+00 0. -1.
</event>
<event>
 5   0  0.4146200E+04  0.9118800E+02  0.7546771E-02  0.1180000E+00
      -11   -1    0    0    0    0  0.00000000000E+00  0.00000000000E+00  0.34996269501E-01  0.35000000000E-01  0.51099999109E-03 0.  1.
       11   -1    0    0    0    0 -0.00000000000E+00 -0.00000000000E+00 -0.34996269501E-01  0.35000000000E-01  0.51099999109E-03 0.  1.
       22    1    1    2    0    0  0.16507468399E-04 -0.33314790093E-04  0.44783621445E-03  0.44937695393E-03  0.00000000000E+00 0.  1.
       22    1    1    2    0    0 -0.11240823420E-01 -0.18355170715E-01 -0.27529703404E-01  0.34944999251E-01  0.00000000000E+00 0.  1.
       22    1    1    2    0    0  0.11224315952E-01  0.18388485505E-01  0.27081867189E-01  0.34605623795E-01  0.00000000000E+00 0.  1.
</event>
<event>
 5   0  0.4146200E+04  0.9118800E+02  0.7546771E-02  0.1180000E+00
      -11   -1    0    0    0    0  0.00000000000E+00  0.00000000000E+00  0.34996269501E-01  0.35000000000E-01  0.51099999109E-03 0. -1.
       11   -1    0    0    0    0 -0.00000000000E+00 -0.00000000000E+00 -0.34996269501E-01  0.35000000000E-01  0.51099999109E-03 0.  1.
       22    1    1    2    0    0 -0.15681859553E-01 -0.78532941173E-02  0.29885075079E-01  0.34651300986E-01  0.00000000000E+00 0. -1.
       22    1    1    2    0    0  0.15717123722E-01  0.78500054001E-02 -0.30250241437E-01  0.34981819134E-01  0.00000000000E+00 0.  1.
       22    1    1    2    0    0 -0.35264169092E-04  0.32887171192E-05  0.36516635845E-03  0.36687988038E-03  0.00000000000E+00 0. -1.
</event>
<event>
 5   0  0.4146200E+04  0.9118800E+02  0.7546771E-02  0.1180000E+00
      -11   -1    0    0    0    0  0.00000000000E+00  0.00000000000E+00  0.34996269501E-01  0.35000000000E-01  0.51099999109E-03 0.  1.
       11   -1    0    0    0    0 -0.00000000000E+00 -0.00000000000E+00 -0.34996269501E-01  0.35000000000E-01  0.51099999109E-03 0. -1.
       22    1    1    2    0    0  0.20864394508E-01  0.89798146770E-02 -0.26494862567E-01  0.34898965203E-01  0.00000000000E+00 0. -1.
       22    1    1    2    0    0 -0.20754077592E-01 -0.89343556403E-02  0.25384262269E-01  0.33984043584E-01  0.00000000000E+00 0.  1.
       22    1    1    2    0    0 -0.11031691578E-03 -0.45459036631E-04  0.11106002982E-02  0.11169912122E-02  0.00000000000E+00 0.  1.
</event>
<event>
 5   0  0.4146200E+04  0.9118800E+02  0.7546771E-02  0.1180000E+00
      -11   -1    0    0    0    0  0.00000000000E+00  0.00000000000E+00  0.34996269501E-01  0.35000000000E-01  0.51099999109E-03 0.  1.
       11   -1    0    0    0    0 -0.00000000000E+00 -0.00000000000E+00 -0.34996269501E-01  0.35000000000E-01  0.51099999109E-03 0. -1.
       22    1    1    2    0    0  0.12285851081E-01 -0.13984761664E-01  0.29217981345E-01  0.34643991246E-01  0.00000000000E+00 0.  1.
       22    1    1    2    0    0  0.62874604261E-03  0.69126099916E-05 -0.23389396288E-02  0.24219843016E-02  0.00000000000E+00 0.  1.
       22    1    1    2    0    0 -0.12914597123E-01  0.13977849054E-01 -0.26879041716E-01  0.32934024452E-01  0.00000000000E+00 0. -1.
</event>
<event>
 5   0  0.4146200E+04  0.9118800E+02  0.7546771E-02  0.1180000E+00
      -11   -1    0    0    0    0  0.00000000000E+00  0.00000000000E+00  0.34996269501E-01  0.35000000000E-01  0.51099999109E-03 0.  1.
       11   -1    0    0    0    0 -0.00000000000E+00 -0.00000000000E+00 -0.34996269501E-01  0.35000000000E-01  0.51099999109E-03 0. -1.
       22    1    1    2    0    0 -0.22671131283E-02 -0.12781835543E-01  0.32214008606E-01  0.34731217546E-01  0.00000000000E+00 0.  1.
       22    1    1    2    0    0  0.32167089433E-02  0.11190032385E-01 -0.30830686583E-01  0.32955959649E-01  0.00000000000E+00 0. -1.
       22    1    1    2    0    0 -0.94959581499E-03  0.15918031578E-02 -0.13833220228E-02  0.23128228042E-02  0.00000000000E+00 0.  1.
</event>
<event>
 5   0  0.4146200E+04  0.9118800E+02  0.7546771E-02  0.1180000E+00
      -11   -1    0    0    0    0  0.00000000000E+00  0.00000000000E+00  0.34996269501E-01  0.35000000000E-01  0.51099999109E-03 0. -1.
       11   -1    0    0    0    0 -0.00000000000E+00 -0.00000000000E+00 -0.34996269501E-01  0.35000000000E-01  0.51099999109E-03 0.  1.
       22    1    1    2    0    0  0.34435082815E-03  0.66941891239E-03 -0.28695382818E-02  0.29666393653E-02  0.00000000000E+00 0.  1.
       22    1    1    2    0    0  0.18658159270E-02 -0.10742719221E-01 -0.30350341854E-01  0.32249504430E-01  0.00000000000E+00 0.  1.
       22    1    1    2    0    0 -0.22101667552E-02  0.10073300308E-01  0.33219880136E-01  0.34783856204E-01  0.00000000000E+00 0. -1.
</event>
<event>
 5   0  0.4146200E+04  0.9118800E+02  0.7546771E-02  0.1180000E+00
      -11   -1    0    0    0    0  0.00000000000E+00  0.00000000000E+00  0.34996269501E-01  0.35000000000E-01  0.51099999109E-03 0.  1.
       11   -1    0    0    0    0 -0.00000000000E+00 -0.00000000000E+00 -0.34996269501E-01  0.35000000000E-01  0.51099999109E-03 0. -1.
       22    1    1    2    0    0  0.11750128264E-01  0.47322807976E-02 -0.32570446434E-01  0.34947016707E-01  0.00000000000E+00 0. -1.
       22    1    1    2    0    0 -0.18821050337E-04 -0.13332720768E-03  0.17647776751E-02  0.17699069520E-02  0.00000000000E+00 0.  1.
       22    1    1    2    0    0 -0.11731307214E-01 -0.45989535899E-02  0.30805668759E-01  0.33283076341E-01  0.00000000000E+00 0.  1.
</event>
<event>
 5   0  0.4146200E+04  0.9118800E+02  0.7546771E-02  0.1180000E+00
      -11   -1    0    0    0    0  0.00000000000E+00  0.00000000000E+00  0.34996269501E-01  0.35000000000E-01  0.51099999109E-03 0. -1.
       11   -1    0    0    0    0 -0.00000000000E+00 -0.00000000000E+00 -0.34996269501E-01  0.35000000000E-01  0.51099999109E-03 0.  1.
       22    1    1    2    0    0  0.75505608480E-04 -0.84210526233E-04  0.35076439650E-02  0.35094670101E-02  0.00000000000E+00 0. -1.
       22    1    1    2    0    0 -0.41108915627E-02 -0.22222073439E-01 -0.26073991961E-01  0.34504681336E-01  0.00000000000E+00 0.  1.
       22    1    1    2    0    0  0.40353859542E-02  0.22306283965E-01  0.22566347996E-01  0.31985851653E-01  0.00000000000E+00 0. -1.
</event>
<event>
 5   0  0.4146200E+04  0.9118800E+02  0.7546771E-02  0.1180000E+00
      -11   -1    0    0    0    0  0.00000000000E+00  0.00000000000E+00  0.34996269501E-01  0.35000000000E-01  0.51099999109E-03 0. -1.
       11   -1    0    0    0    0 -0.00000000000E+00 -0.00000000000E+00 -0.34996269501E-01  0.35000000000E-01  0.51099999109E-03 0.  1.
       22    1    1    2    0    0 -0.72622512890E-03 -0.12900663950E-02 -0.33078815165E-01  0.33111926657E-01  0.00000000000E+00 0.  1.
       22    1    1    2    0    0 -0.33097700262E-03  0.11620047691E-02  0.34823286111E-01  0.34844239932E-01  0.00000000000E+00 0. -1.
       22    1    1    2    0    0  0.10572021315E-02  0.12806162591E-03 -0.17444709467E-02  0.20438334107E-02  0.00000000000E+00 0. -1.
</event>
<event>
 5   0  0.4146200E+04  0.9118800E+02  0.7546771E-02  0.1180000E+00
      -11   -1    0    0    0    0  0.00000000000E+00  0.00000000000E+00  0.34996269501E-01  0.35000000000E-01  0.51099999109E-03 0. -1.
       11   -1    0    0    0    0 -0.00000000000E+00 -0.00000000000E+00 -0.34996269501E-01  0.35000000000E-01  0.51099999109E-03 0. -1.
       22    1    1    2    0    0 -0.23867947832E-03 -0.31136198593E-03 -0.52853900767E-03  0.65823070597E-03  0.00000000000E+00 0.  1.
       22    1    1    2    0    0  0.26521328790E-03  0.17864256806E-03 -0.34405741086E-01  0.34407227016E-01  0.00000000000E+00 0. -1.
       22    1    1    2    0    0 -0.26533809582E-04  0.13271941787E-03  0.34934280094E-01  0.34934542278E-01  0.00000000000E+00 0. -1.
</event>
<event>
 5   0  0.4146200E+04  0.9118800E+02  0.7546771E-02  0.1180000E+00
      -11   -1    0    0    0    0  0.00000000000E+00  0.00000000000E+00  0.34996269501E-01  0.35000000000E-01  0.51099999109E-03 0. -1.
       11   -1    0    0    0    0 -0.00000000000E+00 -0.00000000000E+00 -0.34996269501E-01  0.35000000000E-01  0.51099999109E-03 0.  1.
       22    1    1    2    0    0  0.43714289660E-03 -0.11037040722E-03  0.26296585808E-01  0.26300450580E-01  0.00000000000E+00 0. -1.
       22    1    1    2    0    0  0.50291876259E-02 -0.10368257463E-01  0.31695489532E-02  0.11951549338E-01  0.00000000000E+00 0. -1.
       22    1    1    2    0    0 -0.54663305225E-02  0.10478627871E-01 -0.29466134762E-01  0.31748000082E-01  0.00000000000E+00 0.  1.
</event>
<event>
 5   0  0.4146200E+04  0.9118800E+02  0.7546771E-02  0.1180000E+00
      -11   -1    0    0    0    0  0.00000000000E+00  0.00000000000E+00  0.34996269501E-01  0.35000000000E-01  0.51099999109E-03 0.  1.
       11   -1    0    0    0    0 -0.00000000000E+00 -0.00000000000E+00 -0.34996269501E-01  0.35000000000E-01  0.51099999109E-03 0. -1.
       22    1    1    2    0    0  0.12437138626E-02  0.56160165712E-04 -0.32773039608E-01  0.32796678235E-01  0.00000000000E+00 0. -1.
       22    1    1    2    0    0 -0.20835433913E-02  0.55206497794E-03  0.34831661582E-01  0.34898289032E-01  0.00000000000E+00 0.  1.
       22    1    1    2    0    0  0.83982952870E-03 -0.60822514365E-03 -0.20586219745E-02  0.23050327322E-02  0.00000000000E+00 0.  1.
</event>
<event>
 5   0  0.4146200E+04  0.9118800E+02  0.7546771E-02  0.1180000E+00
      -11   -1    0    0    0    0  0.00000000000E+00  0.00000000000E+00  0.34996269501E-01  0.35000000000E-01  0.51099999109E-03 0.  1.
       11   -1    0    0    0    0 -0.00000000000E+00 -0.00000000000E+00 -0.34996269501E-01  0.35000000000E-01  0.51099999109E-03 0. -1.
       22    1    1    2    0    0  0.90706773782E-05 -0.12724635746E-03  0.61905882644E-02  0.61919025325E-02  0.00000000000E+00 0. -1.
       22    1    1    2    0    0 -0.19356357627E-01  0.12415325250E-01  0.18942878325E-01  0.29793313359E-01  0.00000000000E+00 0.  1.
       22    1    1    2    0    0  0.19347286950E-01 -0.12288078893E-01 -0.25133466589E-01  0.34014784109E-01  0.00000000000E+00 0. -1.
</event>
<event>
 5   0  0.4146200E+04  0.9118800E+02  0.7546771E-02  0.1180000E+00
      -11   -1    0    0    0    0  0.00000000000E+00  0.00000000000E+00  0.34996269501E-01  0.35000000000E-01  0.51099999109E-03 0.  1.
       11   -1    0    0    0    0 -0.00000000000E+00 -0.00000000000E+00 -0.34996269501E-01  0.35000000000E-01  0.51099999109E-03 0. -1.
       22    1    1    2    0    0  0.34823747148E-03 -0.16662200009E-03 -0.14297266049E-02  0.14809288951E-02  0.00000000000E+00 0.  1.
       22    1    1    2    0    0 -0.78593876662E-02  0.21225884319E-01  0.26550731358E-01  0.34889102528E-01  0.00000000000E+00 0.  1.
       22    1    1    2    0    0  0.75111501948E-02 -0.21059262319E-01 -0.25121004753E-01  0.33629968576E-01  0.00000000000E+00 0. -1.
</event>
<event>
 5   0  0.4146200E+04  0.9118800E+02  0.7546771E-02  0.1180000E+00
      -11   -1    0    0    0    0  0.00000000000E+00  0.00000000000E+00  0.34996269501E-01  0.35000000000E-01  0.51099999109E-03 0. -1.
       11   -1    0    0    0    0 -0.00000000000E+00 -0.00000000000E+00 -0.34996269501E-01  0.35000000000E-01  0.51099999109E-03 0.  1.
       22    1    1    2    0    0 -0.84163849438E-03 -0.49776123451E-02 -0.30774426279E-01  0.31185738613E-01  0.00000000000E+00 0.  1.
       22    1    1    2    0    0  0.15176615254E-02  0.30276540995E-02  0.34440806870E-01  0.34606923638E-01  0.00000000000E+00 0. -1.
       22    1    1    2    0    0 -0.67602303105E-03  0.19499582456E-02 -0.36663805910E-02  0.42073377492E-02  0.00000000000E+00 0. -1.
</event>
<event>
 5   0  0.4146200E+04  0.9118800E+02  0.7546771E-02  0.1180000E+00
      -11   -1    0    0    0    0  0.00000000000E+00  0.00000000000E+00  0.34996269501E-01  0.35000000000E-01  0.51099999109E-03 0. -1.
       11   -1    0    0    0    0 -0.00000000000E+00 -0.00000000000E+00 -0.34996269501E-01  0.35000000000E-01  0.51099999109E-03 0.  1.
       22    1    1    2    0    0  0.26878727485E-03  0.64393052902E-02  0.34284134286E-01  0.34884649389E-01  0.00000000000E+00 0. -1.
       22    1    1    2    0    0  0.43399339596E-04 -0.51150158005E-02 -0.32342205503E-01  0.32744213641E-01  0.00000000000E+00 0.  1.
       22    1    1    2    0    0 -0.31218661445E-03 -0.13242894897E-02 -0.19419287832E-02  0.23711369707E-02  0.00000000000E+00 0. -1.
</event>
<event>
 5   0  0.4146200E+04  0.9118800E+02  0.7546771E-02  0.1180000E+00
      -11   -1    0    0    0    0  0.00000000000E+00  0.00000000000E+00  0.34996269501E-01  0.35000000000E-01  0.51099999109E-03 0. -1.
       11   -1    0    0    0    0 -0.00000000000E+00 -0.00000000000E+00 -0.34996269501E-01  0.35000000000E-01  0.51099999109E-03 0.  1.
       22    1    1    2    0    0 -0.97287393736E-02 -0.11132884547E-01  0.30715409955E-01  0.34088500948E-01  0.00000000000E+00 0. -1.
       22    1    1    2    0    0  0.96222489954E-02  0.11017385131E-01 -0.31701198880E-01  0.34913270561E-01  0.00000000000E+00 0.  1.
       22    1    1    2    0    0  0.10649037820E-03  0.11549941583E-03  0.98578892468E-03  0.99822849074E-03  0.00000000000E+00 0. -1.
</event>
<event>
 5   0  0.4146200E+04  0.9118800E+02  0.7546771E-02  0.1180000E+00
      -11   -1    0    0    0    0  0.00000000000E+00  0.00000000000E+00  0.34996269501E-01  0.35000000000E-01  0.51099999109E-03 0. -1.
       11   -1    0    0    0    0 -0.00000000000E+00 -0.00000000000E+00 -0.34996269501E-01  0.35000000000E-01  0.51099999109E-03 0.  1.
       22    1    1    2    0    0  0.24872139893E-02  0.60306467963E-02 -0.15298964985E-01  0.16631694556E-01  0.00000000000E+00 0.  1.
       22    1    1    2    0    0 -0.13662853929E-02 -0.10656481758E-02 -0.18805976835E-01  0.18885632277E-01  0.00000000000E+00 0.  1.
       22    1    1    2    0    0 -0.11209285964E-02 -0.49649986205E-02  0.34104941819E-01  0.34482673167E-01  0.00000000000E+00 0. -1.
</event>
<event>
 5   0  0.4146200E+04  0.9118800E+02  0.7546771E-02  0.1180000E+00
      -11   -1    0    0    0    0  0.00000000000E+00  0.00000000000E+00  0.34996269501E-01  0.35000000000E-01  0.51099999109E-03 0. -1.
       11   -1    0    0    0    0 -0.00000000000E+00 -0.00000000000E+00 -0.34996269501E-01  0.35000000000E-01  0.51099999109E-03 0.  1.
       22    1    1    2    0    0  0.21984197928E-02  0.15489046353E-02 -0.18135055524E-03  0.26953744041E-02  0.00000000000E+00 0.  1.
       22    1    1    2    0    0 -0.99021484842E-02  0.63257890553E-02 -0.31575683006E-01  0.33691125078E-01  0.00000000000E+00 0.  1.
       22    1    1    2    0    0  0.77037286914E-02 -0.78746936906E-02  0.31757033561E-01  0.33613500518E-01  0.00000000000E+00 0. -1.
</event>
<event>
 5   0  0.4146200E+04  0.9118800E+02  0.7546771E-02  0.1180000E+00
      -11   -1    0    0    0    0  0.00000000000E+00  0.00000000000E+00  0.34996269501E-01  0.35000000000E-01  0.51099999109E-03 0. -1.
       11   -1    0    0    0    0 -0.00000000000E+00 -0.00000000000E+00 -0.34996269501E-01  0.35000000000E-01  0.51099999109E-03 0.  1.
       22    1    1    2    0    0 -0.55894605734E-05  0.71372114077E-05  0.35832621945E-03  0.35844087574E-03  0.00000000000E+00 0.  1.
       22    1    1    2    0    0 -0.14173089744E-01 -0.18349141300E-02  0.31572561946E-01  0.34656457560E-01  0.00000000000E+00 0. -1.
       22    1    1    2    0    0  0.14178679205E-01  0.18277769186E-02 -0.31930888165E-01  0.34985101565E-01  0.00000000000E+00 0.  1.
</event>
<event>
 5   0  0.4146200E+04  0.9118800E+02  0.7546771E-02  0.1180000E+00
      -11   -1    0    0    0    0  0.00000000000E+00  0.00000000000E+00  0.34996269501E-01  0.35000000000E-01  0.51099999109E-03 0. -1.
       11   -1    0    0    0    0 -0.00000000000E+00 -0.00000000000E+00 -0.34996269501E-01  0.35000000000E-01  0.51099999109E-03 0.  1.
       22    1    1    2    0    0 -0.13074957222E-02 -0.26956503879E-02 -0.34025895947E-01  0.34157541935E-01  0.00000000000E+00 0.  1.
       22    1    1    2    0    0  0.11559456874E-02  0.24096757841E-02  0.34852463950E-01  0.34954784954E-01  0.00000000000E+00 0. -1.
       22    1    1    2    0    0  0.15155003474E-03  0.28597460383E-03 -0.82656800333E-03  0.88767311055E-03  0.00000000000E+00 0. -1.
</event>
<event>
 5   0  0.4146200E+04  0.9118800E+02  0.7546771E-02  0.1180000E+00
      -11   -1    0    0    0    0  0.00000000000E+00  0.00000000000E+00  0.34996269501E-01  0.35000000000E-01  0.51099999109E-03 0.  1.
       11   -1    0    0    0    0 -0.00000000000E+00 -0.00000000000E+00 -0.34996269501E-01  0.35000000000E-01  0.51099999109E-03 0. -1.
       22    1    1    2    0    0  0.20690273994E-03  0.17756382220E-03  0.21515972909E-01  0.21517700339E-01  0.00000000000E+00 0. -1.
       22    1    1    2    0    0  0.13219404337E-01  0.12320074198E-01 -0.23924630551E-01  0.29982075083E-01  0.00000000000E+00 0. -1.
       22    1    1    2    0    0 -0.13426307077E-01 -0.12497638020E-01  0.24086576421E-02  0.18500224579E-01  0.00000000000E+00 0.  1.
</event>
<event>
 5   0  0.4146200E+04  0.9118800E+02  0.7546771E-02  0.1180000E+00
      -11   -1    0    0    0    0  0.00000000000E+00  0.00000000000E+00  0.34996269501E-01  0.35000000000E-01  0.51099999109E-03 0. -1.
       11   -1    0    0    0    0 -0.00000000000E+00 -0.00000000000E+00 -0.34996269501E-01  0.35000000000E-01  0.51099999109E-03 0.  1.
       22    1    1    2    0    0 -0.64088180143E-02 -0.19538949276E-01  0.24863078330E-01  0.32264781902E-01  0.00000000000E+00 0. -1.
       22    1    1    2    0    0  0.70900230216E-02  0.18040376563E-01 -0.28080620443E-01  0.34121032479E-01  0.00000000000E+00 0.  1.
       22    1    1    2    0    0 -0.68120500724E-03  0.14985727134E-02  0.32175421130E-02  0.36141856189E-02  0.00000000000E+00 0. -1.
</event>
<event>
 5   0  0.4146200E+04  0.9118800E+02  0.7546771E-02  0.1180000E+00
      -11   -1    0    0    0    0  0.00000000000E+00  0.00000000000E+00  0.34996269501E-01  0.35000000000E-01  0.51099999109E-03 0.  1.
       11   -1    0    0    0    0 -0.00000000000E+00 -0.00000000000E+00 -0.34996269501E-01  0.35000000000E-01  0.51099999109E-03 0. -1.
       22    1    1    2    0    0 -0.57438295580E-04 -0.80131606105E-04 -0.35542896252E-03  0.36884953503E-03  0.00000000000E+00 0. -1.
       22    1    1    2    0    0  0.21663914008E-01 -0.64092804793E-02 -0.26325684024E-01  0.34690714690E-01  0.00000000000E+00 0. -1.
       22    1    1    2    0    0 -0.21606475712E-01  0.64894120854E-02  0.26681112987E-01  0.34940435775E-01  0.00000000000E+00 0.  1.
</event>
<event>
 5   0  0.4146200E+04  0.9118800E+02  0.7546771E-02  0.1180000E+00
      -11   -1    0    0    0    0  0.00000000000E+00  0.00000000000E+00  0.34996269501E-01  0.35000000000E-01  0.51099999109E-03 0. -1.
       11   -1    0    0    0    0 -0.00000000000E+00 -0.00000000000E+00 -0.34996269501E-01  0.35000000000E-01  0.51099999109E-03 0.  1.
       22    1    1    2    0    0  0.23343279792E-03  0.69106693615E-03  0.34949103164E-01  0.34956714324E-01  0.00000000000E+00 0. -1.
       22    1    1    2    0    0  0.14647398277E-03 -0.59712162132E-03 -0.34129560339E-01  0.34135097741E-01  0.00000000000E+00 0.  1.
       22    1    1    2    0    0 -0.37990678069E-03 -0.93945314827E-04 -0.81954282467E-03  0.90818793521E-03  0.00000000000E+00 0. -1.
</event>
<event>
 5   0  0.4146200E+04  0.9118800E+02  0.7546771E-02  0.1180000E+00
      -11   -1    0    0    0    0  0.00000000000E+00  0.00000000000E+00  0.34996269501E-01  0.35000000000E-01  0.51099999109E-03 0.  1.
       11   -1    0    0    0    0 -0.00000000000E+00 -0.00000000000E+00 -0.34996269501E-01  0.35000000000E-01  0.51099999109E-03 0. -1.
       22    1    1    2    0    0  0.73854759247E-03  0.19031348200E-01  0.52306396609E-02  0.19750879933E-01  0.00000000000E+00 0.  1.
       22    1    1    2    0    0  0.10237100556E-02  0.68034169969E-03  0.18957079966E-01  0.18996887323E-01  0.00000000000E+00 0.  1.
       22    1    1    2    0    0 -0.17622576481E-02 -0.19711689900E-01 -0.24187719627E-01  0.31252232744E-01  0.00000000000E+00 0. -1.
</event>
<event>
 5   0  0.4146200E+04  0.9118800E+02  0.7546771E-02  0.1180000E+00
      -11   -1    0    0    0    0  0.00000000000E+00  0.00000000000E+00  0.34996269501E-01  0.35000000000E-01  0.51099999109E-03 0. -1.
       11   -1    0    0    0    0 -0.00000000000E+00 -0.00000000000E+00 -0.34996269501E-01  0.35000000000E-01  0.51099999109E-03 0.  1.
       22    1    1    2    0    0  0.25415415365E-02  0.20555399925E-02  0.34831415896E-01  0.34984456711E-01  0.00000000000E+00 0. -1.
       22    1    1    2    0    0  0.57898914573E-04 -0.12907981061E-03 -0.28735504825E-03  0.32029175070E-03  0.00000000000E+00 0.  1.
       22    1    1    2    0    0 -0.25994404510E-02 -0.19264601819E-02 -0.34544060847E-01  0.34695251539E-01  0.00000000000E+00 0.  1.
</event>
<event>
 5   0  0.4146200E+04  0.9118800E+02  0.7546771E-02  0.1180000E+00
      -11   -1    0    0    0    0  0.00000000000E+00  0.00000000000E+00  0.34996269501E-01  0.35000000000E-01  0.51099999109E-03 0.  1.
       11   -1    0    0    0    0 -0.00000000000E+00 -0.00000000000E+00 -0.34996269501E-01  0.35000000000E-01  0.51099999109E-03 0. -1.
       22    1    1    2    0    0 -0.15761679655E-01  0.95581388716E-02  0.29516279963E-01  0.34799415902E-01  0.00000000000E+00 0.  1.
       22    1    1    2    0    0  0.16074598106E-01 -0.90039968428E-02 -0.29092511917E-01  0.34436011863E-01  0.00000000000E+00 0. -1.
       22    1    1    2    0    0 -0.31291845042E-03 -0.55414202878E-03 -0.42376804661E-03  0.76457223465E-03  0.00000000000E+00 0. -1.
</event>
<event>
 5   0  0.4146200E+04  0.9118800E+02  0.7546771E-02  0.1180000E+00
      -11   -1    0    0    0    0  0.00000000000E+00  0.00000000000E+00  0.34996269501E-01  0.35000000000E-01  0.51099999109E-03 0. -1.
       11   -1    0    0    0    0 -0.00000000000E+00 -0.00000000000E+00 -0.34996269501E-01  0.35000000000E-01  0.51099999109E-03 0.  1.
       22    1    1    2    0    0  0.88491602501E-02  0.20340719067E-01 -0.24779606381E-01  0.33257801817E-01  0.00000000000E+00 0.  1.
       22    1    1    2    0    0 -0.12877272788E-01 -0.18694365626E-01  0.19729145213E-01  0.30075615230E-01  0.00000000000E+00 0. -1.
       22    1    1    2    0    0  0.40281125381E-02 -0.16463534414E-02  0.50504611674E-02  0.66665829536E-02  0.00000000000E+00 0.  1.
</event>
<event>
 5   0  0.4146200E+04  0.9118800E+02  0.7546771E-02  0.1180000E+00
      -11   -1    0    0    0    0  0.00000000000E+00  0.00000000000E+00  0.34996269501E-01  0.35000000000E-01  0.51099999109E-03 0. -1.
       11   -1    0    0    0    0 -0.00000000000E+00 -0.00000000000E+00 -0.34996269501E-01  0.35000000000E-01  0.51099999109E-03 0.  1.
       22    1    1    2    0    0 -0.73172212276E-04  0.42779935526E-03 -0.13874532687E-01  0.13881319237E-01  0.00000000000E+00 0.  1.
       22    1    1    2    0    0  0.47252760747E-02  0.14539738600E-01  0.29975099170E-01  0.33648756334E-01  0.00000000000E+00 0. -1.
       22    1    1    2    0    0 -0.46521038624E-02 -0.14967537955E-01 -0.16100566483E-01  0.22469924429E-01  0.00000000000E+00 0.  1.
</event>
<event>
 5   0  0.4146200E+04  0.9118800E+02  0.7546771E-02  0.1180000E+00
      -11   -1    0    0    0    0  0.00000000000E+00  0.00000000000E+00  0.34996269501E-01  0.35000000000E-01  0.51099999109E-03 0.  1.
       11   -1    0    0    0    0 -0.00000000000E+00 -0.00000000000E+00 -0.34996269501E-01  0.35000000000E-01  0.51099999109E-03 0. -1.
       22    1    1    2    0    0 -0.15835815849E-01 -0.12001279566E-01 -0.28157265722E-01  0.34462086237E-01  0.00000000000E+00 0. -1.
       22    1    1    2    0    0 -0.20900096637E-03  0.18842161399E-03 -0.53599108339E-03  0.60536811118E-03  0.00000000000E+00 0.  1.
       22    1    1    2    0    0  0.16044816815E-01  0.11812857952E-01  0.28693256806E-01  0.34932545652E-01  0.00000000000E+00 0.  1.
</event>
<event>
 5   0  0.4146200E+04  0.9118800E+02  0.7546771E-02  0.1180000E+00
      -11   -1    0    0    0    0  0.00000000000E+00  0.00000000000E+00  0.34996269501E-01  0.35000000000E-01  0.51099999109E-03 0.  1.
       11   -1    0    0    0    0 -0.00000000000E+00 -0.00000000000E+00 -0.34996269501E-01  0.35000000000E-01  0.51099999109E-03 0. -1.
       22    1    1    2    0    0 -0.10753978812E-01 -0.59143197179E-02  0.24237137398E-01  0.27167371372E-01  0.00000000000E+00 0.  1.
       22    1    1    2    0    0  0.10764884577E-01  0.13873378511E-01 -0.28746029335E-01  0.33685123924E-01  0.00000000000E+00 0. -1.
       22    1    1    2    0    0 -0.10905765128E-04 -0.79590587931E-02  0.45088919363E-02  0.91475047035E-02  0.00000000000E+00 0. -1.
</event>
<event>
 5   0  0.4146200E+04  0.9118800E+02  0.7546771E-02  0.1180000E+00
      -11   -1    0    0    0    0  0.00000000000E+00  0.00000000000E+00  0.34996269501E-01  0.35000000000E-01  0.51099999109E-03 0.  1.
       11   -1    0    0    0    0 -0.00000000000E+00 -0.00000000000E+00 -0.34996269501E-01  0.35000000000E-01  0.51099999109E-03 0. -1.
       22    1    1    2    0    0 -0.11368314314E-01 -0.66755991738E-02 -0.25106612533E-01  0.28357436195E-01  0.00000000000E+00 0. -1.
       22    1    1    2    0    0 -0.94378792722E-03 -0.11768408397E-02 -0.65811518843E-02  0.67518330946E-02  0.00000000000E+00 0. -1.
       22    1    1    2    0    0  0.12312102241E-01  0.78524400135E-02  0.31687764417E-01  0.34890730711E-01  0.00000000000E+00 0.  1.
</event>
<event>
 5   0  0.4146200E+04  0.9118800E+02  0.7546771E-02  0.1180000E+00
      -11   -1    0    0    0    0  0.00000000000E+00  0.00000000000E+00  0.34996269501E-01  0.35000000000E-01  0.51099999109E-03 0.  1.
       11   -1    0    0    0    0 -0.00000000000E+00 -0.00000000000E+00 -0.34996269501E-01  0.35000000000E-01  0.51099999109E-03 0. -1.
       22    1    1    2    0    0  0.55553961529E-03  0.22657539055E-03  0.13376952066E-01  0.13390399817E-01  0.00000000000E+00 0.  1.
       22    1    1    2    0    0 -0.15138955091E-02  0.14252044023E-01  0.17424394340E-01  0.22561519376E-01  0.00000000000E+00 0.  1.
       22    1    1    2    0    0  0.95835589385E-03 -0.14478619414E-01 -0.30801346407E-01  0.34048080807E-01  0.00000000000E+00 0. -1.
</event>
<event>
 5   0  0.4146200E+04  0.9118800E+02  0.7546771E-02  0.1180000E+00
      -11   -1    0    0    0    0  0.00000000000E+00  0.00000000000E+00  0.34996269501E-01  0.35000000000E-01  0.51099999109E-03 0.  1.
       11   -1    0    0    0    0 -0.00000000000E+00 -0.00000000000E+00 -0.34996269501E-01  0.35000000000E-01  0.51099999109E-03 0. -1.
       22    1    1    2    0    0  0.18086378086E-02 -0.92307588109E-03 -0.65772633239E-03  0.21344422534E-02  0.00000000000E+00 0. -1.
       22    1    1    2    0    0 -0.37851238735E-02 -0.10400320639E-01  0.32329999373E-01  0.34171957679E-01  0.00000000000E+00 0.  1.
       22    1    1    2    0    0  0.19764860649E-02  0.11323396520E-01 -0.31672273041E-01  0.33693600067E-01  0.00000000000E+00 0. -1.
</event>
<event>
 5   0  0.4146200E+04  0.9118800E+02  0.7546771E-02  0.1180000E+00
      -11   -1    0    0    0    0  0.00000000000E+00  0.00000000000E+00  0.34996269501E-01  0.35000000000E-01  0.51099999109E-03 0. -1.
       11   -1    0    0    0    0 -0.00000000000E+00 -0.00000000000E+00 -0.34996269501E-01  0.35000000000E-01  0.51099999109E-03 0.  1.
       22    1    1    2    0    0  0.36212307628E-02  0.17047331712E-02  0.34129761424E-01  0.34363644194E-01  0.00000000000E+00 0. -1.
       22    1    1    2    0    0 -0.41600664412E-02 -0.43959410736E-02 -0.13127389173E-01  0.14455407196E-01  0.00000000000E+00 0.  1.
       22    1    1    2    0    0  0.53883567838E-03  0.26912079024E-02 -0.21002372251E-01  0.21180948610E-01  0.00000000000E+00 0.  1.
</event>
<event>
 5   0  0.4146200E+04  0.9118800E+02  0.7546771E-02  0.1180000E+00
      -11   -1    0    0    0    0  0.00000000000E+00  0.00000000000E+00  0.34996269501E-01  0.35000000000E-01  0.51099999109E-03 0.  1.
       11   -1    0    0    0    0 -0.00000000000E+00 -0.00000000000E+00 -0.34996269501E-01  0.35000000000E-01  0.51099999109E-03 0. -1.
       22    1    1    2    0    0 -0.19748417307E-01 -0.27134713713E-01 -0.59393155345E-02  0.34081786095E-01  0.00000000000E+00 0. -1.
       22    1    1    2    0    0  0.19136442694E-01  0.27671011912E-01  0.72117780504E-02  0.34407820069E-01  0.00000000000E+00 0.  1.
       22    1    1    2    0    0  0.61197461339E-03 -0.53629819948E-03 -0.12724625159E-02  0.15103938362E-02  0.00000000000E+00 0. -1.
</event>
<event>
 5   0  0.4146200E+04  0.9118800E+02  0.7546771E-02  0.1180000E+00
      -11   -1    0    0    0    0  0.00000000000E+00  0.00000000000E+00  0.34996269501E-01  0.35000000000E-01  0.51099999109E-03 0.  1.
       11   -1    0    0    0    0 -0.00000000000E+00 -0.00000000000E+00 -0.34996269501E-01  0.35000000000E-01  0.51099999109E-03 0. -1.
       22    1    1    2    0    0  0.17742570512E-03  0.17261652789E-03 -0.72829684127E-03  0.76921559757E-03  0.00000000000E+00 0.  1.
       22    1    1    2    0    0  0.12213533265E-01  0.15149626278E-01 -0.28179418951E-01  0.34245601522E-01  0.00000000000E+00 0. -1.
       22    1    1    2    0    0 -0.12390958970E-01 -0.15322242806E-01  0.28907715793E-01  0.34985182880E-01  0.00000000000E+00 0.  1.
</event>
<event>
 5   0  0.4146200E+04  0.9118800E+02  0.7546771E-02  0.1180000E+00
      -11   -1    0    0    0    0  0.00000000000E+00  0.00000000000E+00  0.34996269501E-01  0.35000000000E-01  0.51099999109E-03 0.  1.
       11   -1    0    0    0    0 -0.00000000000E+00 -0.00000000000E+00 -0.34996269501E-01  0.35000000000E-01  0.51099999109E-03 0. -1.
       22    1    1    2    0    0 -0.32504936090E-02 -0.34500546330E-03 -0.33094675296E-01  0.33255710343E-01  0.00000000000E+00 0. -1.
       22    1    1    2    0    0  0.61425883010E-03  0.52561846343E-03 -0.16826150375E-02  0.18667570929E-02  0.00000000000E+00 0. -1.
       22    1    1    2    0    0  0.26362347789E-02 -0.18061300013E-03  0.34777290333E-01  0.34877532564E-01  0.00000000000E+00 0.  1.
</event>
<event>
 5   0  0.4146200E+04  0.9118800E+02  0.7546771E-02  0.1180000E+00
      -11   -1    0    0    0    0  0.00000000000E+00  0.00000000000E+00  0.34996269501E-01  0.35000000000E-01  0.51099999109E-03 0. -1.
       11   -1    0    0    0    0 -0.00000000000E+00 -0.00000000000E+00 -0.34996269501E-01  0.35000000000E-01  0.51099999109E-03 0.  1.
       22    1    1    2    0    0  0.14451452141E-01  0.58951043339E-02  0.25198393712E-01  0.29640441457E-01  0.00000000000E+00 0. -1.
       22    1    1    2    0    0 -0.15236890453E-01 -0.31037337585E-02 -0.30546109824E-01  0.34276242783E-01  0.00000000000E+00 0.  1.
       22    1    1    2    0    0  0.78543831209E-03 -0.27913705754E-02  0.53477161120E-02  0.60833157608E-02  0.00000000000E+00 0. -1.
</event>
<event>
 5   0  0.4146200E+04  0.9118800E+02  0.7546771E-02  0.1180000E+00
      -11   -1    0    0    0    0  0.00000000000E+00  0.00000000000E+00  0.34996269501E-01  0.35000000000E-01  0.51099999109E-03 0.  1.
       11   -1    0    0    0    0 -0.00000000000E+00 -0.00000000000E+00 -0.34996269501E-01  0.35000000000E-01  0.51099999109E-03 0. -1.
       22    1    1    2    0    0 -0.67442978119E-02  0.75236201536E-02  0.33212141287E-01  0.34715079462E-01  0.00000000000E+00 0.  1.
       22    1    1    2    0    0 -0.10652957660E-02 -0.37921873104E-03 -0.16919007981E-02  0.20349914560E-02  0.00000000000E+00 0. -1.
       22    1    1    2    0    0  0.78095935779E-02 -0.71444014225E-02 -0.31520240488E-01  0.33249929082E-01  0.00000000000E+00 0. -1.
</event>
<event>
 5   0  0.4146200E+04  0.9118800E+02  0.7546771E-02  0.1180000E+00
      -11   -1    0    0    0    0  0.00000000000E+00  0.00000000000E+00  0.34996269501E-01  0.35000000000E-01  0.51099999109E-03 0.  1.
       11   -1    0    0    0    0 -0.00000000000E+00 -0.00000000000E+00 -0.34996269501E-01  0.35000000000E-01  0.51099999109E-03 0. -1.
       22    1    1    2    0    0  0.11117494872E-01 -0.40828538419E-02  0.32537561268E-01  0.34626020288E-01  0.00000000000E+00 0.  1.
       22    1    1    2    0    0 -0.11503134337E-01  0.44009537712E-02 -0.32619677217E-01  0.34867374943E-01  0.00000000000E+00 0. -1.
       22    1    1    2    0    0  0.38563946513E-03 -0.31809992935E-03  0.82115948959E-04  0.50660476823E-03  0.00000000000E+00 0.  1.
</event>
<event>
 5   0  0.4146200E+04  0.9118800E+02  0.7546771E-02  0.1180000E+00
      -11   -1    0    0    0    0  0.00000000000E+00  0.00000000000E+00  0.34996269501E-01  0.35000000000E-01  0.51099999109E-03 0.  1.
       11   -1    0    0    0    0 -0.00000000000E+00 -0.00000000000E+00 -0.34996269501E-01  0.35000000000E-01  0.51099999109E-03 0.  1.
       22    1    1    2    0    0 -0.23733693666E-02 -0.92999877757E-02 -0.14876426743E-01  0.17703974904E-01  0.00000000000E+00 0.  1.
       22    1    1    2    0    0  0.25791326496E-02  0.93379211286E-02 -0.17455433401E-01  0.19963487958E-01  0.00000000000E+00 0. -1.
       22    1    1    2    0    0 -0.20576328299E-03 -0.37933352928E-04  0.32331860143E-01  0.32332537138E-01  0.00000000000E+00 0.  1.
</event>
<event>
 5   0  0.4146200E+04  0.9118800E+02  0.7546771E-02  0.1180000E+00
      -11   -1    0    0    0    0  0.00000000000E+00  0.00000000000E+00  0.34996269501E-01  0.35000000000E-01  0.51099999109E-03 0. -1.
       11   -1    0    0    0    0 -0.00000000000E+00 -0.00000000000E+00 -0.34996269501E-01  0.35000000000E-01  0.51099999109E-03 0.  1.
       22    1    1    2    0    0 -0.10926664213E-03  0.21088576113E-03 -0.42997318782E-02  0.43062868260E-02  0.00000000000E+00 0.  1.
       22    1    1    2    0    0  0.82928765101E-02 -0.14080535523E-01 -0.26387503367E-01  0.31037616135E-01  0.00000000000E+00 0.  1.
       22    1    1    2    0    0 -0.81836098680E-02  0.13869649762E-01  0.30687235245E-01  0.34656097039E-01  0.00000000000E+00 0. -1.
</event>
<event>
 5   0  0.4146200E+04  0.9118800E+02  0.7546771E-02  0.1180000E+00
      -11   -1    0    0    0    0  0.00000000000E+00  0.00000000000E+00  0.34996269501E-01  0.35000000000E-01  0.51099999109E-03 0.  1.
       11   -1    0    0    0    0 -0.00000000000E+00 -0.00000000000E+00 -0.34996269501E-01  0.35000000000E-01  0.51099999109E-03 0. -1.
       22    1    1    2    0    0 -0.79833268065E-02 -0.73195065784E-02  0.32102833034E-01  0.33880681402E-01  0.00000000000E+00 0.  1.
       22    1    1    2    0    0 -0.30417366358E-03 -0.31294549679E-02 -0.48801845896E-02  0.58053605954E-02  0.00000000000E+00 0.  1.
       22    1    1    2    0    0  0.82875004701E-02  0.10448961546E-01 -0.27222648445E-01  0.30313958003E-01  0.00000000000E+00 0. -1.
</event>
<event>
 5   0  0.4146200E+04  0.9118800E+02  0.7546771E-02  0.1180000E+00
      -11   -1    0    0    0    0  0.00000000000E+00  0.00000000000E+00  0.34996269501E-01  0.35000000000E-01  0.51099999109E-03 0. -1.
       11   -1    0    0    0    0 -0.00000000000E+00 -0.00000000000E+00 -0.34996269501E-01  0.35000000000E-01  0.51099999109E-03 0.  1.
       22    1    1    2    0    0 -0.20068392280E-03  0.13727544485E-02 -0.32831315989E-01  0.32860615308E-01  0.00000000000E+00 0.  1.
       22    1    1    2    0    0 -0.80024766512E-03 -0.13912420429E-03 -0.20587408473E-02  0.22131800076E-02  0.00000000000E+00 0. -1.
       22    1    1    2    0    0  0.10009315879E-02 -0.12336302442E-02  0.34890056837E-01  0.34926204685E-01  0.00000000000E+00 0. -1.
</event>
<event>
 5   0  0.4146200E+04  0.9118800E+02  0.7546771E-02  0.1180000E+00
      -11   -1    0    0    0    0  0.00000000000E+00  0.00000000000E+00  0.34996269501E-01  0.35000000000E-01  0.51099999109E-03 0.  1.
       11   -1    0    0    0    0 -0.00000000000E+00 -0.00000000000E+00 -0.34996269501E-01  0.35000000000E-01  0.51099999109E-03 0. -1.
       22    1    1    2    0    0 -0.16436566671E-03 -0.37692855489E-03 -0.54343397035E-02  0.54498751564E-02  0.00000000000E+00 0.  1.
       22    1    1    2    0    0  0.96595013233E-02 -0.42635418886E-02  0.33201381175E-01  0.34839854580E-01  0.00000000000E+00 0.  1.
       22    1    1    2    0    0 -0.94951356566E-02  0.46404704435E-02 -0.27767041471E-01  0.29710270264E-01  0.00000000000E+00 0. -1.
</event>
<event>
 5   0  0.4146200E+04  0.9118800E+02  0.7546771E-02  0.1180000E+00
      -11   -1    0    0    0    0  0.00000000000E+00  0.00000000000E+00  0.34996269501E-01  0.35000000000E-01  0.51099999109E-03 0.  1.
       11   -1    0    0    0    0 -0.00000000000E+00 -0.00000000000E+00 -0.34996269501E-01  0.35000000000E-01  0.51099999109E-03 0.  1.
       22    1    1    2    0    0  0.55751864207E-03 -0.69267689525E-03 -0.34348714613E-01  0.34360221535E-01  0.00000000000E+00 0.  1.
       22    1    1    2    0    0 -0.13447768516E-03  0.46473168820E-03  0.34902906102E-01  0.34906258954E-01  0.00000000000E+00 0.  1.
       22    1    1    2    0    0 -0.42304095691E-03  0.22794520704E-03 -0.55419148827E-03  0.73351951188E-03  0.00000000000E+00 0. -1.
</event>
<event>
 5   0  0.4146200E+04  0.9118800E+02  0.7546771E-02  0.1180000E+00
      -11   -1    0    0    0    0  0.00000000000E+00  0.00000000000E+00  0.34996269501E-01  0.35000000000E-01  0.51099999109E-03 0.  1.
       11   -1    0    0    0    0 -0.00000000000E+00 -0.00000000000E+00 -0.34996269501E-01  0.35000000000E-01  0.51099999109E-03 0. -1.
       22    1    1    2    0    0  0.14758965353E-01  0.63152060770E-02 -0.31026720570E-01  0.34933741217E-01  0.00000000000E+00 0. -1.
       22    1    1    2    0    0 -0.14875335733E-01 -0.63924886526E-02  0.30633578929E-01  0.34649035807E-01  0.00000000000E+00 0.  1.
       22    1    1    2    0    0  0.11637038026E-03  0.77282575582E-04  0.39314164085E-03  0.41722297595E-03  0.00000000000E+00 0. -1.
</event>
<event>
 5   0  0.4146200E+04  0.9118800E+02  0.7546771E-02  0.1180000E+00
      -11   -1    0    0    0    0  0.00000000000E+00  0.00000000000E+00  0.34996269501E-01  0.35000000000E-01  0.51099999109E-03 0.  1.
       11   -1    0    0    0    0 -0.00000000000E+00 -0.00000000000E+00 -0.34996269501E-01  0.35000000000E-01  0.51099999109E-03 0. -1.
       22    1    1    2    0    0  0.47094982164E-03 -0.70161529679E-03  0.34859986089E-01  0.34870226382E-01  0.00000000000E+00 0.  1.
       22    1    1    2    0    0 -0.10739145427E-03  0.11898938783E-02 -0.34240154405E-01  0.34260991726E-01  0.00000000000E+00 0. -1.
       22    1    1    2    0    0 -0.36355836737E-03 -0.48827858155E-03 -0.61983168469E-03  0.86878189266E-03  0.00000000000E+00 0. -1.
</event>
<event>
 5   0  0.4146200E+04  0.9118800E+02  0.7546771E-02  0.1180000E+00
      -11   -1    0    0    0    0  0.00000000000E+00  0.00000000000E+00  0.34996269501E-01  0.35000000000E-01  0.51099999109E-03 0.  1.
       11   -1    0    0    0    0 -0.00000000000E+00 -0.00000000000E+00 -0.34996269501E-01  0.35000000000E-01  0.51099999109E-03 0. -1.
       22    1    1    2    0    0 -0.90280686961E-02 -0.56536816231E-03 -0.20879120096E-02  0.92835899360E-02  0.00000000000E+00 0. -1.
       22    1    1    2    0    0  0.85789734402E-02 -0.16069125252E-01 -0.23782042409E-01  0.29956653899E-01  0.00000000000E+00 0. -1.
       22    1    1    2    0    0  0.44909525586E-03  0.16634493415E-01  0.25869954419E-01  0.30759756165E-01  0.00000000000E+00 0.  1.
</event>
<event>
 5   0  0.4146200E+04  0.9118800E+02  0.7546771E-02  0.1180000E+00
      -11   -1    0    0    0    0  0.00000000000E+00  0.00000000000E+00  0.34996269501E-01  0.35000000000E-01  0.51099999109E-03 0.  1.
       11   -1    0    0    0    0 -0.00000000000E+00 -0.00000000000E+00 -0.34996269501E-01  0.35000000000E-01  0.51099999109E-03 0. -1.
       22    1    1    2    0    0 -0.49279720987E-03 -0.27006094745E-03  0.86429939882E-02  0.86612428141E-02  0.00000000000E+00 0.  1.
       22    1    1    2    0    0  0.20072988450E-01  0.12981554090E-01 -0.23617680152E-01  0.33604172772E-01  0.00000000000E+00 0. -1.
       22    1    1    2    0    0 -0.19580191240E-01 -0.12711493143E-01  0.14974686163E-01  0.27734584414E-01  0.00000000000E+00 0.  1.
</event>
<event>
 5   0  0.4146200E+04  0.9118800E+02  0.7546771E-02  0.1180000E+00
      -11   -1    0    0    0    0  0.00000000000E+00  0.00000000000E+00  0.34996269501E-01  0.35000000000E-01  0.51099999109E-03 0.  1.
       11   -1    0    0    0    0 -0.00000000000E+00 -0.00000000000E+00 -0.34996269501E-01  0.35000000000E-01  0.51099999109E-03 0. -1.
       22    1    1    2    0    0  0.29984133190E-02  0.73630611094E-02 -0.27980547605E-02  0.84281825903E-02  0.00000000000E+00 0.  1.
       22    1    1    2    0    0 -0.47792554056E-02 -0.88848343621E-02 -0.28475910364E-01  0.30210247184E-01  0.00000000000E+00 0. -1.
       22    1    1    2    0    0  0.17808420866E-02  0.15217732527E-02  0.31273965125E-01  0.31361570225E-01  0.00000000000E+00 0.  1.
</event>
<event>
 5   0  0.4146200E+04  0.9118800E+02  0.7546771E-02  0.1180000E+00
      -11   -1    0    0    0    0  0.00000000000E+00  0.00000000000E+00  0.34996269501E-01  0.35000000000E-01  0.51099999109E-03 0.  1.
       11   -1    0    0    0    0 -0.00000000000E+00 -0.00000000000E+00 -0.34996269501E-01  0.35000000000E-01  0.51099999109E-03 0. -1.
       22    1    1    2    0    0  0.26709770151E-02  0.25917934598E-03  0.34878625263E-01  0.34981706539E-01  0.00000000000E+00 0.  1.
       22    1    1    2    0    0 -0.25563328788E-02 -0.38274893330E-03 -0.34571140508E-01  0.34667637511E-01  0.00000000000E+00 0. -1.
       22    1    1    2    0    0 -0.11464413625E-03  0.12356958732E-03 -0.30748475501E-03  0.35065595026E-03  0.00000000000E+00 0.  1.
</event>
<event>
 5   0  0.4146200E+04  0.9118800E+02  0.7546771E-02  0.1180000E+00
      -11   -1    0    0    0    0  0.00000000000E+00  0.00000000000E+00  0.34996269501E-01  0.35000000000E-01  0.51099999109E-03 0. -1.
       11   -1    0    0    0    0 -0.00000000000E+00 -0.00000000000E+00 -0.34996269501E-01  0.35000000000E-01  0.51099999109E-03 0.  1.
       22    1    1    2    0    0 -0.44953369807E-02  0.66967467062E-02 -0.32955907459E-01  0.33928547087E-01  0.00000000000E+00 0.  1.
       22    1    1    2    0    0  0.64182838235E-03  0.57051653127E-03 -0.89211214262E-03  0.12382636471E-02  0.00000000000E+00 0.  1.
       22    1    1    2    0    0  0.38535085984E-02 -0.72672632375E-02  0.33848019601E-01  0.34833189266E-01  0.00000000000E+00 0. -1.
</event>
<event>
 5   0  0.4146200E+04  0.9118800E+02  0.7546771E-02  0.1180000E+00
      -11   -1    0    0    0    0  0.00000000000E+00  0.00000000000E+00  0.34996269501E-01  0.35000000000E-01  0.51099999109E-03 0.  1.
       11   -1    0    0    0    0 -0.00000000000E+00 -0.00000000000E+00 -0.34996269501E-01  0.35000000000E-01  0.51099999109E-03 0. -1.
       22    1    1    2    0    0 -0.98726798235E-02  0.12753612707E-01  0.30174875611E-01  0.34214727269E-01  0.00000000000E+00 0.  1.
       22    1    1    2    0    0  0.10035509919E-01 -0.11246479834E-01 -0.30683888297E-01  0.34186192666E-01  0.00000000000E+00 0. -1.
       22    1    1    2    0    0 -0.16283009552E-03 -0.15071328733E-02  0.50901268591E-03  0.15990800644E-02  0.00000000000E+00 0.  1.
</event>
<event>
 5   0  0.4146200E+04  0.9118800E+02  0.7546771E-02  0.1180000E+00
      -11   -1    0    0    0    0  0.00000000000E+00  0.00000000000E+00  0.34996269501E-01  0.35000000000E-01  0.51099999109E-03 0.  1.
       11   -1    0    0    0    0 -0.00000000000E+00 -0.00000000000E+00 -0.34996269501E-01  0.35000000000E-01  0.51099999109E-03 0. -1.
       22    1    1    2    0    0 -0.22391648821E-02  0.58238532402E-02 -0.33740383080E-01  0.34312455119E-01  0.00000000000E+00 0. -1.
       22    1    1    2    0    0  0.19840010459E-03 -0.23049912786E-03 -0.68583767474E-03  0.75024380407E-03  0.00000000000E+00 0. -1.
       22    1    1    2    0    0  0.20407647775E-02 -0.55933541124E-02  0.34426220754E-01  0.34937301077E-01  0.00000000000E+00 0.  1.
</event>
<event>
 5   0  0.4146200E+04  0.9118800E+02  0.7546771E-02  0.1180000E+00
      -11   -1    0    0    0    0  0.00000000000E+00  0.00000000000E+00  0.34996269501E-01  0.35000000000E-01  0.51099999109E-03 0.  1.
       11   -1    0    0    0    0 -0.00000000000E+00 -0.00000000000E+00 -0.34996269501E-01  0.35000000000E-01  0.51099999109E-03 0. -1.
       22    1    1    2    0    0  0.48549549881E-02 -0.17649076837E-01  0.29635062804E-01  0.34832419504E-01  0.00000000000E+00 0.  1.
       22    1    1    2    0    0 -0.47606406452E-02  0.17516431406E-01 -0.27041272328E-01  0.32568688608E-01  0.00000000000E+00 0. -1.
       22    1    1    2    0    0 -0.94314342951E-04  0.13264543048E-03 -0.25937904767E-02  0.25988918874E-02  0.00000000000E+00 0. -1.
</event>
<event>
 5   0  0.4146200E+04  0.9118800E+02  0.7546771E-02  0.1180000E+00
      -11   -1    0    0    0    0  0.00000000000E+00  0.00000000000E+00  0.34996269501E-01  0.35000000000E-01  0.51099999109E-03 0. -1.
       11   -1    0    0    0    0 -0.00000000000E+00 -0.00000000000E+00 -0.34996269501E-01  0.35000000000E-01  0.51099999109E-03 0.  1.
       22    1    1    2    0    0  0.42245465735E-03 -0.13851068044E-02 -0.18345759559E-01  0.18402822680E-01  0.00000000000E+00 0.  1.
       22    1    1    2    0    0  0.52237402342E-03 -0.93848718659E-02  0.32474002086E-01  0.33806944643E-01  0.00000000000E+00 0. -1.
       22    1    1    2    0    0 -0.94482868077E-03  0.10769978670E-01 -0.14128242527E-01  0.17790232677E-01  0.00000000000E+00 0.  1.
</event>
<event>
 5   0  0.4146200E+04  0.9118800E+02  0.7546771E-02  0.1180000E+00
      -11   -1    0    0    0    0  0.00000000000E+00  0.00000000000E+00  0.34996269501E-01  0.35000000000E-01  0.51099999109E-03 0.  1.
       11   -1    0    0    0    0 -0.00000000000E+00 -0.00000000000E+00 -0.34996269501E-01  0.35000000000E-01  0.51099999109E-03 0. -1.
       22    1    1    2    0    0  0.17716513673E-01  0.56379687690E-02 -0.25640738180E-01  0.31671896106E-01  0.00000000000E+00 0. -1.
       22    1    1    2    0    0 -0.17933361687E-01 -0.53307195242E-02  0.29237901024E-01  0.34711336596E-01  0.00000000000E+00 0.  1.
       22    1    1    2    0    0  0.21684801408E-03 -0.30724924474E-03 -0.35971628435E-02  0.36167672972E-02  0.00000000000E+00 0.  1.
</event>
<event>
 5   0  0.4146200E+04  0.9118800E+02  0.7546771E-02  0.1180000E+00
      -11   -1    0    0    0    0  0.00000000000E+00  0.00000000000E+00  0.34996269501E-01  0.35000000000E-01  0.51099999109E-03 0.  1.
       11   -1    0    0    0    0 -0.00000000000E+00 -0.00000000000E+00 -0.34996269501E-01  0.35000000000E-01  0.51099999109E-03 0. -1.
       22    1    1    2    0    0  0.11557894573E-01 -0.73451688637E-02 -0.24240803376E-01  0.27841569297E-01  0.00000000000E+00 0. -1.
       22    1    1    2    0    0 -0.11381787283E-01  0.76422726923E-02  0.31780197136E-01  0.34611130343E-01  0.00000000000E+00 0.  1.
       22    1    1    2    0    0 -0.17610729036E-03 -0.29710382864E-03 -0.75393937595E-02  0.75473003600E-02  0.00000000000E+00 0.  1.
</event>
<event>
 5   0  0.4146200E+04  0.9118800E+02  0.7546771E-02  0.1180000E+00
      -11   -1    0    0    0    0  0.00000000000E+00  0.00000000000E+00  0.34996269501E-01  0.35000000000E-01  0.51099999109E-03 0. -1.
       11   -1    0    0    0    0 -0.00000000000E+00 -0.00000000000E+00 -0.34996269501E-01  0.35000000000E-01  0.51099999109E-03 0.  1.
       22    1    1    2    0    0 -0.67597576512E-02 -0.59636624170E-02  0.33295923064E-01  0.34494609515E-01  0.00000000000E+00 0. -1.
       22    1    1    2    0    0 -0.51059425133E-03  0.42528931559E-03 -0.15366698272E-01  0.15381059563E-01  0.00000000000E+00 0. -1.
       22    1    1    2    0    0  0.72703519025E-02  0.55383731014E-02 -0.17929224792E-01  0.20124330922E-01  0.00000000000E+00 0.  1.
</event>
<event>
 5   0  0.4146200E+04  0.9118800E+02  0.7546771E-02  0.1180000E+00
      -11   -1    0    0    0    0  0.00000000000E+00  0.00000000000E+00  0.34996269501E-01  0.35000000000E-01  0.51099999109E-03 0. -1.
       11   -1    0    0    0    0 -0.00000000000E+00 -0.00000000000E+00 -0.34996269501E-01  0.35000000000E-01  0.51099999109E-03 0.  1.
       22    1    1    2    0    0  0.74909075509E-02 -0.92332171560E-02  0.21447934402E-01  0.24523048038E-01  0.00000000000E+00 0. -1.
       22    1    1    2    0    0 -0.49263639639E-03 -0.59847306135E-03  0.10912243056E-01  0.10939739903E-01  0.00000000000E+00 0. -1.
       22    1    1    2    0    0 -0.69982711545E-02  0.98316902173E-02 -0.32360177458E-01  0.34537212059E-01  0.00000000000E+00 0.  1.
</event>
<event>
 5   0  0.4146200E+04  0.9118800E+02  0.7546771E-02  0.1180000E+00
      -11   -1    0    0    0    0  0.00000000000E+00  0.00000000000E+00  0.34996269501E-01  0.35000000000E-01  0.51099999109E-03 0.  1.
       11   -1    0    0    0    0 -0.00000000000E+00 -0.00000000000E+00 -0.34996269501E-01  0.35000000000E-01  0.51099999109E-03 0. -1.
       22    1    1    2    0    0 -0.24243669807E-02  0.33459173169E-03 -0.94998633216E-02  0.98100412849E-02  0.00000000000E+00 0.  1.
       22    1    1    2    0    0 -0.50803716036E-02 -0.70812744727E-02  0.33256126644E-01  0.34379130052E-01  0.00000000000E+00 0.  1.
       22    1    1    2    0    0  0.75047385843E-02  0.67466827410E-02 -0.23756263322E-01  0.25810828663E-01  0.00000000000E+00 0. -1.
</event>
<event>
 5   0  0.4146200E+04  0.9118800E+02  0.7546771E-02  0.1180000E+00
      -11   -1    0    0    0    0  0.00000000000E+00  0.00000000000E+00  0.34996269501E-01  0.35000000000E-01  0.51099999109E-03 0.  1.
       11   -1    0    0    0    0 -0.00000000000E+00 -0.00000000000E+00 -0.34996269501E-01  0.35000000000E-01  0.51099999109E-03 0. -1.
       22    1    1    2    0    0  0.55329850321E-02 -0.14173792093E-01  0.29498801579E-01  0.33191709812E-01  0.00000000000E+00 0.  1.
       22    1    1    2    0    0  0.41983777208E-04 -0.14911719619E-04  0.19020206465E-02  0.19025423876E-02  0.00000000000E+00 0. -1.
       22    1    1    2    0    0 -0.55749688093E-02  0.14188703813E-01 -0.31400822225E-01  0.34905747801E-01  0.00000000000E+00 0. -1.
</event>
<event>
 5   0  0.4146200E+04  0.9118800E+02  0.7546771E-02  0.1180000E+00
      -11   -1    0    0    0    0  0.00000000000E+00  0.00000000000E+00  0.34996269501E-01  0.35000000000E-01  0.51099999109E-03 0.  1.
       11   -1    0    0    0    0 -0.00000000000E+00 -0.00000000000E+00 -0.34996269501E-01  0.35000000000E-01  0.51099999109E-03 0. -1.
       22    1    1    2    0    0 -0.40376290406E-03  0.16626541380E-03 -0.11617357747E-02  0.12410877007E-02  0.00000000000E+00 0.  1.
       22    1    1    2    0    0  0.91935137429E-02 -0.44114729841E-02 -0.32316252977E-01  0.33886900055E-01  0.00000000000E+00 0. -1.
       22    1    1    2    0    0 -0.87897508389E-02  0.42452075703E-02  0.33477988752E-01  0.34872012245E-01  0.00000000000E+00 0.  1.
</event>
<event>
 5   0  0.4146200E+04  0.9118800E+02  0.7546771E-02  0.1180000E+00
      -11   -1    0    0    0    0  0.00000000000E+00  0.00000000000E+00  0.34996269501E-01  0.35000000000E-01  0.51099999109E-03 0. -1.
       11   -1    0    0    0    0 -0.00000000000E+00 -0.00000000000E+00 -0.34996269501E-01  0.35000000000E-01  0.51099999109E-03 0.  1.
       22    1    1    2    0    0 -0.31768002405E-02 -0.33676540104E-02  0.12081110491E-01  0.12937788991E-01  0.00000000000E+00 0. -1.
       22    1    1    2    0    0  0.13664224563E-01  0.12170522208E-01 -0.29617118873E-01  0.34813881916E-01  0.00000000000E+00 0.  1.
       22    1    1    2    0    0 -0.10487424322E-01 -0.88028681977E-02  0.17536008382E-01  0.22248329093E-01  0.00000000000E+00 0. -1.
</event>
<event>
 5   0  0.4146200E+04  0.9118800E+02  0.7546771E-02  0.1180000E+00
      -11   -1    0    0    0    0  0.00000000000E+00  0.00000000000E+00  0.34996269501E-01  0.35000000000E-01  0.51099999109E-03 0. -1.
       11   -1    0    0    0    0 -0.00000000000E+00 -0.00000000000E+00 -0.34996269501E-01  0.35000000000E-01  0.51099999109E-03 0.  1.
       22    1    1    2    0    0  0.12721395547E-03 -0.44760687566E-03 -0.28554830006E-01  0.28558621325E-01  0.00000000000E+00 0.  1.
       22    1    1    2    0    0 -0.23256265546E-02 -0.28296349463E-02 -0.58005140704E-02  0.68601265500E-02  0.00000000000E+00 0.  1.
       22    1    1    2    0    0  0.21984125991E-02  0.32772418220E-02  0.34355344077E-01  0.34581252125E-01  0.00000000000E+00 0. -1.
</event>
<event>
 5   0  0.4146200E+04  0.9118800E+02  0.7546771E-02  0.1180000E+00
      -11   -1    0    0    0    0  0.00000000000E+00  0.00000000000E+00  0.34996269501E-01  0.35000000000E-01  0.51099999109E-03 0.  1.
       11   -1    0    0    0    0 -0.00000000000E+00 -0.00000000000E+00 -0.34996269501E-01  0.35000000000E-01  0.51099999109E-03 0. -1.
       22    1    1    2    0    0  0.59113081152E-02  0.14725893752E-01 -0.29363824817E-01  0.33377083730E-01  0.00000000000E+00 0. -1.
       22    1    1    2    0    0 -0.61220034467E-02 -0.14584952756E-01  0.13609862600E-01  0.20866914796E-01  0.00000000000E+00 0.  1.
       22    1    1    2    0    0  0.21069533156E-03 -0.14094099590E-03  0.15753962217E-01  0.15756001474E-01  0.00000000000E+00 0.  1.
</event>
<event>
 5   0  0.4146200E+04  0.9118800E+02  0.7546771E-02  0.1180000E+00
      -11   -1    0    0    0    0  0.00000000000E+00  0.00000000000E+00  0.34996269501E-01  0.35000000000E-01  0.51099999109E-03 0.  1.
       11   -1    0    0    0    0 -0.00000000000E+00 -0.00000000000E+00 -0.34996269501E-01  0.35000000000E-01  0.51099999109E-03 0. -1.
       22    1    1    2    0    0  0.74054817167E-02  0.13034696979E-01  0.30422130475E-01  0.33915343245E-01  0.00000000000E+00 0.  1.
       22    1    1    2    0    0 -0.12672594194E-02  0.70955106057E-03  0.62483849090E-03  0.15810857926E-02  0.00000000000E+00 0.  1.
       22    1    1    2    0    0 -0.61382222972E-02 -0.13744248040E-01 -0.31046968966E-01  0.34503570962E-01  0.00000000000E+00 0. -1.
</event>
<event>
 5   0  0.4146200E+04  0.9118800E+02  0.7546771E-02  0.1180000E+00
      -11   -1    0    0    0    0  0.00000000000E+00  0.00000000000E+00  0.34996269501E-01  0.35000000000E-01  0.51099999109E-03 0. -1.
       11   -1    0    0    0    0 -0.00000000000E+00 -0.00000000000E+00 -0.34996269501E-01  0.35000000000E-01  0.51099999109E-03 0.  1.
       22    1    1    2    0    0 -0.22919760518E-02  0.26895103190E-02  0.49393339542E-02  0.60731902563E-02  0.00000000000E+00 0. -1.
       22    1    1    2    0    0  0.10583773845E-01 -0.10032916867E-01 -0.31738693123E-01  0.34928789427E-01  0.00000000000E+00 0.  1.
       22    1    1    2    0    0 -0.82917977937E-02  0.73434065483E-02  0.26799359169E-01  0.28998020316E-01  0.00000000000E+00 0. -1.
</event>
<event>
 5   0  0.4146200E+04  0.9118800E+02  0.7546771E-02  0.1180000E+00
      -11   -1    0    0    0    0  0.00000000000E+00  0.00000000000E+00  0.34996269501E-01  0.35000000000E-01  0.51099999109E-03 0.  1.
       11   -1    0    0    0    0 -0.00000000000E+00 -0.00000000000E+00 -0.34996269501E-01  0.35000000000E-01  0.51099999109E-03 0. -1.
       22    1    1    2    0    0  0.96441242891E-03 -0.59849852864E-03  0.15734545552E-01  0.15775430757E-01  0.00000000000E+00 0.  1.
       22    1    1    2    0    0 -0.12740215274E-01 -0.25587753714E-02 -0.31628096578E-01  0.34193521459E-01  0.00000000000E+00 0. -1.
       22    1    1    2    0    0  0.11775802845E-01  0.31572739000E-02  0.15893551026E-01  0.20031047784E-01  0.00000000000E+00 0.  1.
</event>
<event>
 5   0  0.4146200E+04  0.9118800E+02  0.7546771E-02  0.1180000E+00
      -11   -1    0    0    0    0  0.00000000000E+00  0.00000000000E+00  0.34996269501E-01  0.35000000000E-01  0.51099999109E-03 0.  1.
       11   -1    0    0    0    0 -0.00000000000E+00 -0.00000000000E+00 -0.34996269501E-01  0.35000000000E-01  0.51099999109E-03 0. -1.
       22    1    1    2    0    0 -0.12987758575E-01  0.60484599838E-02  0.31543586830E-01  0.34644820840E-01  0.00000000000E+00 0.  1.
       22    1    1    2    0    0 -0.86744906484E-03 -0.46433409972E-04 -0.17710387493E-02  0.19726130368E-02  0.00000000000E+00 0.  1.
       22    1    1    2    0    0  0.13855207639E-01 -0.60020265739E-02 -0.29772548081E-01  0.33382566123E-01  0.00000000000E+00 0. -1.
</event>
<event>
 5   0  0.4146200E+04  0.9118800E+02  0.7546771E-02  0.1180000E+00
      -11   -1    0    0    0    0  0.00000000000E+00  0.00000000000E+00  0.34996269501E-01  0.35000000000E-01  0.51099999109E-03 0. -1.
       11   -1    0    0    0    0 -0.00000000000E+00 -0.00000000000E+00 -0.34996269501E-01  0.35000000000E-01  0.51099999109E-03 0.  1.
       22    1    1    2    0    0  0.15508217892E-01 -0.82419095163E-02  0.30254862668E-01  0.34982718730E-01  0.00000000000E+00 0. -1.
       22    1    1    2    0    0 -0.14855046952E-01  0.78978812390E-02 -0.29507602879E-01  0.33966859962E-01  0.00000000000E+00 0.  1.
       22    1    1    2    0    0 -0.65317094038E-03  0.34402827736E-03 -0.74725978848E-03  0.10504213081E-02  0.00000000000E+00 0. -1.
</event>
<event>
 5   0  0.4146200E+04  0.9118800E+02  0.7546771E-02  0.1180000E+00
      -11   -1    0    0    0    0  0.00000000000E+00  0.00000000000E+00  0.34996269501E-01  0.35000000000E-01  0.51099999109E-03 0.  1.
       11   -1    0    0    0    0 -0.00000000000E+00 -0.00000000000E+00 -0.34996269501E-01  0.35000000000E-01  0.51099999109E-03 0. -1.
       22    1    1    2    0    0 -0.62842902910E-02  0.98026333119E-02 -0.32653234902E-01  0.34667242086E-01  0.00000000000E+00 0. -1.
       22    1    1    2    0    0  0.18642415467E-03 -0.19209551737E-03 -0.33927188696E-03  0.43215745570E-03  0.00000000000E+00 0. -1.
       22    1    1    2    0    0  0.60978661364E-02 -0.96105377946E-02  0.32992506789E-01  0.34900600458E-01  0.00000000000E+00 0.  1.
</event>
<event>
 5   0  0.4146200E+04  0.9118800E+02  0.7546771E-02  0.1180000E+00
      -11   -1    0    0    0    0  0.00000000000E+00  0.00000000000E+00  0.34996269501E-01  0.35000000000E-01  0.51099999109E-03 0.  1.
       11   -1    0    0    0    0 -0.00000000000E+00 -0.00000000000E+00 -0.34996269501E-01  0.35000000000E-01  0.51099999109E-03 0. -1.
       22    1    1    2    0    0 -0.51711988089E-02 -0.35308138851E-02 -0.16515333439E-01  0.17662507817E-01  0.00000000000E+00 0. -1.
       22    1    1    2    0    0  0.10540556306E-02  0.23604212315E-01 -0.32703813880E-02  0.23852992825E-01  0.00000000000E+00 0. -1.
       22    1    1    2    0    0  0.41171431784E-02 -0.20073398430E-01  0.19785714827E-01  0.28484499358E-01  0.00000000000E+00 0.  1.
</event>
<event>
 5   0  0.4146200E+04  0.9118800E+02  0.7546771E-02  0.1180000E+00
      -11   -1    0    0    0    0  0.00000000000E+00  0.00000000000E+00  0.34996269501E-01  0.35000000000E-01  0.51099999109E-03 0. -1.
       11   -1    0    0    0    0 -0.00000000000E+00 -0.00000000000E+00 -0.34996269501E-01  0.35000000000E-01  0.51099999109E-03 0.  1.
       22    1    1    2    0    0 -0.13915999993E-03  0.76391505678E-03  0.62313893416E-03  0.99560727741E-03  0.00000000000E+00 0. -1.
       22    1    1    2    0    0 -0.11708684238E-01 -0.82659302593E-02 -0.31766140185E-01  0.34849771189E-01  0.00000000000E+00 0.  1.
       22    1    1    2    0    0  0.11847844238E-01  0.75020152025E-02  0.31143001251E-01  0.34154621534E-01  0.00000000000E+00 0. -1.
</event>
<event>
 5   0  0.4146200E+04  0.9118800E+02  0.7546771E-02  0.1180000E+00
      -11   -1    0    0    0    0  0.00000000000E+00  0.00000000000E+00  0.34996269501E-01  0.35000000000E-01  0.51099999109E-03 0. -1.
       11   -1    0    0    0    0 -0.00000000000E+00 -0.00000000000E+00 -0.34996269501E-01  0.35000000000E-01  0.51099999109E-03 0.  1.
       22    1    1    2    0    0  0.12448050580E-02 -0.10117310810E-02 -0.17661886651E-01  0.17734581458E-01  0.00000000000E+00 0.  1.
       22    1    1    2    0    0  0.26595132298E-02  0.80167319723E-02  0.33480822629E-01  0.34529791283E-01  0.00000000000E+00 0. -1.
       22    1    1    2    0    0 -0.39043182878E-02 -0.70050008913E-02 -0.15818935978E-01  0.17735627259E-01  0.00000000000E+00 0.  1.
</event>
<event>
 5   0  0.4146200E+04  0.9118800E+02  0.7546771E-02  0.1180000E+00
      -11   -1    0    0    0    0  0.00000000000E+00  0.00000000000E+00  0.34996269501E-01  0.35000000000E-01  0.51099999109E-03 0. -1.
       11   -1    0    0    0    0 -0.00000000000E+00 -0.00000000000E+00 -0.34996269501E-01  0.35000000000E-01  0.51099999109E-03 0.  1.
       22    1    1    2    0    0  0.17173287031E-01 -0.59347489591E-02  0.29479850712E-01  0.34629534081E-01  0.00000000000E+00 0. -1.
       22    1    1    2    0    0 -0.25531250277E-03 -0.57175326261E-04  0.42158035725E-03  0.49616881162E-03  0.00000000000E+00 0. -1.
       22    1    1    2    0    0 -0.16917974529E-01  0.59919242853E-02 -0.29901431069E-01  0.34874297108E-01  0.00000000000E+00 0.  1.
</event>
<event>
 5   0  0.4146200E+04  0.9118800E+02  0.7546771E-02  0.1180000E+00
      -11   -1    0    0    0    0  0.00000000000E+00  0.00000000000E+00  0.34996269501E-01  0.35000000000E-01  0.51099999109E-03 0. -1.
       11   -1    0    0    0    0 -0.00000000000E+00 -0.00000000000E+00 -0.34996269501E-01  0.35000000000E-01  0.51099999109E-03 0.  1.
       22    1    1    2    0    0  0.10440812210E-01  0.46912357877E-02  0.32689203816E-01  0.34635275355E-01  0.00000000000E+00 0. -1.
       22    1    1    2    0    0 -0.10377778517E-01 -0.47089417408E-02 -0.33069903804E-01  0.34978435598E-01  0.00000000000E+00 0.  1.
       22    1    1    2    0    0 -0.63033692365E-04  0.17705953149E-04  0.38069998770E-03  0.38628904694E-03  0.00000000000E+00 0. -1.
</event>
<event>
 5   0  0.4146200E+04  0.9118800E+02  0.7546771E-02  0.1180000E+00
      -11   -1    0    0    0    0  0.00000000000E+00  0.00000000000E+00  0.34996269501E-01  0.35000000000E-01  0.51099999109E-03 0. -1.
       11   -1    0    0    0    0 -0.00000000000E+00 -0.00000000000E+00 -0.34996269501E-01  0.35000000000E-01  0.51099999109E-03 0. -1.
       22    1    1    2    0    0 -0.21589432791E-03  0.18400362691E-02 -0.33724634221E-02  0.38478374922E-02  0.00000000000E+00 0.  1.
       22    1    1    2    0    0  0.96049868104E-04 -0.51272692966E-04 -0.31366640613E-01  0.31366829579E-01  0.00000000000E+00 0. -1.
       22    1    1    2    0    0  0.11984445980E-03 -0.17887635762E-02  0.34739104035E-01  0.34785332929E-01  0.00000000000E+00 0. -1.
</event>
<event>
 5   0  0.4146200E+04  0.9118800E+02  0.7546771E-02  0.1180000E+00
      -11   -1    0    0    0    0  0.00000000000E+00  0.00000000000E+00  0.34996269501E-01  0.35000000000E-01  0.51099999109E-03 0.  1.
       11   -1    0    0    0    0 -0.00000000000E+00 -0.00000000000E+00 -0.34996269501E-01  0.35000000000E-01  0.51099999109E-03 0. -1.
       22    1    1    2    0    0 -0.95078530715E-04  0.14655377726E-03 -0.30707756156E-03  0.35329104920E-03  0.00000000000E+00 0. -1.
       22    1    1    2    0    0  0.75798584139E-03  0.35706628287E-02 -0.34471267042E-01  0.34663993236E-01  0.00000000000E+00 0. -1.
       22    1    1    2    0    0 -0.66290731067E-03 -0.37172166059E-02  0.34778344604E-01  0.34982715715E-01  0.00000000000E+00 0.  1.
</event>
<event>
 5   0  0.4146200E+04  0.9118800E+02  0.7546771E-02  0.1180000E+00
      -11   -1    0    0    0    0  0.00000000000E+00  0.00000000000E+00  0.34996269501E-01  0.35000000000E-01  0.51099999109E-03 0. -1.
       11   -1    0    0    0    0 -0.00000000000E+00 -0.00000000000E+00 -0.34996269501E-01  0.35000000000E-01  0.51099999109E-03 0. -1.
       22    1    1    2    0    0 -0.16864424186E-02 -0.12276378057E-02  0.34816005891E-01  0.34878438165E-01  0.00000000000E+00 0. -1.
       22    1    1    2    0    0  0.97235654849E-03  0.27186467591E-03 -0.16519974545E-02  0.19361000101E-02  0.00000000000E+00 0.  1.
       22    1    1    2    0    0  0.71408587011E-03  0.95577312982E-03 -0.33164008437E-01  0.33185461825E-01  0.00000000000E+00 0. -1.
</event>
<event>
 5   0  0.4146200E+04  0.9118800E+02  0.7546771E-02  0.1180000E+00
      -11   -1    0    0    0    0  0.00000000000E+00  0.00000000000E+00  0.34996269501E-01  0.35000000000E-01  0.51099999109E-03 0.  1.
       11   -1    0    0    0    0 -0.00000000000E+00 -0.00000000000E+00 -0.34996269501E-01  0.35000000000E-01  0.51099999109E-03 0. -1.
       22    1    1    2    0    0 -0.34127721543E-02 -0.95646543432E-03  0.19711798327E-02  0.40555381686E-02  0.00000000000E+00 0.  1.
       22    1    1    2    0    0 -0.60538180878E-03  0.19016889665E-01 -0.28095568435E-01  0.33931836752E-01  0.00000000000E+00 0. -1.
       22    1    1    2    0    0  0.40181539630E-02 -0.18060424231E-01  0.26124388602E-01  0.32012625080E-01  0.00000000000E+00 0.  1.
</event>
<event>
 5   0  0.4146200E+04  0.9118800E+02  0.7546771E-02  0.1180000E+00
      -11   -1    0    0    0    0  0.00000000000E+00  0.00000000000E+00  0.34996269501E-01  0.35000000000E-01  0.51099999109E-03 0. -1.
       11   -1    0    0    0    0 -0.00000000000E+00 -0.00000000000E+00 -0.34996269501E-01  0.35000000000E-01  0.51099999109E-03 0.  1.
       22    1    1    2    0    0  0.12347846795E-01 -0.13316524619E-01 -0.29834911903E-01  0.34927369163E-01  0.00000000000E+00 0.  1.
       22    1    1    2    0    0 -0.14973409631E-03 -0.18793002889E-03  0.38978898727E-03  0.45790113557E-03  0.00000000000E+00 0. -1.
       22    1    1    2    0    0 -0.12198112699E-01  0.13504454648E-01  0.29445122916E-01  0.34614729701E-01  0.00000000000E+00 0. -1.
</event>
<event>
 5   0  0.4146200E+04  0.9118800E+02  0.7546771E-02  0.1180000E+00
      -11   -1    0    0    0    0  0.00000000000E+00  0.00000000000E+00  0.34996269501E-01  0.35000000000E-01  0.51099999109E-03 0. -1.
       11   -1    0    0    0    0 -0.00000000000E+00 -0.00000000000E+00 -0.34996269501E-01  0.35000000000E-01  0.51099999109E-03 0.  1.
       22    1    1    2    0    0  0.30824775355E-02  0.14857960449E-02 -0.29794046676E-02  0.45371918426E-02  0.00000000000E+00 0.  1.
       22    1    1    2    0    0 -0.18073082182E-01  0.85680822437E-02 -0.25092531910E-01  0.32088681659E-01  0.00000000000E+00 0.  1.
       22    1    1    2    0    0  0.14990604647E-01 -0.10053878289E-01  0.28071936578E-01  0.33374126499E-01  0.00000000000E+00 0. -1.
</event>
<event>
 5   0  0.4146200E+04  0.9118800E+02  0.7546771E-02  0.1180000E+00
      -11   -1    0    0    0    0  0.00000000000E+00  0.00000000000E+00  0.34996269501E-01  0.35000000000E-01  0.51099999109E-03 0.  1.
       11   -1    0    0    0    0 -0.00000000000E+00 -0.00000000000E+00 -0.34996269501E-01  0.35000000000E-01  0.51099999109E-03 0.  1.
       22    1    1    2    0    0  0.92221557033E-02 -0.18190137305E-01  0.13475606532E-01  0.24444247226E-01  0.00000000000E+00 0. -1.
       22    1    1    2    0    0 -0.93477680456E-02  0.17901323840E-01 -0.26059059120E-01  0.32968359450E-01  0.00000000000E+00 0.  1.
       22    1    1    2    0    0  0.12561234231E-03  0.28881346582E-03  0.12583452587E-01  0.12587393324E-01  0.00000000000E+00 0.  1.
</event>
<event>
 5   0  0.4146200E+04  0.9118800E+02  0.7546771E-02  0.1180000E+00
      -11   -1    0    0    0    0  0.00000000000E+00  0.00000000000E+00  0.34996269501E-01  0.35000000000E-01  0.51099999109E-03 0.  1.
       11   -1    0    0    0    0 -0.00000000000E+00 -0.00000000000E+00 -0.34996269501E-01  0.35000000000E-01  0.51099999109E-03 0. -1.
       22    1    1    2    0    0 -0.77377841115E-02 -0.22609031457E-01  0.24737389902E-01  0.34394477254E-01  0.00000000000E+00 0.  1.
       22    1    1    2    0    0  0.76665304424E-02  0.22604965561E-01 -0.25448370509E-01  0.34890969012E-01  0.00000000000E+00 0. -1.
       22    1    1    2    0    0  0.71253669077E-04  0.40658959198E-05  0.71098060647E-03  0.71455373461E-03  0.00000000000E+00 0.  1.
</event>
<event>
 5   0  0.4146200E+04  0.9118800E+02  0.7546771E-02  0.1180000E+00
      -11   -1    0    0    0    0  0.00000000000E+00  0.00000000000E+00  0.34996269501E-01  0.35000000000E-01  0.51099999109E-03 0. -1.
       11   -1    0    0    0    0 -0.00000000000E+00 -0.00000000000E+00 -0.34996269501E-01  0.35000000000E-01  0.51099999109E-03 0.  1.
       22    1    1    2    0    0 -0.59586249831E-02  0.71909246839E-03  0.33634876136E-01  0.34166170378E-01  0.00000000000E+00 0. -1.
       22    1    1    2    0    0 -0.99949531329E-03  0.33962456590E-02 -0.16663838605E-01  0.17035756294E-01  0.00000000000E+00 0. -1.
       22    1    1    2    0    0  0.69581202964E-02 -0.41153381274E-02 -0.16971037530E-01  0.18798073327E-01  0.00000000000E+00 0.  1.
</event>
<event>
 5   0  0.4146200E+04  0.9118800E+02  0.7546771E-02  0.1180000E+00
      -11   -1    0    0    0    0  0.00000000000E+00  0.00000000000E+00  0.34996269501E-01  0.35000000000E-01  0.51099999109E-03 0. -1.
       11   -1    0    0    0    0 -0.00000000000E+00 -0.00000000000E+00 -0.34996269501E-01  0.35000000000E-01  0.51099999109E-03 0.  1.
       22    1    1    2    0    0 -0.87096193600E-02 -0.31027464126E-02  0.32588752570E-01  0.33874936144E-01  0.00000000000E+00 0. -1.
       22    1    1    2    0    0  0.83025151959E-02  0.74694247007E-06 -0.86760423076E-02  0.12008558167E-01  0.00000000000E+00 0.  1.
       22    1    1    2    0    0  0.40710416411E-03  0.31019994701E-02 -0.23912710263E-01  0.24116505688E-01  0.00000000000E+00 0. -1.
</event>
<event>
 5   0  0.4146200E+04  0.9118800E+02  0.7546771E-02  0.1180000E+00
      -11   -1    0    0    0    0  0.00000000000E+00  0.00000000000E+00  0.34996269501E-01  0.35000000000E-01  0.51099999109E-03 0.  1.
       11   -1    0    0    0    0 -0.00000000000E+00 -0.00000000000E+00 -0.34996269501E-01  0.35000000000E-01  0.51099999109E-03 0. -1.
       22    1    1    2    0    0  0.23859142370E-02  0.19484678984E-02 -0.78468969987E-02  0.84298817551E-02  0.00000000000E+00 0. -1.
       22    1    1    2    0    0  0.10314084961E-01  0.39946202107E-02 -0.24190185097E-01  0.26598917163E-01  0.00000000000E+00 0. -1.
       22    1    1    2    0    0 -0.12699999198E-01 -0.59430881091E-02  0.32037082096E-01  0.34971201082E-01  0.00000000000E+00 0.  1.
</event>
<event>
 5   0  0.4146200E+04  0.9118800E+02  0.7546771E-02  0.1180000E+00
      -11   -1    0    0    0    0  0.00000000000E+00  0.00000000000E+00  0.34996269501E-01  0.35000000000E-01  0.51099999109E-03 0. -1.
       11   -1    0    0    0    0 -0.00000000000E+00 -0.00000000000E+00 -0.34996269501E-01  0.35000000000E-01  0.51099999109E-03 0.  1.
       22    1    1    2    0    0  0.17484985134E-03 -0.67310791439E-02 -0.70770054070E-02  0.97684187278E-02  0.00000000000E+00 0. -1.
       22    1    1    2    0    0 -0.14471182124E-01 -0.16911124641E-01  0.19822434496E-01  0.29804868026E-01  0.00000000000E+00 0. -1.
       22    1    1    2    0    0  0.14296332273E-01  0.23642203785E-01 -0.12745429090E-01  0.30426713246E-01  0.00000000000E+00 0.  1.
</event>
<event>
 5   0  0.4146200E+04  0.9118800E+02  0.7546771E-02  0.1180000E+00
      -11   -1    0    0    0    0  0.00000000000E+00  0.00000000000E+00  0.34996269501E-01  0.35000000000E-01  0.51099999109E-03 0.  1.
       11   -1    0    0    0    0 -0.00000000000E+00 -0.00000000000E+00 -0.34996269501E-01  0.35000000000E-01  0.51099999109E-03 0. -1.
       22    1    1    2    0    0 -0.17419461223E-02  0.18619722805E-02 -0.28851850984E-02  0.38504038903E-02  0.00000000000E+00 0. -1.
       22    1    1    2    0    0  0.17899210123E-02  0.24957147009E-02  0.34298350821E-01  0.34435581571E-01  0.00000000000E+00 0.  1.
       22    1    1    2    0    0 -0.47974890013E-04 -0.43576869814E-02 -0.31413165723E-01  0.31714014538E-01  0.00000000000E+00 0. -1.
</event>
<event>
 5   0  0.4146200E+04  0.9118800E+02  0.7546771E-02  0.1180000E+00
      -11   -1    0    0    0    0  0.00000000000E+00  0.00000000000E+00  0.34996269501E-01  0.35000000000E-01  0.51099999109E-03 0. -1.
       11   -1    0    0    0    0 -0.00000000000E+00 -0.00000000000E+00 -0.34996269501E-01  0.35000000000E-01  0.51099999109E-03 0.  1.
       22    1    1    2    0    0 -0.60245357780E-03 -0.51705897482E-03  0.99585367486E-03  0.12735873895E-02  0.00000000000E+00 0. -1.
       22    1    1    2    0    0  0.59137010262E-02  0.15383211254E-01 -0.30838192648E-01  0.34965828663E-01  0.00000000000E+00 0.  1.
       22    1    1    2    0    0 -0.53112474484E-02 -0.14866152279E-01  0.29842338973E-01  0.33760583947E-01  0.00000000000E+00 0. -1.
</event>
<event>
 5   0  0.4146200E+04  0.9118800E+02  0.7546771E-02  0.1180000E+00
      -11   -1    0    0    0    0  0.00000000000E+00  0.00000000000E+00  0.34996269501E-01  0.35000000000E-01  0.51099999109E-03 0. -1.
       11   -1    0    0    0    0 -0.00000000000E+00 -0.00000000000E+00 -0.34996269501E-01  0.35000000000E-01  0.51099999109E-03 0.  1.
       22    1    1    2    0    0  0.12503917818E-02 -0.58189063500E-03  0.11789930894E-01  0.11870322102E-01  0.00000000000E+00 0.  1.
       22    1    1    2    0    0 -0.15341884076E-01 -0.79786011660E-02 -0.29335368239E-01  0.34052831208E-01  0.00000000000E+00 0.  1.
       22    1    1    2    0    0  0.14091492294E-01  0.85604918010E-02  0.17545437344E-01  0.24076846690E-01  0.00000000000E+00 0. -1.
</event>
<event>
 5   0  0.4146200E+04  0.9118800E+02  0.7546771E-02  0.1180000E+00
      -11   -1    0    0    0    0  0.00000000000E+00  0.00000000000E+00  0.34996269501E-01  0.35000000000E-01  0.51099999109E-03 0.  1.
       11   -1    0    0    0    0 -0.00000000000E+00 -0.00000000000E+00 -0.34996269501E-01  0.35000000000E-01  0.51099999109E-03 0. -1.
       22    1    1    2    0    0  0.10493003787E-01 -0.10997363769E-01  0.31164165442E-01  0.34673481885E-01  0.00000000000E+00 0.  1.
       22    1    1    2    0    0 -0.48711034230E-03 -0.50209625052E-03 -0.77610930649E-04  0.70384699113E-03  0.00000000000E+00 0.  1.
       22    1    1    2    0    0 -0.10005893444E-01  0.11499460020E-01 -0.31086554511E-01  0.34622671124E-01  0.00000000000E+00 0. -1.
</event>
<event>
 5   0  0.4146200E+04  0.9118800E+02  0.7546771E-02  0.1180000E+00
      -11   -1    0    0    0    0  0.00000000000E+00  0.00000000000E+00  0.34996269501E-01  0.35000000000E-01  0.51099999109E-03 0. -1.
       11   -1    0    0    0    0 -0.00000000000E+00 -0.00000000000E+00 -0.34996269501E-01  0.35000000000E-01  0.51099999109E-03 0.  1.
       22    1    1    2    0    0 -0.69689463815E-02 -0.14610008786E-01  0.18028514362E-01  0.24229030119E-01  0.00000000000E+00 0. -1.
       22    1    1    2    0    0  0.12921808893E-02  0.14852985668E-01 -0.29453002458E-01  0.33011517210E-01  0.00000000000E+00 0.  1.
       22    1    1    2    0    0  0.56767654922E-02 -0.24297688207E-03  0.11424488096E-01  0.12759452671E-01  0.00000000000E+00 0. -1.
</event>
<event>
 5   0  0.4146200E+04  0.9118800E+02  0.7546771E-02  0.1180000E+00
      -11   -1    0    0    0    0  0.00000000000E+00  0.00000000000E+00  0.34996269501E-01  0.35000000000E-01  0.51099999109E-03 0.  1.
       11   -1    0    0    0    0 -0.00000000000E+00 -0.00000000000E+00 -0.34996269501E-01  0.35000000000E-01  0.51099999109E-03 0. -1.
       22    1    1    2    0    0 -0.24691978667E-02  0.17709686170E-02  0.57536271493E-05  0.30386347348E-02  0.00000000000E+00 0.  1.
       22    1    1    2    0    0 -0.16809311420E-01  0.12681685645E-01 -0.24701897057E-01  0.32458617029E-01  0.00000000000E+00 0. -1.
       22    1    1    2    0    0  0.19278509286E-01 -0.14452654262E-01  0.24696143430E-01  0.34502748236E-01  0.00000000000E+00 0.  1.
</event>
<event>
 5   0  0.4146200E+04  0.9118800E+02  0.7546771E-02  0.1180000E+00
      -11   -1    0    0    0    0  0.00000000000E+00  0.00000000000E+00  0.34996269501E-01  0.35000000000E-01  0.51099999109E-03 0.  1.
       11   -1    0    0    0    0 -0.00000000000E+00 -0.00000000000E+00 -0.34996269501E-01  0.35000000000E-01  0.51099999109E-03 0. -1.
       22    1    1    2    0    0  0.18489622403E-03 -0.60448209476E-04 -0.40411047012E-03  0.44849288930E-03  0.00000000000E+00 0.  1.
       22    1    1    2    0    0  0.21802518870E-02  0.93229316406E-03 -0.34487519947E-01  0.34568941276E-01  0.00000000000E+00 0. -1.
       22    1    1    2    0    0 -0.23651481110E-02 -0.87184495459E-03  0.34891630417E-01  0.34982565835E-01  0.00000000000E+00 0.  1.
</event>
<event>
 5   0  0.4146200E+04  0.9118800E+02  0.7546771E-02  0.1180000E+00
      -11   -1    0    0    0    0  0.00000000000E+00  0.00000000000E+00  0.34996269501E-01  0.35000000000E-01  0.51099999109E-03 0. -1.
       11   -1    0    0    0    0 -0.00000000000E+00 -0.00000000000E+00 -0.34996269501E-01  0.35000000000E-01  0.51099999109E-03 0.  1.
       22    1    1    2    0    0 -0.12098606116E-02 -0.21564560634E-02 -0.52794856053E-02  0.58298399386E-02  0.00000000000E+00 0.  1.
       22    1    1    2    0    0  0.12544956812E-02 -0.32731766439E-02 -0.29127347917E-01  0.29337515938E-01  0.00000000000E+00 0.  1.
       22    1    1    2    0    0 -0.44635069615E-04  0.54296327073E-02  0.34406833522E-01  0.34832644123E-01  0.00000000000E+00 0. -1.
</event>
<event>
 5   0  0.4146200E+04  0.9118800E+02  0.7546771E-02  0.1180000E+00
      -11   -1    0    0    0    0  0.00000000000E+00  0.00000000000E+00  0.34996269501E-01  0.35000000000E-01  0.51099999109E-03 0.  1.
       11   -1    0    0    0    0 -0.00000000000E+00 -0.00000000000E+00 -0.34996269501E-01  0.35000000000E-01  0.51099999109E-03 0. -1.
       22    1    1    2    0    0 -0.76895313451E-03  0.22825556842E-02 -0.24862993267E-02  0.34616518768E-02  0.00000000000E+00 0.  1.
       22    1    1    2    0    0 -0.52943790025E-02  0.28410749258E-01 -0.12929332486E-01  0.31660207848E-01  0.00000000000E+00 0. -1.
       22    1    1    2    0    0  0.60633321370E-02 -0.30693304942E-01  0.15415631813E-01  0.34878140275E-01  0.00000000000E+00 0.  1.
</event>
<event>
 5   0  0.4146200E+04  0.9118800E+02  0.7546771E-02  0.1180000E+00
      -11   -1    0    0    0    0  0.00000000000E+00  0.00000000000E+00  0.34996269501E-01  0.35000000000E-01  0.51099999109E-03 0. -1.
       11   -1    0    0    0    0 -0.00000000000E+00 -0.00000000000E+00 -0.34996269501E-01  0.35000000000E-01  0.51099999109E-03 0.  1.
       22    1    1    2    0    0 -0.87840081403E-04  0.98245104274E-03  0.37345174649E-02  0.38625828958E-02  0.00000000000E+00 0.  1.
       22    1    1    2    0    0  0.17232765256E-02 -0.12205363878E-01  0.28990824226E-01  0.31502515434E-01  0.00000000000E+00 0. -1.
       22    1    1    2    0    0 -0.16354364442E-02  0.11222912835E-01 -0.32725341691E-01  0.34634901670E-01  0.00000000000E+00 0.  1.
</event>
<event>
 5   0  0.4146200E+04  0.9118800E+02  0.7546771E-02  0.1180000E+00
      -11   -1    0    0    0    0  0.00000000000E+00  0.00000000000E+00  0.34996269501E-01  0.35000000000E-01  0.51099999109E-03 0. -1.
       11   -1    0    0    0    0 -0.00000000000E+00 -0.00000000000E+00 -0.34996269501E-01  0.35000000000E-01  0.51099999109E-03 0.  1.
       22    1    1    2    0    0  0.72155565457E-03  0.71318641426E-03  0.35517650387E-02  0.36938208287E-02  0.00000000000E+00 0.  1.
       22    1    1    2    0    0 -0.20112845044E-02  0.16023688927E-01 -0.30526324201E-01  0.34534914817E-01  0.00000000000E+00 0.  1.
       22    1    1    2    0    0  0.12897288498E-02 -0.16736875341E-01  0.26974559162E-01  0.31771264355E-01  0.00000000000E+00 0. -1.
</event>
<event>
 5   0  0.4146200E+04  0.9118800E+02  0.7546771E-02  0.1180000E+00
      -11   -1    0    0    0    0  0.00000000000E+00  0.00000000000E+00  0.34996269501E-01  0.35000000000E-01  0.51099999109E-03 0.  1.
       11   -1    0    0    0    0 -0.00000000000E+00 -0.00000000000E+00 -0.34996269501E-01  0.35000000000E-01  0.51099999109E-03 0. -1.
       22    1    1    2    0    0  0.25603078661E-02 -0.12906940438E-01 -0.40621543303E-02  0.13771179530E-01  0.00000000000E+00 0.  1.
       22    1    1    2    0    0 -0.16666922107E-01  0.92196596194E-02 -0.20300098250E-01  0.27836709665E-01  0.00000000000E+00 0. -1.
       22    1    1    2    0    0  0.14106614240E-01  0.36872808188E-02  0.24362252580E-01  0.28392110805E-01  0.00000000000E+00 0.  1.
</event>
<event>
 5   0  0.4146200E+04  0.9118800E+02  0.7546771E-02  0.1180000E+00
      -11   -1    0    0    0    0  0.00000000000E+00  0.00000000000E+00  0.34996269501E-01  0.35000000000E-01  0.51099999109E-03 0. -1.
       11   -1    0    0    0    0 -0.00000000000E+00 -0.00000000000E+00 -0.34996269501E-01  0.35000000000E-01  0.51099999109E-03 0.  1.
       22    1    1    2    0    0 -0.11924127416E-01  0.50865325070E-02 -0.32458614070E-01  0.34951670274E-01  0.00000000000E+00 0.  1.
       22    1    1    2    0    0  0.18085076940E-04 -0.27798636534E-04  0.14390524708E-02  0.14394345584E-02  0.00000000000E+00 0. -1.
       22    1    1    2    0    0  0.11906042339E-01 -0.50587338705E-02  0.31019561599E-01  0.33608895168E-01  0.00000000000E+00 0. -1.
</event>
<event>
 5   0  0.4146200E+04  0.9118800E+02  0.7546771E-02  0.1180000E+00
      -11   -1    0    0    0    0  0.00000000000E+00  0.00000000000E+00  0.34996269501E-01  0.35000000000E-01  0.51099999109E-03 0. -1.
       11   -1    0    0    0    0 -0.00000000000E+00 -0.00000000000E+00 -0.34996269501E-01  0.35000000000E-01  0.51099999109E-03 0.  1.
       22    1    1    2    0    0  0.16358397215E-03  0.11341465576E-02 -0.33780893707E-01  0.33800322894E-01  0.00000000000E+00 0.  1.
       22    1    1    2    0    0 -0.82985855899E-03 -0.20520042893E-03 -0.10477710321E-02  0.13522561073E-02  0.00000000000E+00 0.  1.
       22    1    1    2    0    0  0.66627458684E-03 -0.92894612866E-03  0.34828664739E-01  0.34847420998E-01  0.00000000000E+00 0. -1.
</event>
<event>
 5   0  0.4146200E+04  0.9118800E+02  0.7546771E-02  0.1180000E+00
      -11   -1    0    0    0    0  0.00000000000E+00  0.00000000000E+00  0.34996269501E-01  0.35000000000E-01  0.51099999109E-03 0.  1.
       11   -1    0    0    0    0 -0.00000000000E+00 -0.00000000000E+00 -0.34996269501E-01  0.35000000000E-01  0.51099999109E-03 0. -1.
       22    1    1    2    0    0  0.13980366861E-01 -0.33316587346E-02  0.18511476666E-01  0.23435557937E-01  0.00000000000E+00 0.  1.
       22    1    1    2    0    0 -0.52041014484E-03 -0.46585096207E-03  0.12513499120E-01  0.12532976664E-01  0.00000000000E+00 0.  1.
       22    1    1    2    0    0 -0.13459956716E-01  0.37975096967E-02 -0.31024975786E-01  0.34031465399E-01  0.00000000000E+00 0. -1.
</event>
<event>
 5   0  0.4146200E+04  0.9118800E+02  0.7546771E-02  0.1180000E+00
      -11   -1    0    0    0    0  0.00000000000E+00  0.00000000000E+00  0.34996269501E-01  0.35000000000E-01  0.51099999109E-03 0.  1.
       11   -1    0    0    0    0 -0.00000000000E+00 -0.00000000000E+00 -0.34996269501E-01  0.35000000000E-01  0.51099999109E-03 0. -1.
       22    1    1    2    0    0 -0.13533162373E-02  0.23759061376E-02 -0.14926952067E-02  0.31152100720E-02  0.00000000000E+00 0. -1.
       22    1    1    2    0    0 -0.35627583120E-02 -0.15634657609E-01  0.30587312640E-01  0.34535770729E-01  0.00000000000E+00 0.  1.
       22    1    1    2    0    0  0.49160745493E-02  0.13258751472E-01 -0.29094617433E-01  0.32349019199E-01  0.00000000000E+00 0. -1.
</event>
<event>
 5   0  0.4146200E+04  0.9118800E+02  0.7546771E-02  0.1180000E+00
      -11   -1    0    0    0    0  0.00000000000E+00  0.00000000000E+00  0.34996269501E-01  0.35000000000E-01  0.51099999109E-03 0. -1.
       11   -1    0    0    0    0 -0.00000000000E+00 -0.00000000000E+00 -0.34996269501E-01  0.35000000000E-01  0.51099999109E-03 0.  1.
       22    1    1    2    0    0 -0.35952254785E-04 -0.62427303968E-03 -0.10894627518E-02  0.12561602128E-02  0.00000000000E+00 0.  1.
       22    1    1    2    0    0  0.85582770645E-03  0.18948613792E-02  0.34868769870E-01  0.34930703585E-01  0.00000000000E+00 0. -1.
       22    1    1    2    0    0 -0.81987545166E-03 -0.12705883396E-02 -0.33779307118E-01  0.33813136202E-01  0.00000000000E+00 0.  1.
</event>
<event>
 5   0  0.4146200E+04  0.9118800E+02  0.7546771E-02  0.1180000E+00
      -11   -1    0    0    0    0  0.00000000000E+00  0.00000000000E+00  0.34996269501E-01  0.35000000000E-01  0.51099999109E-03 0.  1.
       11   -1    0    0    0    0 -0.00000000000E+00 -0.00000000000E+00 -0.34996269501E-01  0.35000000000E-01  0.51099999109E-03 0. -1.
       22    1    1    2    0    0  0.27032731719E-03  0.46013885080E-03  0.26575392587E-01  0.26580750474E-01  0.00000000000E+00 0.  1.
       22    1    1    2    0    0 -0.59274128907E-02  0.10747951545E-01  0.17859246035E-02  0.12403314584E-01  0.00000000000E+00 0.  1.
       22    1    1    2    0    0  0.56570855735E-02 -0.11208090396E-01 -0.28361317191E-01  0.31015934941E-01  0.00000000000E+00 0. -1.
</event>
<event>
 5   0  0.4146200E+04  0.9118800E+02  0.7546771E-02  0.1180000E+00
      -11   -1    0    0    0    0  0.00000000000E+00  0.00000000000E+00  0.34996269501E-01  0.35000000000E-01  0.51099999109E-03 0. -1.
       11   -1    0    0    0    0 -0.00000000000E+00 -0.00000000000E+00 -0.34996269501E-01  0.35000000000E-01  0.51099999109E-03 0.  1.
       22    1    1    2    0    0  0.24565753236E-01  0.17988634983E-01 -0.15419740418E-01  0.34129688178E-01  0.00000000000E+00 0.  1.
       22    1    1    2    0    0 -0.70964039491E-03  0.52599881440E-03 -0.11304632549E-02  0.14346467905E-02  0.00000000000E+00 0. -1.
       22    1    1    2    0    0 -0.23856112841E-01 -0.18514633797E-01  0.16550203673E-01  0.34435665031E-01  0.00000000000E+00 0. -1.
</event>
<event>
 5   0  0.4146200E+04  0.9118800E+02  0.7546771E-02  0.1180000E+00
      -11   -1    0    0    0    0  0.00000000000E+00  0.00000000000E+00  0.34996269501E-01  0.35000000000E-01  0.51099999109E-03 0. -1.
       11   -1    0    0    0    0 -0.00000000000E+00 -0.00000000000E+00 -0.34996269501E-01  0.35000000000E-01  0.51099999109E-03 0.  1.
       22    1    1    2    0    0  0.20702626829E-02  0.11692107518E-02  0.34332166039E-01  0.34414396207E-01  0.00000000000E+00 0. -1.
       22    1    1    2    0    0  0.23600500101E-02  0.73860363535E-04 -0.25659074775E-01  0.25767487455E-01  0.00000000000E+00 0.  1.
       22    1    1    2    0    0 -0.44303126930E-02 -0.12430711153E-02 -0.86730912638E-02  0.98181163379E-02  0.00000000000E+00 0.  1.
</event>
<event>
 5   0  0.4146200E+04  0.9118800E+02  0.7546771E-02  0.1180000E+00
      -11   -1    0    0    0    0  0.00000000000E+00  0.00000000000E+00  0.34996269501E-01  0.35000000000E-01  0.51099999109E-03 0. -1.
       11   -1    0    0    0    0 -0.00000000000E+00 -0.00000000000E+00 -0.34996269501E-01  0.35000000000E-01  0.51099999109E-03 0.  1.
       22    1    1    2    0    0 -0.13004124434E-01  0.12308378351E-01 -0.29946489242E-01  0.34891197283E-01  0.00000000000E+00 0.  1.
       22    1    1    2    0    0  0.12952400257E-01 -0.12298604136E-01  0.28323348246E-01  0.33484808376E-01  0.00000000000E+00 0. -1.
       22    1    1    2    0    0  0.51724177273E-04 -0.97742149816E-05  0.16231409959E-02  0.16239943406E-02  0.00000000000E+00 0.  1.
</event>
<event>
 5   0  0.4146200E+04  0.9118800E+02  0.7546771E-02  0.1180000E+00
      -11   -1    0    0    0    0  0.00000000000E+00  0.00000000000E+00  0.34996269501E-01  0.35000000000E-01  0.51099999109E-03 0. -1.
       11   -1    0    0    0    0 -0.00000000000E+00 -0.00000000000E+00 -0.34996269501E-01  0.35000000000E-01  0.51099999109E-03 0.  1.
       22    1    1    2    0    0  0.14516798391E-02  0.45868721220E-02 -0.91540912116E-02  0.10341380765E-01  0.00000000000E+00 0.  1.
       22    1    1    2    0    0 -0.98537533946E-03 -0.27591006121E-02 -0.25141279944E-01  0.25311411615E-01  0.00000000000E+00 0.  1.
       22    1    1    2    0    0 -0.46630449966E-03 -0.18277715099E-02  0.34295371155E-01  0.34347207620E-01  0.00000000000E+00 0. -1.
</event>
<event>
 5   0  0.4146200E+04  0.9118800E+02  0.7546771E-02  0.1180000E+00
      -11   -1    0    0    0    0  0.00000000000E+00  0.00000000000E+00  0.34996269501E-01  0.35000000000E-01  0.51099999109E-03 0. -1.
       11   -1    0    0    0    0 -0.00000000000E+00 -0.00000000000E+00 -0.34996269501E-01  0.35000000000E-01  0.51099999109E-03 0.  1.
       22    1    1    2    0    0 -0.92601912302E-02  0.17541541592E-01 -0.27563206538E-01  0.33958609772E-01  0.00000000000E+00 0.  1.
       22    1    1    2    0    0  0.66440452301E-02 -0.18813691153E-01  0.21591615350E-01  0.29398914355E-01  0.00000000000E+00 0. -1.
       22    1    1    2    0    0  0.26161460001E-02  0.12721495617E-02  0.59715911883E-02  0.66424758728E-02  0.00000000000E+00 0.  1.
</event>
<event>
 5   0  0.4146200E+04  0.9118800E+02  0.7546771E-02  0.1180000E+00
      -11   -1    0    0    0    0  0.00000000000E+00  0.00000000000E+00  0.34996269501E-01  0.35000000000E-01  0.51099999109E-03 0. -1.
       11   -1    0    0    0    0 -0.00000000000E+00 -0.00000000000E+00 -0.34996269501E-01  0.35000000000E-01  0.51099999109E-03 0.  1.
       22    1    1    2    0    0  0.55642506806E-05 -0.24080140879E-03 -0.32346896549E-03  0.40329697618E-03  0.00000000000E+00 0.  1.
       22    1    1    2    0    0  0.17010978120E-01 -0.14242327595E-01  0.26903723329E-01  0.34871587301E-01  0.00000000000E+00 0.  1.
       22    1    1    2    0    0 -0.17016542370E-01  0.14483129004E-01 -0.26580254363E-01  0.34725115723E-01  0.00000000000E+00 0. -1.
</event>
<event>
 5   0  0.4146200E+04  0.9118800E+02  0.7546771E-02  0.1180000E+00
      -11   -1    0    0    0    0  0.00000000000E+00  0.00000000000E+00  0.34996269501E-01  0.35000000000E-01  0.51099999109E-03 0. -1.
       11   -1    0    0    0    0 -0.00000000000E+00 -0.00000000000E+00 -0.34996269501E-01  0.35000000000E-01  0.51099999109E-03 0.  1.
       22    1    1    2    0    0 -0.69716160458E-02 -0.10008007584E-01 -0.32125699624E-01  0.34363123002E-01  0.00000000000E+00 0.  1.
       22    1    1    2    0    0  0.71286607565E-02  0.99751422189E-02  0.32761824776E-01  0.34980829452E-01  0.00000000000E+00 0. -1.
       22    1    1    2    0    0 -0.15704471074E-03  0.32865365365E-04 -0.63612515250E-03  0.65604754634E-03  0.00000000000E+00 0.  1.
</event>
<event>
 5   0  0.4146200E+04  0.9118800E+02  0.7546771E-02  0.1180000E+00
      -11   -1    0    0    0    0  0.00000000000E+00  0.00000000000E+00  0.34996269501E-01  0.35000000000E-01  0.51099999109E-03 0. -1.
       11   -1    0    0    0    0 -0.00000000000E+00 -0.00000000000E+00 -0.34996269501E-01  0.35000000000E-01  0.51099999109E-03 0.  1.
       22    1    1    2    0    0 -0.70127708742E-02 -0.37796705687E-02  0.32616253190E-01  0.33575062727E-01  0.00000000000E+00 0. -1.
       22    1    1    2    0    0  0.72372385435E-03  0.68929369102E-02 -0.25521893139E-01  0.26446235741E-01  0.00000000000E+00 0.  1.
       22    1    1    2    0    0  0.62890470198E-02 -0.31132663415E-02 -0.70943600515E-02  0.99787015323E-02  0.00000000000E+00 0.  1.
</event>
<event>
 5   0  0.4146200E+04  0.9118800E+02  0.7546771E-02  0.1180000E+00
      -11   -1    0    0    0    0  0.00000000000E+00  0.00000000000E+00  0.34996269501E-01  0.35000000000E-01  0.51099999109E-03 0. -1.
       11   -1    0    0    0    0 -0.00000000000E+00 -0.00000000000E+00 -0.34996269501E-01  0.35000000000E-01  0.51099999109E-03 0.  1.
       22    1    1    2    0    0  0.43434999179E-02  0.61506200191E-03  0.19781983747E-01  0.20262555954E-01  0.00000000000E+00 0. -1.
       22    1    1    2    0    0 -0.11066737978E-01 -0.15330482126E-01 -0.26218954369E-01  0.32325376098E-01  0.00000000000E+00 0.  1.
       22    1    1    2    0    0  0.67232380601E-02  0.14715420124E-01  0.64369706215E-02  0.17412067948E-01  0.00000000000E+00 0. -1.
</event>
<event>
 5   0  0.4146200E+04  0.9118800E+02  0.7546771E-02  0.1180000E+00
      -11   -1    0    0    0    0  0.00000000000E+00  0.00000000000E+00  0.34996269501E-01  0.35000000000E-01  0.51099999109E-03 0. -1.
       11   -1    0    0    0    0 -0.00000000000E+00 -0.00000000000E+00 -0.34996269501E-01  0.35000000000E-01  0.51099999109E-03 0.  1.
       22    1    1    2    0    0  0.10634184625E-02  0.96773148105E-03 -0.14326572857E-01  0.14398543429E-01  0.00000000000E+00 0.  1.
       22    1    1    2    0    0 -0.30413361298E-02  0.88833302820E-02 -0.18783937496E-01  0.20999990243E-01  0.00000000000E+00 0.  1.
       22    1    1    2    0    0  0.19779176673E-02 -0.98510617631E-02  0.33110510353E-01  0.34601466328E-01  0.00000000000E+00 0. -1.
</event>
<event>
 5   0  0.4146200E+04  0.9118800E+02  0.7546771E-02  0.1180000E+00
      -11   -1    0    0    0    0  0.00000000000E+00  0.00000000000E+00  0.34996269501E-01  0.35000000000E-01  0.51099999109E-03 0.  1.
       11   -1    0    0    0    0 -0.00000000000E+00 -0.00000000000E+00 -0.34996269501E-01  0.35000000000E-01  0.51099999109E-03 0. -1.
       22    1    1    2    0    0 -0.12404682800E-04 -0.17661691013E-03  0.22842059785E-02  0.22910574766E-02  0.00000000000E+00 0. -1.
       22    1    1    2    0    0 -0.17204826183E-01 -0.16551805529E-01  0.22783383353E-01  0.33000770707E-01  0.00000000000E+00 0.  1.
       22    1    1    2    0    0  0.17217230866E-01  0.16728422439E-01 -0.25067589331E-01  0.34708171817E-01  0.00000000000E+00 0. -1.
</event>
<event>
 5   0  0.4146200E+04  0.9118800E+02  0.7546771E-02  0.1180000E+00
      -11   -1    0    0    0    0  0.00000000000E+00  0.00000000000E+00  0.34996269501E-01  0.35000000000E-01  0.51099999109E-03 0.  1.
       11   -1    0    0    0    0 -0.00000000000E+00 -0.00000000000E+00 -0.34996269501E-01  0.35000000000E-01  0.51099999109E-03 0. -1.
       22    1    1    2    0    0  0.46705920172E-02  0.92485663669E-02  0.32178240980E-01  0.33805171234E-01  0.00000000000E+00 0.  1.
       22    1    1    2    0    0 -0.42372795590E-02 -0.10457320666E-01 -0.14043647653E-01  0.18014830917E-01  0.00000000000E+00 0. -1.
       22    1    1    2    0    0 -0.43331245822E-03  0.12087542994E-02 -0.18134593327E-01  0.18179997849E-01  0.00000000000E+00 0. -1.
</event>
<event>
 5   0  0.4146200E+04  0.9118800E+02  0.7546771E-02  0.1180000E+00
      -11   -1    0    0    0    0  0.00000000000E+00  0.00000000000E+00  0.34996269501E-01  0.35000000000E-01  0.51099999109E-03 0. -1.
       11   -1    0    0    0    0 -0.00000000000E+00 -0.00000000000E+00 -0.34996269501E-01  0.35000000000E-01  0.51099999109E-03 0.  1.
       22    1    1    2    0    0  0.28997821016E-03  0.68740797795E-06  0.19016923210E-01  0.19019133950E-01  0.00000000000E+00 0. -1.
       22    1    1    2    0    0  0.18538622478E-02 -0.11427562544E-01  0.12709206544E-01  0.17191565429E-01  0.00000000000E+00 0. -1.
       22    1    1    2    0    0 -0.21438404579E-02  0.11426875136E-01 -0.31726129754E-01  0.33789300621E-01  0.00000000000E+00 0.  1.
</event>
<event>
 5   0  0.4146200E+04  0.9118800E+02  0.7546771E-02  0.1180000E+00
      -11   -1    0    0    0    0  0.00000000000E+00  0.00000000000E+00  0.34996269501E-01  0.35000000000E-01  0.51099999109E-03 0.  1.
       11   -1    0    0    0    0 -0.00000000000E+00 -0.00000000000E+00 -0.34996269501E-01  0.35000000000E-01  0.51099999109E-03 0.  1.
       22    1    1    2    0    0  0.49451438730E-02  0.61722667364E-02 -0.12200261406E-01  0.14539522102E-01  0.00000000000E+00 0. -1.
       22    1    1    2    0    0 -0.49947062828E-02 -0.69518562970E-02 -0.20778387559E-01  0.22472578543E-01  0.00000000000E+00 0.  1.
       22    1    1    2    0    0  0.49562409788E-04  0.77958956066E-03  0.32978648965E-01  0.32987899355E-01  0.00000000000E+00 0.  1.
</event>
<event>
 5   0  0.4146200E+04  0.9118800E+02  0.7546771E-02  0.1180000E+00
      -11   -1    0    0    0    0  0.00000000000E+00  0.00000000000E+00  0.34996269501E-01  0.35000000000E-01  0.51099999109E-03 0.  1.
       11   -1    0    0    0    0 -0.00000000000E+00 -0.00000000000E+00 -0.34996269501E-01  0.35000000000E-01  0.51099999109E-03 0. -1.
       22    1    1    2    0    0 -0.20384339796E-01 -0.14558593042E-04  0.27874528644E-01  0.34532750658E-01  0.00000000000E+00 0.  1.
       22    1    1    2    0    0  0.21052830427E-01 -0.44404327706E-03 -0.27280552064E-01  0.34462260001E-01  0.00000000000E+00 0. -1.
       22    1    1    2    0    0 -0.66849063162E-03  0.45860187010E-03 -0.59397657988E-03  0.10049893419E-02  0.00000000000E+00 0.  1.
</event>
<event>
 5   0  0.4146200E+04  0.9118800E+02  0.7546771E-02  0.1180000E+00
      -11   -1    0    0    0    0  0.00000000000E+00  0.00000000000E+00  0.34996269501E-01  0.35000000000E-01  0.51099999109E-03 0. -1.
       11   -1    0    0    0    0 -0.00000000000E+00 -0.00000000000E+00 -0.34996269501E-01  0.35000000000E-01  0.51099999109E-03 0.  1.
       22    1    1    2    0    0 -0.24351612616E-02 -0.15376370380E-01 -0.27171701222E-01  0.31315557216E-01  0.00000000000E+00 0.  1.
       22    1    1    2    0    0  0.29977016798E-02  0.99999644322E-03 -0.35548125599E-02  0.47563537068E-02  0.00000000000E+00 0. -1.
       22    1    1    2    0    0 -0.56254041825E-03  0.14376373937E-01  0.30726513782E-01  0.33928089078E-01  0.00000000000E+00 0. -1.
</event>
<event>
 5   0  0.4146200E+04  0.9118800E+02  0.7546771E-02  0.1180000E+00
      -11   -1    0    0    0    0  0.00000000000E+00  0.00000000000E+00  0.34996269501E-01  0.35000000000E-01  0.51099999109E-03 0.  1.
       11   -1    0    0    0    0 -0.00000000000E+00 -0.00000000000E+00 -0.34996269501E-01  0.35000000000E-01  0.51099999109E-03 0. -1.
       22    1    1    2    0    0  0.19741396374E-03 -0.21429785562E-03  0.16303636885E-02  0.16561949163E-02  0.00000000000E+00 0.  1.
       22    1    1    2    0    0  0.11358361192E-01 -0.86111442325E-02  0.30175133992E-01  0.33372187303E-01  0.00000000000E+00 0.  1.
       22    1    1    2    0    0 -0.11555775156E-01  0.88254420881E-02 -0.31805497680E-01  0.34971617781E-01  0.00000000000E+00 0. -1.
</event>
<event>
 5   0  0.4146200E+04  0.9118800E+02  0.7546771E-02  0.1180000E+00
      -11   -1    0    0    0    0  0.00000000000E+00  0.00000000000E+00  0.34996269501E-01  0.35000000000E-01  0.51099999109E-03 0.  1.
       11   -1    0    0    0    0 -0.00000000000E+00 -0.00000000000E+00 -0.34996269501E-01  0.35000000000E-01  0.51099999109E-03 0.  1.
       22    1    1    2    0    0  0.12922045146E-03  0.11546734722E-03  0.34797265006E-01  0.34797696512E-01  0.00000000000E+00 0.  1.
       22    1    1    2    0    0 -0.91228356053E-03  0.84472576269E-03 -0.18337146037E-02  0.22154756051E-02  0.00000000000E+00 0. -1.
       22    1    1    2    0    0  0.78306310907E-03 -0.96019310991E-03 -0.32963550402E-01  0.32986827883E-01  0.00000000000E+00 0.  1.
</event>
<event>
 5   0  0.4146200E+04  0.9118800E+02  0.7546771E-02  0.1180000E+00
      -11   -1    0    0    0    0  0.00000000000E+00  0.00000000000E+00  0.34996269501E-01  0.35000000000E-01  0.51099999109E-03 0. -1.
       11   -1    0    0    0    0 -0.00000000000E+00 -0.00000000000E+00 -0.34996269501E-01  0.35000000000E-01  0.51099999109E-03 0.  1.
       22    1    1    2    0    0  0.18483259742E-01 -0.44525021743E-02  0.29047440820E-01  0.34716127153E-01  0.00000000000E+00 0. -1.
       22    1    1    2    0    0 -0.63477562232E-04 -0.46174820872E-04  0.31870526783E-03  0.32822943612E-03  0.00000000000E+00 0.  1.
       22    1    1    2    0    0 -0.18419782180E-01  0.44986769952E-02 -0.29366146088E-01  0.34955643411E-01  0.00000000000E+00 0.  1.
</event>
<event>
 5   0  0.4146200E+04  0.9118800E+02  0.7546771E-02  0.1180000E+00
      -11   -1    0    0    0    0  0.00000000000E+00  0.00000000000E+00  0.34996269501E-01  0.35000000000E-01  0.51099999109E-03 0.  1.
       11   -1    0    0    0    0 -0.00000000000E+00 -0.00000000000E+00 -0.34996269501E-01  0.35000000000E-01  0.51099999109E-03 0. -1.
       22    1    1    2    0    0  0.31269518784E-03  0.12684384706E-03 -0.32631039647E-03  0.46941039281E-03  0.00000000000E+00 0. -1.
       22    1    1    2    0    0  0.21786339745E-02  0.16208735382E-01 -0.30469657774E-01  0.34581347480E-01  0.00000000000E+00 0. -1.
       22    1    1    2    0    0 -0.24913291623E-02 -0.16335579229E-01  0.30795968170E-01  0.34949242127E-01  0.00000000000E+00 0.  1.
</event>
<event>
 5   0  0.4146200E+04  0.9118800E+02  0.7546771E-02  0.1180000E+00
      -11   -1    0    0    0    0  0.00000000000E+00  0.00000000000E+00  0.34996269501E-01  0.35000000000E-01  0.51099999109E-03 0. -1.
       11   -1    0    0    0    0 -0.00000000000E+00 -0.00000000000E+00 -0.34996269501E-01  0.35000000000E-01  0.51099999109E-03 0.  1.
       22    1    1    2    0    0  0.27885677228E-03  0.27565746018E-03  0.12398832950E-02  0.13004071363E-02  0.00000000000E+00 0.  1.
       22    1    1    2    0    0 -0.16624569297E-01 -0.85153355269E-02 -0.29566985392E-01  0.34972758951E-01  0.00000000000E+00 0.  1.
       22    1    1    2    0    0  0.16345712525E-01  0.82396780667E-02  0.28327102097E-01  0.33726833913E-01  0.00000000000E+00 0. -1.
</event>
<event>
 5   0  0.4146200E+04  0.9118800E+02  0.7546771E-02  0.1180000E+00
      -11   -1    0    0    0    0  0.00000000000E+00  0.00000000000E+00  0.34996269501E-01  0.35000000000E-01  0.51099999109E-03 0. -1.
       11   -1    0    0    0    0 -0.00000000000E+00 -0.00000000000E+00 -0.34996269501E-01  0.35000000000E-01  0.51099999109E-03 0.  1.
       22    1    1    2    0    0  0.62709323751E-02 -0.10292563502E-01 -0.30907630327E-01  0.33174433962E-01  0.00000000000E+00 0.  1.
       22    1    1    2    0    0 -0.34353975764E-02  0.17238761085E-02  0.26507027477E-01  0.26784253041E-01  0.00000000000E+00 0. -1.
       22    1    1    2    0    0 -0.28355347986E-02  0.85686873939E-02  0.44006028501E-02  0.10041312996E-01  0.00000000000E+00 0. -1.
</event>
<event>
 5   0  0.4146200E+04  0.9118800E+02  0.7546771E-02  0.1180000E+00
      -11   -1    0    0    0    0  0.00000000000E+00  0.00000000000E+00  0.34996269501E-01  0.35000000000E-01  0.51099999109E-03 0.  1.
       11   -1    0    0    0    0 -0.00000000000E+00 -0.00000000000E+00 -0.34996269501E-01  0.35000000000E-01  0.51099999109E-03 0. -1.
       22    1    1    2    0    0  0.16072019280E-02 -0.13556845034E-02 -0.32227788077E-02  0.38480230968E-02  0.00000000000E+00 0.  1.
       22    1    1    2    0    0  0.13184188493E-02 -0.44600346537E-02  0.34191512801E-01  0.34506371657E-01  0.00000000000E+00 0.  1.
       22    1    1    2    0    0 -0.29256207773E-02  0.58157191571E-02 -0.30968733993E-01  0.31645605246E-01  0.00000000000E+00 0. -1.
</event>
<event>
 5   0  0.4146200E+04  0.9118800E+02  0.7546771E-02  0.1180000E+00
      -11   -1    0    0    0    0  0.00000000000E+00  0.00000000000E+00  0.34996269501E-01  0.35000000000E-01  0.51099999109E-03 0. -1.
       11   -1    0    0    0    0 -0.00000000000E+00 -0.00000000000E+00 -0.34996269501E-01  0.35000000000E-01  0.51099999109E-03 0.  1.
       22    1    1    2    0    0 -0.80167627827E-03 -0.30789624655E-04 -0.62456157451E-03  0.10167153075E-02  0.00000000000E+00 0.  1.
       22    1    1    2    0    0  0.92792462011E-02  0.68599248196E-02 -0.32303313456E-01  0.34302580644E-01  0.00000000000E+00 0.  1.
       22    1    1    2    0    0 -0.84775699228E-02 -0.68291351950E-02  0.32927875030E-01  0.34680704049E-01  0.00000000000E+00 0. -1.
</event>
<event>
 5   0  0.4146200E+04  0.9118800E+02  0.7546771E-02  0.1180000E+00
      -11   -1    0    0    0    0  0.00000000000E+00  0.00000000000E+00  0.34996269501E-01  0.35000000000E-01  0.51099999109E-03 0. -1.
       11   -1    0    0    0    0 -0.00000000000E+00 -0.00000000000E+00 -0.34996269501E-01  0.35000000000E-01  0.51099999109E-03 0.  1.
       22    1    1    2    0    0 -0.41738540186E-02  0.15113400456E-01  0.31193135715E-01  0.34911998603E-01  0.00000000000E+00 0. -1.
       22    1    1    2    0    0  0.41278919420E-02 -0.14676823041E-01 -0.28152202296E-01  0.32015544983E-01  0.00000000000E+00 0.  1.
       22    1    1    2    0    0  0.45962076537E-04 -0.43657741492E-03 -0.30409334197E-02  0.30724564138E-02  0.00000000000E+00 0.  1.
</event>
<event>
 5   0  0.4146200E+04  0.9118800E+02  0.7546771E-02  0.1180000E+00
      -11   -1    0    0    0    0  0.00000000000E+00  0.00000000000E+00  0.34996269501E-01  0.35000000000E-01  0.51099999109E-03 0. -1.
       11   -1    0    0    0    0 -0.00000000000E+00 -0.00000000000E+00 -0.34996269501E-01  0.35000000000E-01  0.51099999109E-03 0.  1.
       22    1    1    2    0    0 -0.48349215293E-03 -0.31997400070E-03  0.42166872507E-04  0.58131408740E-03  0.00000000000E+00 0.  1.
       22    1    1    2    0    0  0.13248024940E-01 -0.20790187959E-01 -0.24446090390E-01  0.34718200062E-01  0.00000000000E+00 0.  1.
       22    1    1    2    0    0 -0.12764532788E-01  0.21110161959E-01  0.24403923517E-01  0.34700485851E-01  0.00000000000E+00 0. -1.
</event>
<event>
 5   0  0.4146200E+04  0.9118800E+02  0.7546771E-02  0.1180000E+00
      -11   -1    0    0    0    0  0.00000000000E+00  0.00000000000E+00  0.34996269501E-01  0.35000000000E-01  0.51099999109E-03 0.  1.
       11   -1    0    0    0    0 -0.00000000000E+00 -0.00000000000E+00 -0.34996269501E-01  0.35000000000E-01  0.51099999109E-03 0. -1.
       22    1    1    2    0    0 -0.13720893352E-01  0.37014252000E-02 -0.30018322013E-01  0.33212394062E-01  0.00000000000E+00 0. -1.
       22    1    1    2    0    0  0.13597216985E-01 -0.27205546856E-02  0.10884688025E-01  0.17628447491E-01  0.00000000000E+00 0.  1.
       22    1    1    2    0    0  0.12367636659E-03 -0.98087051447E-03  0.19133633988E-01  0.19159158447E-01  0.00000000000E+00 0.  1.
</event>
<event>
 5   0  0.4146200E+04  0.9118800E+02  0.7546771E-02  0.1180000E+00
      -11   -1    0    0    0    0  0.00000000000E+00  0.00000000000E+00  0.34996269501E-01  0.35000000000E-01  0.51099999109E-03 0.  1.
       11   -1    0    0    0    0 -0.00000000000E+00 -0.00000000000E+00 -0.34996269501E-01  0.35000000000E-01  0.51099999109E-03 0. -1.
       22    1    1    2    0    0  0.15106110131E-01  0.18375804751E-02 -0.28640038242E-01  0.32431821655E-01  0.00000000000E+00 0. -1.
       22    1    1    2    0    0  0.11480917549E-03 -0.32277264182E-04 -0.26884601231E-02  0.26911040118E-02  0.00000000000E+00 0.  1.
       22    1    1    2    0    0 -0.15220919307E-01 -0.18053032109E-02  0.31328498366E-01  0.34877074334E-01  0.00000000000E+00 0.  1.
</event>
<event>
 5   0  0.4146200E+04  0.9118800E+02  0.7546771E-02  0.1180000E+00
      -11   -1    0    0    0    0  0.00000000000E+00  0.00000000000E+00  0.34996269501E-01  0.35000000000E-01  0.51099999109E-03 0. -1.
       11   -1    0    0    0    0 -0.00000000000E+00 -0.00000000000E+00 -0.34996269501E-01  0.35000000000E-01  0.51099999109E-03 0.  1.
       22    1    1    2    0    0  0.22048747269E-02  0.15089673179E-01 -0.31278143292E-01  0.34797729194E-01  0.00000000000E+00 0.  1.
       22    1    1    2    0    0 -0.26308004363E-02 -0.15107884507E-01  0.28246924862E-01  0.32141220409E-01  0.00000000000E+00 0. -1.
       22    1    1    2    0    0  0.42592570935E-03  0.18211327812E-04  0.30312184301E-02  0.30610503970E-02  0.00000000000E+00 0. -1.
</event>
<event>
 5   0  0.4146200E+04  0.9118800E+02  0.7546771E-02  0.1180000E+00
      -11   -1    0    0    0    0  0.00000000000E+00  0.00000000000E+00  0.34996269501E-01  0.35000000000E-01  0.51099999109E-03 0.  1.
       11   -1    0    0    0    0 -0.00000000000E+00 -0.00000000000E+00 -0.34996269501E-01  0.35000000000E-01  0.51099999109E-03 0.  1.
       22    1    1    2    0    0 -0.00000000000E+00  0.00000000000E+00  0.34821026060E-01  0.34820356558E-01  0.00000000000E+00 0.  1.
       22    1    1    2    0    0 -0.12172038344E-03 -0.15494254003E-02 -0.36150321150E-02  0.39349704085E-02  0.00000000000E+00 0. -1.
       22    1    1    2    0    0  0.12172038344E-03  0.15494254003E-02 -0.31205993945E-01  0.31244673034E-01  0.00000000000E+00 0.  1.
</event>
<event>
 5   0  0.4146200E+04  0.9118800E+02  0.7546771E-02  0.1180000E+00
      -11   -1    0    0    0    0  0.00000000000E+00  0.00000000000E+00  0.34996269501E-01  0.35000000000E-01  0.51099999109E-03 0. -1.
       11   -1    0    0    0    0 -0.00000000000E+00 -0.00000000000E+00 -0.34996269501E-01  0.35000000000E-01  0.51099999109E-03 0.  1.
       22    1    1    2    0    0  0.90730715020E-04  0.32513065801E-03 -0.15245630718E-01  0.15249367134E-01  0.00000000000E+00 0. -1.
       22    1    1    2    0    0  0.70578348516E-02 -0.30644598598E-03 -0.18736850733E-01  0.20024398052E-01  0.00000000000E+00 0.  1.
       22    1    1    2    0    0 -0.71485655666E-02 -0.18684672030E-04  0.33982481451E-01  0.34726234814E-01  0.00000000000E+00 0. -1.
</event>
<event>
 5   0  0.4146200E+04  0.9118800E+02  0.7546771E-02  0.1180000E+00
      -11   -1    0    0    0    0  0.00000000000E+00  0.00000000000E+00  0.34996269501E-01  0.35000000000E-01  0.51099999109E-03 0.  1.
       11   -1    0    0    0    0 -0.00000000000E+00 -0.00000000000E+00 -0.34996269501E-01  0.35000000000E-01  0.51099999109E-03 0. -1.
       22    1    1    2    0    0 -0.10649394474E-01  0.55394090964E-02  0.32696180110E-01  0.34830085409E-01  0.00000000000E+00 0.  1.
       22    1    1    2    0    0  0.10743011747E-04 -0.18930405710E-03 -0.52294240295E-02  0.52328603190E-02  0.00000000000E+00 0.  1.
       22    1    1    2    0    0  0.10638651462E-01 -0.53501050393E-02 -0.27466756081E-01  0.29937054272E-01  0.00000000000E+00 0. -1.
</event>
<event>
 5   0  0.4146200E+04  0.9118800E+02  0.7546771E-02  0.1180000E+00
      -11   -1    0    0    0    0  0.00000000000E+00  0.00000000000E+00  0.34996269501E-01  0.35000000000E-01  0.51099999109E-03 0.  1.
       11   -1    0    0    0    0 -0.00000000000E+00 -0.00000000000E+00 -0.34996269501E-01  0.35000000000E-01  0.51099999109E-03 0. -1.
       22    1    1    2    0    0 -0.74887249325E-02  0.12125678620E-01  0.31692947034E-01  0.34749906113E-01  0.00000000000E+00 0.  1.
       22    1    1    2    0    0 -0.11165906804E-03 -0.20205748010E-03 -0.53256664520E-02  0.53306677003E-02  0.00000000000E+00 0.  1.
       22    1    1    2    0    0  0.76003840006E-02 -0.11923621140E-01 -0.26367280582E-01  0.29919426187E-01  0.00000000000E+00 0. -1.
</event>
<event>
 5   0  0.4146200E+04  0.9118800E+02  0.7546771E-02  0.1180000E+00
      -11   -1    0    0    0    0  0.00000000000E+00  0.00000000000E+00  0.34996269501E-01  0.35000000000E-01  0.51099999109E-03 0. -1.
       11   -1    0    0    0    0 -0.00000000000E+00 -0.00000000000E+00 -0.34996269501E-01  0.35000000000E-01  0.51099999109E-03 0.  1.
       22    1    1    2    0    0  0.28077202934E-02 -0.45767331974E-02  0.33303887233E-01  0.33733939658E-01  0.00000000000E+00 0. -1.
       22    1    1    2    0    0 -0.64854589692E-03  0.72127371186E-02 -0.82334386940E-02  0.10965112915E-01  0.00000000000E+00 0.  1.
       22    1    1    2    0    0 -0.21591743965E-02 -0.26360039212E-02 -0.25070448539E-01  0.25300947427E-01  0.00000000000E+00 0.  1.
</event>
<event>
 5   0  0.4146200E+04  0.9118800E+02  0.7546771E-02  0.1180000E+00
      -11   -1    0    0    0    0  0.00000000000E+00  0.00000000000E+00  0.34996269501E-01  0.35000000000E-01  0.51099999109E-03 0. -1.
       11   -1    0    0    0    0 -0.00000000000E+00 -0.00000000000E+00 -0.34996269501E-01  0.35000000000E-01  0.51099999109E-03 0.  1.
       22    1    1    2    0    0  0.42302819081E-02  0.11074724982E-01 -0.31752751693E-01  0.33893687592E-01  0.00000000000E+00 0.  1.
       22    1    1    2    0    0 -0.42917348772E-02 -0.11272709470E-01  0.32847473985E-01  0.34992135034E-01  0.00000000000E+00 0. -1.
       22    1    1    2    0    0  0.61452969031E-04  0.19798448779E-03 -0.10947222919E-02  0.11141773742E-02  0.00000000000E+00 0.  1.
</event>
<event>
 5   0  0.4146200E+04  0.9118800E+02  0.7546771E-02  0.1180000E+00
      -11   -1    0    0    0    0  0.00000000000E+00  0.00000000000E+00  0.34996269501E-01  0.35000000000E-01  0.51099999109E-03 0. -1.
       11   -1    0    0    0    0 -0.00000000000E+00 -0.00000000000E+00 -0.34996269501E-01  0.35000000000E-01  0.51099999109E-03 0. -1.
       22    1    1    2    0    0  0.61118248607E-04  0.47862234937E-04  0.26297866606E-01  0.26297981182E-01  0.00000000000E+00 0. -1.
       22    1    1    2    0    0  0.15042947571E-01 -0.35891172987E-02 -0.30654874774E-02  0.15766079033E-01  0.00000000000E+00 0.  1.
       22    1    1    2    0    0 -0.15104065820E-01  0.35412550637E-02 -0.23232379128E-01  0.27935939785E-01  0.00000000000E+00 0. -1.
</event>
<event>
 5   0  0.4146200E+04  0.9118800E+02  0.7546771E-02  0.1180000E+00
      -11   -1    0    0    0    0  0.00000000000E+00  0.00000000000E+00  0.34996269501E-01  0.35000000000E-01  0.51099999109E-03 0. -1.
       11   -1    0    0    0    0 -0.00000000000E+00 -0.00000000000E+00 -0.34996269501E-01  0.35000000000E-01  0.51099999109E-03 0.  1.
       22    1    1    2    0    0  0.17390482414E-02  0.14464325303E-01  0.31812157088E-01  0.34989346005E-01  0.00000000000E+00 0. -1.
       22    1    1    2    0    0 -0.88022881583E-04 -0.24177871830E-03 -0.10269385197E-02  0.10586820578E-02  0.00000000000E+00 0. -1.
       22    1    1    2    0    0 -0.16510253598E-02 -0.14222546585E-01 -0.30785218568E-01  0.33951971937E-01  0.00000000000E+00 0.  1.
</event>
<event>
 5   0  0.4146200E+04  0.9118800E+02  0.7546771E-02  0.1180000E+00
      -11   -1    0    0    0    0  0.00000000000E+00  0.00000000000E+00  0.34996269501E-01  0.35000000000E-01  0.51099999109E-03 0. -1.
       11   -1    0    0    0    0 -0.00000000000E+00 -0.00000000000E+00 -0.34996269501E-01  0.35000000000E-01  0.51099999109E-03 0.  1.
       22    1    1    2    0    0  0.46900273457E-02 -0.12584911204E-01 -0.31300210320E-01  0.34059939997E-01  0.00000000000E+00 0.  1.
       22    1    1    2    0    0 -0.46938439552E-02  0.12658473812E-01  0.32263315131E-01  0.34974142356E-01  0.00000000000E+00 0. -1.
       22    1    1    2    0    0  0.38166095397E-05 -0.73562608458E-04 -0.96310481079E-03  0.96591764682E-03  0.00000000000E+00 0.  1.
</event>
<event>
 5   0  0.4146200E+04  0.9118800E+02  0.7546771E-02  0.1180000E+00
      -11   -1    0    0    0    0  0.00000000000E+00  0.00000000000E+00  0.34996269501E-01  0.35000000000E-01  0.51099999109E-03 0.  1.
       11   -1    0    0    0    0 -0.00000000000E+00 -0.00000000000E+00 -0.34996269501E-01  0.35000000000E-01  0.51099999109E-03 0. -1.
       22    1    1    2    0    0  0.20081201233E-03 -0.29256189524E-05 -0.12816227931E-01  0.12817801387E-01  0.00000000000E+00 0. -1.
       22    1    1    2    0    0  0.63311370377E-02  0.36930717897E-02  0.33962573701E-01  0.34744474206E-01  0.00000000000E+00 0.  1.
       22    1    1    2    0    0 -0.65319490500E-02 -0.36901461707E-02 -0.21146345770E-01  0.22437724407E-01  0.00000000000E+00 0. -1.
</event>
<event>
 5   0  0.4146200E+04  0.9118800E+02  0.7546771E-02  0.1180000E+00
      -11   -1    0    0    0    0  0.00000000000E+00  0.00000000000E+00  0.34996269501E-01  0.35000000000E-01  0.51099999109E-03 0. -1.
       11   -1    0    0    0    0 -0.00000000000E+00 -0.00000000000E+00 -0.34996269501E-01  0.35000000000E-01  0.51099999109E-03 0.  1.
       22    1    1    2    0    0  0.22440157159E-03 -0.46322833938E-03  0.70601434240E-02  0.70788813895E-02  0.00000000000E+00 0. -1.
       22    1    1    2    0    0 -0.22567757686E-01 -0.78831516360E-02  0.16773513113E-01  0.29202714066E-01  0.00000000000E+00 0. -1.
       22    1    1    2    0    0  0.22343356114E-01  0.83463799754E-02 -0.23833656537E-01  0.33718404545E-01  0.00000000000E+00 0.  1.
</event>
<event>
 5   0  0.4146200E+04  0.9118800E+02  0.7546771E-02  0.1180000E+00
      -11   -1    0    0    0    0  0.00000000000E+00  0.00000000000E+00  0.34996269501E-01  0.35000000000E-01  0.51099999109E-03 0. -1.
       11   -1    0    0    0    0 -0.00000000000E+00 -0.00000000000E+00 -0.34996269501E-01  0.35000000000E-01  0.51099999109E-03 0.  1.
       22    1    1    2    0    0  0.17253088705E-01 -0.76582092456E-02 -0.29430860413E-01  0.34964164273E-01  0.00000000000E+00 0.  1.
       22    1    1    2    0    0 -0.80364578479E-03 -0.12487816043E-04  0.78116803572E-03  0.11208148790E-02  0.00000000000E+00 0. -1.
       22    1    1    2    0    0 -0.16449442920E-01  0.76706970616E-02  0.28649692377E-01  0.33915020848E-01  0.00000000000E+00 0. -1.
</event>
<event>
 5   0  0.4146200E+04  0.9118800E+02  0.7546771E-02  0.1180000E+00
      -11   -1    0    0    0    0  0.00000000000E+00  0.00000000000E+00  0.34996269501E-01  0.35000000000E-01  0.51099999109E-03 0.  1.
       11   -1    0    0    0    0 -0.00000000000E+00 -0.00000000000E+00 -0.34996269501E-01  0.35000000000E-01  0.51099999109E-03 0. -1.
       22    1    1    2    0    0  0.41641017594E-02 -0.19263665457E-02  0.34452782057E-01  0.34756939206E-01  0.00000000000E+00 0.  1.
       22    1    1    2    0    0 -0.42866892798E-02  0.19596815426E-02 -0.13667798656E-01  0.14457689194E-01  0.00000000000E+00 0. -1.
       22    1    1    2    0    0  0.12258752046E-03 -0.33314996938E-04 -0.20784983401E-01  0.20785371600E-01  0.00000000000E+00 0. -1.
</event>
<event>
 5   0  0.4146200E+04  0.9118800E+02  0.7546771E-02  0.1180000E+00
      -11   -1    0    0    0    0  0.00000000000E+00  0.00000000000E+00  0.34996269501E-01  0.35000000000E-01  0.51099999109E-03 0.  1.
       11   -1    0    0    0    0 -0.00000000000E+00 -0.00000000000E+00 -0.34996269501E-01  0.35000000000E-01  0.51099999109E-03 0. -1.
       22    1    1    2    0    0  0.13750336867E-01 -0.11852634711E-01 -0.29279575676E-01  0.34450693249E-01  0.00000000000E+00 0. -1.
       22    1    1    2    0    0 -0.71998836461E-04  0.78784159193E-04 -0.61777953209E-03  0.62693087853E-03  0.00000000000E+00 0.  1.
       22    1    1    2    0    0 -0.13678338031E-01  0.11773850552E-01  0.29897355208E-01  0.34922375872E-01  0.00000000000E+00 0.  1.
</event>
<event>
 5   0  0.4146200E+04  0.9118800E+02  0.7546771E-02  0.1180000E+00
      -11   -1    0    0    0    0  0.00000000000E+00  0.00000000000E+00  0.34996269501E-01  0.35000000000E-01  0.51099999109E-03 0. -1.
       11   -1    0    0    0    0 -0.00000000000E+00 -0.00000000000E+00 -0.34996269501E-01  0.35000000000E-01  0.51099999109E-03 0.  1.
       22    1    1    2    0    0 -0.19181651353E-01 -0.17938196695E-02 -0.28793567185E-01  0.34644235435E-01  0.00000000000E+00 0.  1.
       22    1    1    2    0    0 -0.14596014596E-03  0.19350874653E-03  0.33744029434E-02  0.33830969870E-02  0.00000000000E+00 0. -1.
       22    1    1    2    0    0  0.19327611499E-01  0.16003109230E-02  0.25419164242E-01  0.31972667578E-01  0.00000000000E+00 0. -1.
</event>
<event>
 5   0  0.4146200E+04  0.9118800E+02  0.7546771E-02  0.1180000E+00
      -11   -1    0    0    0    0  0.00000000000E+00  0.00000000000E+00  0.34996269501E-01  0.35000000000E-01  0.51099999109E-03 0. -1.
       11   -1    0    0    0    0 -0.00000000000E+00 -0.00000000000E+00 -0.34996269501E-01  0.35000000000E-01  0.51099999109E-03 0.  1.
       22    1    1    2    0    0 -0.80448347700E-02 -0.14958442753E-01 -0.29339531268E-01  0.33901068878E-01  0.00000000000E+00 0.  1.
       22    1    1    2    0    0  0.79078379050E-02  0.15026079296E-01  0.30510973996E-01  0.34917567119E-01  0.00000000000E+00 0. -1.
       22    1    1    2    0    0  0.13699686496E-03 -0.67636543059E-04 -0.11714427279E-02  0.11813640030E-02  0.00000000000E+00 0.  1.
</event>
<event>
 5   0  0.4146200E+04  0.9118800E+02  0.7546771E-02  0.1180000E+00
      -11   -1    0    0    0    0  0.00000000000E+00  0.00000000000E+00  0.34996269501E-01  0.35000000000E-01  0.51099999109E-03 0. -1.
       11   -1    0    0    0    0 -0.00000000000E+00 -0.00000000000E+00 -0.34996269501E-01  0.35000000000E-01  0.51099999109E-03 0.  1.
       22    1    1    2    0    0  0.53687354842E-02  0.12299335809E-01 -0.32148869352E-01  0.34837433641E-01  0.00000000000E+00 0.  1.
       22    1    1    2    0    0 -0.52264190688E-02 -0.12736250855E-01  0.30775771461E-01  0.33714620733E-01  0.00000000000E+00 0. -1.
       22    1    1    2    0    0 -0.14231641535E-03  0.43691504556E-03  0.13730978910E-02  0.14479456266E-02  0.00000000000E+00 0.  1.
</event>
<event>
 5   0  0.4146200E+04  0.9118800E+02  0.7546771E-02  0.1180000E+00
      -11   -1    0    0    0    0  0.00000000000E+00  0.00000000000E+00  0.34996269501E-01  0.35000000000E-01  0.51099999109E-03 0. -1.
       11   -1    0    0    0    0 -0.00000000000E+00 -0.00000000000E+00 -0.34996269501E-01  0.35000000000E-01  0.51099999109E-03 0.  1.
       22    1    1    2    0    0 -0.23145839494E-02  0.21424157657E-01 -0.19711494413E-01  0.29204363410E-01  0.00000000000E+00 0.  1.
       22    1    1    2    0    0  0.44631301445E-02 -0.22189892353E-01  0.25783777170E-01  0.34309095273E-01  0.00000000000E+00 0. -1.
       22    1    1    2    0    0 -0.21485461951E-02  0.76573469643E-03 -0.60722827565E-02  0.64865413167E-02  0.00000000000E+00 0.  1.
</event>
<event>
 5   0  0.4146200E+04  0.9118800E+02  0.7546771E-02  0.1180000E+00
      -11   -1    0    0    0    0  0.00000000000E+00  0.00000000000E+00  0.34996269501E-01  0.35000000000E-01  0.51099999109E-03 0.  1.
       11   -1    0    0    0    0 -0.00000000000E+00 -0.00000000000E+00 -0.34996269501E-01  0.35000000000E-01  0.51099999109E-03 0. -1.
       22    1    1    2    0    0  0.29551609518E-02 -0.37953335693E-02  0.34645845017E-01  0.34978166191E-01  0.00000000000E+00 0.  1.
       22    1    1    2    0    0 -0.30919775695E-02  0.37961577573E-02 -0.34333517225E-01  0.34680852701E-01  0.00000000000E+00 0. -1.
       22    1    1    2    0    0  0.13681661770E-03 -0.82418798821E-06 -0.31232779218E-03  0.34098110788E-03  0.00000000000E+00 0. -1.
</event>
<event>
 5   0  0.4146200E+04  0.9118800E+02  0.7546771E-02  0.1180000E+00
      -11   -1    0    0    0    0  0.00000000000E+00  0.00000000000E+00  0.34996269501E-01  0.35000000000E-01  0.51099999109E-03 0. -1.
       11   -1    0    0    0    0 -0.00000000000E+00 -0.00000000000E+00 -0.34996269501E-01  0.35000000000E-01  0.51099999109E-03 0.  1.
       22    1    1    2    0    0 -0.15764116891E-01 -0.68218180033E-02  0.23314078034E-01  0.28958432568E-01  0.00000000000E+00 0. -1.
       22    1    1    2    0    0  0.15852289655E-01  0.70108478239E-02 -0.29841764755E-01  0.34510549086E-01  0.00000000000E+00 0.  1.
       22    1    1    2    0    0 -0.88172764577E-04 -0.18902982057E-03  0.65276867208E-02  0.65310183459E-02  0.00000000000E+00 0. -1.
</event>
<event>
 5   0  0.4146200E+04  0.9118800E+02  0.7546771E-02  0.1180000E+00
      -11   -1    0    0    0    0  0.00000000000E+00  0.00000000000E+00  0.34996269501E-01  0.35000000000E-01  0.51099999109E-03 0.  1.
       11   -1    0    0    0    0 -0.00000000000E+00 -0.00000000000E+00 -0.34996269501E-01  0.35000000000E-01  0.51099999109E-03 0. -1.
       22    1    1    2    0    0 -0.20884624089E-04  0.10646587397E-03 -0.13352531122E-02  0.13396536954E-02  0.00000000000E+00 0. -1.
       22    1    1    2    0    0 -0.14238734231E-01 -0.64834860891E-02  0.31230429616E-01  0.34930171462E-01  0.00000000000E+00 0.  1.
       22    1    1    2    0    0  0.14259618855E-01  0.63770202151E-02 -0.29895176504E-01  0.33730174843E-01  0.00000000000E+00 0. -1.
</event>
<event>
 5   0  0.4146200E+04  0.9118800E+02  0.7546771E-02  0.1180000E+00
      -11   -1    0    0    0    0  0.00000000000E+00  0.00000000000E+00  0.34996269501E-01  0.35000000000E-01  0.51099999109E-03 0.  1.
       11   -1    0    0    0    0 -0.00000000000E+00 -0.00000000000E+00 -0.34996269501E-01  0.35000000000E-01  0.51099999109E-03 0. -1.
       22    1    1    2    0    0  0.55062556758E-02  0.10885125572E-01 -0.32266854261E-01  0.34495719940E-01  0.00000000000E+00 0. -1.
       22    1    1    2    0    0 -0.52237824027E-02 -0.11299329904E-01  0.22415303112E-01  0.25639979962E-01  0.00000000000E+00 0.  1.
       22    1    1    2    0    0 -0.28247327308E-03  0.41420433162E-03  0.98515511493E-02  0.98643000981E-02  0.00000000000E+00 0. -1.
</event>
<event>
 5   0  0.4146200E+04  0.9118800E+02  0.7546771E-02  0.1180000E+00
      -11   -1    0    0    0    0  0.00000000000E+00  0.00000000000E+00  0.34996269501E-01  0.35000000000E-01  0.51099999109E-03 0.  1.
       11   -1    0    0    0    0 -0.00000000000E+00 -0.00000000000E+00 -0.34996269501E-01  0.35000000000E-01  0.51099999109E-03 0. -1.
       22    1    1    2    0    0  0.18090064598E-03  0.46159321768E-04  0.99717760848E-03  0.10145042679E-02  0.00000000000E+00 0.  1.
       22    1    1    2    0    0  0.25178137625E-02 -0.15323860009E-01  0.30303532144E-01  0.34050905012E-01  0.00000000000E+00 0.  1.
       22    1    1    2    0    0 -0.26987144085E-02  0.15277700687E-01 -0.31300709753E-01  0.34934590720E-01  0.00000000000E+00 0. -1.
</event>
<event>
 5   0  0.4146200E+04  0.9118800E+02  0.7546771E-02  0.1180000E+00
      -11   -1    0    0    0    0  0.00000000000E+00  0.00000000000E+00  0.34996269501E-01  0.35000000000E-01  0.51099999109E-03 0.  1.
       11   -1    0    0    0    0 -0.00000000000E+00 -0.00000000000E+00 -0.34996269501E-01  0.35000000000E-01  0.51099999109E-03 0. -1.
       22    1    1    2    0    0  0.20720254438E-01  0.19104224432E-01  0.20122345062E-01  0.34629598697E-01  0.00000000000E+00 0.  1.
       22    1    1    2    0    0 -0.21066916582E-01 -0.19247420431E-01 -0.19251876221E-01  0.34422563901E-01  0.00000000000E+00 0. -1.
       22    1    1    2    0    0  0.34666214413E-03  0.14319599856E-03 -0.87046884124E-03  0.94783740153E-03  0.00000000000E+00 0.  1.
</event>
<event>
 5   0  0.4146200E+04  0.9118800E+02  0.7546771E-02  0.1180000E+00
      -11   -1    0    0    0    0  0.00000000000E+00  0.00000000000E+00  0.34996269501E-01  0.35000000000E-01  0.51099999109E-03 0.  1.
       11   -1    0    0    0    0 -0.00000000000E+00 -0.00000000000E+00 -0.34996269501E-01  0.35000000000E-01  0.51099999109E-03 0. -1.
       22    1    1    2    0    0 -0.46917321130E-03 -0.34689236654E-02 -0.76399892242E-02  0.84037485829E-02  0.00000000000E+00 0.  1.
       22    1    1    2    0    0  0.56658736387E-02  0.22450279748E-02 -0.26423342487E-01  0.27117066635E-01  0.00000000000E+00 0. -1.
       22    1    1    2    0    0 -0.51967004274E-02  0.12238956906E-02  0.34063331711E-01  0.34479184782E-01  0.00000000000E+00 0.  1.
</event>
<event>
 5   0  0.4146200E+04  0.9118800E+02  0.7546771E-02  0.1180000E+00
      -11   -1    0    0    0    0  0.00000000000E+00  0.00000000000E+00  0.34996269501E-01  0.35000000000E-01  0.51099999109E-03 0. -1.
       11   -1    0    0    0    0 -0.00000000000E+00 -0.00000000000E+00 -0.34996269501E-01  0.35000000000E-01  0.51099999109E-03 0.  1.
       22    1    1    2    0    0  0.23348406284E-03  0.59078211819E-04 -0.91380131612E-03  0.94500681905E-03  0.00000000000E+00 0.  1.
       22    1    1    2    0    0 -0.11763469914E-01  0.16388463716E-01 -0.27593897809E-01  0.34181634889E-01  0.00000000000E+00 0.  1.
       22    1    1    2    0    0  0.11529985851E-01 -0.16447541927E-01  0.28507699125E-01  0.34873358292E-01  0.00000000000E+00 0. -1.
</event>
<event>
 5   0  0.4146200E+04  0.9118800E+02  0.7546771E-02  0.1180000E+00
      -11   -1    0    0    0    0  0.00000000000E+00  0.00000000000E+00  0.34996269501E-01  0.35000000000E-01  0.51099999109E-03 0.  1.
       11   -1    0    0    0    0 -0.00000000000E+00 -0.00000000000E+00 -0.34996269501E-01  0.35000000000E-01  0.51099999109E-03 0. -1.
       22    1    1    2    0    0  0.11921646447E-02  0.21422065260E-01 -0.10171170274E-01  0.23744027486E-01  0.00000000000E+00 0. -1.
       22    1    1    2    0    0  0.35165031648E-02  0.31618549336E-02 -0.11949624395E-01  0.12851328504E-01  0.00000000000E+00 0. -1.
       22    1    1    2    0    0 -0.47086678095E-02 -0.24583920193E-01  0.22120794669E-01  0.33404644010E-01  0.00000000000E+00 0.  1.
</event>
<event>
 5   0  0.4146200E+04  0.9118800E+02  0.7546771E-02  0.1180000E+00
      -11   -1    0    0    0    0  0.00000000000E+00  0.00000000000E+00  0.34996269501E-01  0.35000000000E-01  0.51099999109E-03 0.  1.
       11   -1    0    0    0    0 -0.00000000000E+00 -0.00000000000E+00 -0.34996269501E-01  0.35000000000E-01  0.51099999109E-03 0. -1.
       22    1    1    2    0    0  0.84094117218E-02  0.23271420020E-01 -0.24460688560E-01  0.34793713227E-01  0.00000000000E+00 0. -1.
       22    1    1    2    0    0 -0.80678101645E-02 -0.23463813254E-01  0.23524236153E-01  0.34191077488E-01  0.00000000000E+00 0.  1.
       22    1    1    2    0    0 -0.34160155729E-03  0.19239323324E-03  0.93645240758E-03  0.10152092847E-02  0.00000000000E+00 0. -1.
</event>
<event>
 5   0  0.4146200E+04  0.9118800E+02  0.7546771E-02  0.1180000E+00
      -11   -1    0    0    0    0  0.00000000000E+00  0.00000000000E+00  0.34996269501E-01  0.35000000000E-01  0.51099999109E-03 0.  1.
       11   -1    0    0    0    0 -0.00000000000E+00 -0.00000000000E+00 -0.34996269501E-01  0.35000000000E-01  0.51099999109E-03 0. -1.
       22    1    1    2    0    0  0.51253432948E-04  0.18208405955E-03  0.15625823936E-02  0.15739902337E-02  0.00000000000E+00 0.  1.
       22    1    1    2    0    0  0.54125086762E-02  0.19086650737E-01  0.27022112596E-01  0.33522978025E-01  0.00000000000E+00 0.  1.
       22    1    1    2    0    0 -0.54637621092E-02 -0.19268734796E-01 -0.28584694990E-01  0.34903031741E-01  0.00000000000E+00 0. -1.
</event>
<event>
 5   0  0.4146200E+04  0.9118800E+02  0.7546771E-02  0.1180000E+00
      -11   -1    0    0    0    0  0.00000000000E+00  0.00000000000E+00  0.34996269501E-01  0.35000000000E-01  0.51099999109E-03 0.  1.
       11   -1    0    0    0    0 -0.00000000000E+00 -0.00000000000E+00 -0.34996269501E-01  0.35000000000E-01  0.51099999109E-03 0. -1.
       22    1    1    2    0    0  0.83055035827E-03  0.16498688926E-03  0.29145623875E-01  0.29157922177E-01  0.00000000000E+00 0.  1.
       22    1    1    2    0    0  0.25210278809E-02  0.13106360246E-01 -0.21093473580E-01  0.24961307821E-01  0.00000000000E+00 0. -1.
       22    1    1    2    0    0 -0.33515782391E-02 -0.13271347135E-01 -0.80521502952E-02  0.15880770002E-01  0.00000000000E+00 0.  1.
</event>
<event>
 5   0  0.4146200E+04  0.9118800E+02  0.7546771E-02  0.1180000E+00
      -11   -1    0    0    0    0  0.00000000000E+00  0.00000000000E+00  0.34996269501E-01  0.35000000000E-01  0.51099999109E-03 0.  1.
       11   -1    0    0    0    0 -0.00000000000E+00 -0.00000000000E+00 -0.34996269501E-01  0.35000000000E-01  0.51099999109E-03 0.  1.
       22    1    1    2    0    0 -0.32396072580E-03  0.54860330004E-04 -0.34641849199E-01  0.34643407398E-01  0.00000000000E+00 0.  1.
       22    1    1    2    0    0  0.16022877915E-03 -0.50182293184E-04 -0.33744792831E-03  0.37691196391E-03  0.00000000000E+00 0. -1.
       22    1    1    2    0    0  0.16373194665E-03 -0.46780368195E-05  0.34979297127E-01  0.34979680638E-01  0.00000000000E+00 0.  1.
</event>
<event>
 5   0  0.4146200E+04  0.9118800E+02  0.7546771E-02  0.1180000E+00
      -11   -1    0    0    0    0  0.00000000000E+00  0.00000000000E+00  0.34996269501E-01  0.35000000000E-01  0.51099999109E-03 0.  1.
       11   -1    0    0    0    0 -0.00000000000E+00 -0.00000000000E+00 -0.34996269501E-01  0.35000000000E-01  0.51099999109E-03 0. -1.
       22    1    1    2    0    0 -0.18493941149E-01  0.15872592490E-01 -0.24843410467E-01  0.34801725463E-01  0.00000000000E+00 0. -1.
       22    1    1    2    0    0  0.18058165409E-01 -0.15897971017E-01  0.25034911430E-01  0.34721601500E-01  0.00000000000E+00 0.  1.
       22    1    1    2    0    0  0.43577574012E-03  0.25378527262E-04 -0.19150096318E-03  0.47667303702E-03  0.00000000000E+00 0.  1.
</event>
<event>
 5   0  0.4146200E+04  0.9118800E+02  0.7546771E-02  0.1180000E+00
      -11   -1    0    0    0    0  0.00000000000E+00  0.00000000000E+00  0.34996269501E-01  0.35000000000E-01  0.51099999109E-03 0. -1.
       11   -1    0    0    0    0 -0.00000000000E+00 -0.00000000000E+00 -0.34996269501E-01  0.35000000000E-01  0.51099999109E-03 0.  1.
       22    1    1    2    0    0  0.70082335902E-03  0.11594458034E-01  0.32515654606E-01  0.34528110359E-01  0.00000000000E+00 0. -1.
       22    1    1    2    0    0  0.35492173419E-04  0.35530166120E-04  0.47806015395E-03  0.48069075077E-03  0.00000000000E+00 0.  1.
       22    1    1    2    0    0 -0.73631553244E-03 -0.11629988200E-01 -0.32993714760E-01  0.34991198890E-01  0.00000000000E+00 0.  1.
</event>
<event>
 5   0  0.4146200E+04  0.9118800E+02  0.7546771E-02  0.1180000E+00
      -11   -1    0    0    0    0  0.00000000000E+00  0.00000000000E+00  0.34996269501E-01  0.35000000000E-01  0.51099999109E-03 0. -1.
       11   -1    0    0    0    0 -0.00000000000E+00 -0.00000000000E+00 -0.34996269501E-01  0.35000000000E-01  0.51099999109E-03 0.  1.
       22    1    1    2    0    0 -0.36840019824E-03  0.67630996219E-04  0.22107590937E-02  0.22422641298E-02  0.00000000000E+00 0.  1.
       22    1    1    2    0    0 -0.41537821887E-02  0.14115408739E-01  0.29367018233E-01  0.32846924213E-01  0.00000000000E+00 0. -1.
       22    1    1    2    0    0  0.45221823870E-02 -0.14183039735E-01 -0.31577777327E-01  0.34910811657E-01  0.00000000000E+00 0.  1.
</event>
<event>
 5   0  0.4146200E+04  0.9118800E+02  0.7546771E-02  0.1180000E+00
      -11   -1    0    0    0    0  0.00000000000E+00  0.00000000000E+00  0.34996269501E-01  0.35000000000E-01  0.51099999109E-03 0.  1.
       11   -1    0    0    0    0 -0.00000000000E+00 -0.00000000000E+00 -0.34996269501E-01  0.35000000000E-01  0.51099999109E-03 0. -1.
       22    1    1    2    0    0  0.12690304264E-01 -0.83892923630E-02  0.22387139376E-01  0.27066733422E-01  0.00000000000E+00 0.  1.
       22    1    1    2    0    0 -0.11265605251E-01 -0.66200954647E-02  0.29999995699E-02  0.13406696948E-01  0.00000000000E+00 0.  1.
       22    1    1    2    0    0 -0.14246990126E-02  0.15009387828E-01 -0.25387138946E-01  0.29526569630E-01  0.00000000000E+00 0. -1.
</event>
<event>
 5   0  0.4146200E+04  0.9118800E+02  0.7546771E-02  0.1180000E+00
      -11   -1    0    0    0    0  0.00000000000E+00  0.00000000000E+00  0.34996269501E-01  0.35000000000E-01  0.51099999109E-03 0. -1.
       11   -1    0    0    0    0 -0.00000000000E+00 -0.00000000000E+00 -0.34996269501E-01  0.35000000000E-01  0.51099999109E-03 0.  1.
       22    1    1    2    0    0  0.22325417094E-03 -0.75011852715E-03  0.34847504541E-01  0.34856292014E-01  0.00000000000E+00 0. -1.
       22    1    1    2    0    0 -0.75643210328E-03 -0.62952052845E-04 -0.87934893150E-03  0.11616398027E-02  0.00000000000E+00 0. -1.
       22    1    1    2    0    0  0.53317793235E-03  0.81307058000E-03 -0.33968155610E-01  0.33982068183E-01  0.00000000000E+00 0.  1.
</event>
<event>
 5   0  0.4146200E+04  0.9118800E+02  0.7546771E-02  0.1180000E+00
      -11   -1    0    0    0    0  0.00000000000E+00  0.00000000000E+00  0.34996269501E-01  0.35000000000E-01  0.51099999109E-03 0. -1.
       11   -1    0    0    0    0 -0.00000000000E+00 -0.00000000000E+00 -0.34996269501E-01  0.35000000000E-01  0.51099999109E-03 0.  1.
       22    1    1    2    0    0  0.37188381698E-03  0.57911770517E-04 -0.93977695586E-03  0.10123399001E-02  0.00000000000E+00 0.  1.
       22    1    1    2    0    0  0.49806558115E-02 -0.55193290504E-02  0.34128760057E-01  0.34929102314E-01  0.00000000000E+00 0. -1.
       22    1    1    2    0    0 -0.53525396284E-02  0.54614172798E-02 -0.33188983101E-01  0.34058557786E-01  0.00000000000E+00 0.  1.
</event>
<event>
 5   0  0.4146200E+04  0.9118800E+02  0.7546771E-02  0.1180000E+00
      -11   -1    0    0    0    0  0.00000000000E+00  0.00000000000E+00  0.34996269501E-01  0.35000000000E-01  0.51099999109E-03 0. -1.
       11   -1    0    0    0    0 -0.00000000000E+00 -0.00000000000E+00 -0.34996269501E-01  0.35000000000E-01  0.51099999109E-03 0.  1.
       22    1    1    2    0    0  0.65139088465E-03 -0.11765398032E-02 -0.43525235957E-02  0.45555480070E-02  0.00000000000E+00 0.  1.
       22    1    1    2    0    0 -0.18035340617E-01  0.42861030653E-02  0.29424622759E-01  0.34777185268E-01  0.00000000000E+00 0. -1.
       22    1    1    2    0    0  0.17383949732E-01 -0.31095632621E-02 -0.25072099163E-01  0.30667266725E-01  0.00000000000E+00 0.  1.
</event>
<event>
 5   0  0.4146200E+04  0.9118800E+02  0.7546771E-02  0.1180000E+00
      -11   -1    0    0    0    0  0.00000000000E+00  0.00000000000E+00  0.34996269501E-01  0.35000000000E-01  0.51099999109E-03 0. -1.
       11   -1    0    0    0    0 -0.00000000000E+00 -0.00000000000E+00 -0.34996269501E-01  0.35000000000E-01  0.51099999109E-03 0.  1.
       22    1    1    2    0    0  0.16249299277E-01  0.29873555784E-02  0.30430481325E-01  0.34626264800E-01  0.00000000000E+00 0. -1.
       22    1    1    2    0    0  0.30710468700E-03  0.37818935286E-03  0.83938386582E-04  0.49435425369E-03  0.00000000000E+00 0. -1.
       22    1    1    2    0    0 -0.16556403964E-01 -0.33655449312E-02 -0.30514419711E-01  0.34879380946E-01  0.00000000000E+00 0.  1.
</event>
<event>
 5   0  0.4146200E+04  0.9118800E+02  0.7546771E-02  0.1180000E+00
      -11   -1    0    0    0    0  0.00000000000E+00  0.00000000000E+00  0.34996269501E-01  0.35000000000E-01  0.51099999109E-03 0. -1.
       11   -1    0    0    0    0 -0.00000000000E+00 -0.00000000000E+00 -0.34996269501E-01  0.35000000000E-01  0.51099999109E-03 0.  1.
       22    1    1    2    0    0  0.54384783394E-02 -0.19152424607E-01 -0.28031724122E-01  0.34382698734E-01  0.00000000000E+00 0.  1.
       22    1    1    2    0    0 -0.39126162742E-02  0.19171977041E-01  0.27910909366E-01  0.34086538859E-01  0.00000000000E+00 0. -1.
       22    1    1    2    0    0 -0.15258620651E-02 -0.19552434284E-04  0.12081475671E-03  0.15307624064E-02  0.00000000000E+00 0.  1.
</event>
<event>
 5   0  0.4146200E+04  0.9118800E+02  0.7546771E-02  0.1180000E+00
      -11   -1    0    0    0    0  0.00000000000E+00  0.00000000000E+00  0.34996269501E-01  0.35000000000E-01  0.51099999109E-03 0. -1.
       11   -1    0    0    0    0 -0.00000000000E+00 -0.00000000000E+00 -0.34996269501E-01  0.35000000000E-01  0.51099999109E-03 0.  1.
       22    1    1    2    0    0  0.54830624169E-05 -0.31901050804E-05  0.38509227905E-03  0.38514452369E-03  0.00000000000E+00 0.  1.
       22    1    1    2    0    0  0.73281614211E-03  0.11368793087E-01  0.32698161371E-01  0.34625947392E-01  0.00000000000E+00 0. -1.
       22    1    1    2    0    0 -0.73829920453E-03 -0.11365602982E-01 -0.33083253650E-01  0.34988908084E-01  0.00000000000E+00 0.  1.
</event>
<event>
 5   0  0.4146200E+04  0.9118800E+02  0.7546771E-02  0.1180000E+00
      -11   -1    0    0    0    0  0.00000000000E+00  0.00000000000E+00  0.34996269501E-01  0.35000000000E-01  0.51099999109E-03 0.  1.
       11   -1    0    0    0    0 -0.00000000000E+00 -0.00000000000E+00 -0.34996269501E-01  0.35000000000E-01  0.51099999109E-03 0. -1.
       22    1    1    2    0    0 -0.56985784958E-02 -0.15140647939E-01 -0.24744748544E-01  0.29563754792E-01  0.00000000000E+00 0. -1.
       22    1    1    2    0    0  0.12229925099E-03  0.11799225208E-03 -0.58747371776E-02  0.58771945846E-02  0.00000000000E+00 0.  1.
       22    1    1    2    0    0  0.55762792448E-02  0.15022655687E-01  0.30619485722E-01  0.34559050623E-01  0.00000000000E+00 0.  1.
</event>
<event>
 5   0  0.4146200E+04  0.9118800E+02  0.7546771E-02  0.1180000E+00
      -11   -1    0    0    0    0  0.00000000000E+00  0.00000000000E+00  0.34996269501E-01  0.35000000000E-01  0.51099999109E-03 0. -1.
       11   -1    0    0    0    0 -0.00000000000E+00 -0.00000000000E+00 -0.34996269501E-01  0.35000000000E-01  0.51099999109E-03 0.  1.
       22    1    1    2    0    0  0.97123960999E-03  0.17185658423E-02 -0.31143578385E-01  0.31206077126E-01  0.00000000000E+00 0.  1.
       22    1    1    2    0    0 -0.21873988240E-02 -0.74422483415E-03 -0.34571170133E-02  0.41581537084E-02  0.00000000000E+00 0. -1.
       22    1    1    2    0    0  0.12161592140E-02 -0.97434100815E-03  0.34600695399E-01  0.34635769166E-01  0.00000000000E+00 0. -1.
</event>
<event>
 5   0  0.4146200E+04  0.9118800E+02  0.7546771E-02  0.1180000E+00
      -11   -1    0    0    0    0  0.00000000000E+00  0.00000000000E+00  0.34996269501E-01  0.35000000000E-01  0.51099999109E-03 0.  1.
       11   -1    0    0    0    0 -0.00000000000E+00 -0.00000000000E+00 -0.34996269501E-01  0.35000000000E-01  0.51099999109E-03 0. -1.
       22    1    1    2    0    0  0.37268372764E-02  0.80529551562E-02  0.26074249731E-01  0.27542801271E-01  0.00000000000E+00 0.  1.
       22    1    1    2    0    0 -0.16658446694E-01 -0.65069175650E-02 -0.22893113241E-01  0.29050618863E-01  0.00000000000E+00 0. -1.
       22    1    1    2    0    0  0.12931609417E-01 -0.15460375911E-02 -0.31811364899E-02  0.13406579867E-01  0.00000000000E+00 0. -1.
</event>
<event>
 5   0  0.4146200E+04  0.9118800E+02  0.7546771E-02  0.1180000E+00
      -11   -1    0    0    0    0  0.00000000000E+00  0.00000000000E+00  0.34996269501E-01  0.35000000000E-01  0.51099999109E-03 0. -1.
       11   -1    0    0    0    0 -0.00000000000E+00 -0.00000000000E+00 -0.34996269501E-01  0.35000000000E-01  0.51099999109E-03 0.  1.
       22    1    1    2    0    0  0.11543140564E-01 -0.38278436422E-02 -0.32749463537E-01  0.34934565161E-01  0.00000000000E+00 0.  1.
       22    1    1    2    0    0 -0.89430258255E-02  0.30123204120E-02  0.28458751735E-01  0.29982533840E-01  0.00000000000E+00 0. -1.
       22    1    1    2    0    0 -0.26001147385E-02  0.81552323021E-03  0.42907118020E-02  0.50829009985E-02  0.00000000000E+00 0.  1.
</event>
<event>
 5   0  0.4146200E+04  0.9118800E+02  0.7546771E-02  0.1180000E+00
      -11   -1    0    0    0    0  0.00000000000E+00  0.00000000000E+00  0.34996269501E-01  0.35000000000E-01  0.51099999109E-03 0.  1.
       11   -1    0    0    0    0 -0.00000000000E+00 -0.00000000000E+00 -0.34996269501E-01  0.35000000000E-01  0.51099999109E-03 0. -1.
       22    1    1    2    0    0 -0.14951835002E-01  0.66770780572E-02  0.30767470075E-01  0.34853664888E-01  0.00000000000E+00 0.  1.
       22    1    1    2    0    0  0.34396223482E-04  0.19823593170E-03 -0.20764080646E-02  0.20861330340E-02  0.00000000000E+00 0.  1.
       22    1    1    2    0    0  0.14917438779E-01 -0.68753139889E-02 -0.28691062010E-01  0.33060202078E-01  0.00000000000E+00 0. -1.
</event>
<event>
 5   0  0.4146200E+04  0.9118800E+02  0.7546771E-02  0.1180000E+00
      -11   -1    0    0    0    0  0.00000000000E+00  0.00000000000E+00  0.34996269501E-01  0.35000000000E-01  0.51099999109E-03 0. -1.
       11   -1    0    0    0    0 -0.00000000000E+00 -0.00000000000E+00 -0.34996269501E-01  0.35000000000E-01  0.51099999109E-03 0.  1.
       22    1    1    2    0    0 -0.77229837607E-02 -0.23106812548E-01  0.24761553433E-01  0.34737642302E-01  0.00000000000E+00 0. -1.
       22    1    1    2    0    0 -0.51691234531E-03 -0.23739181707E-04 -0.27864726079E-03  0.58771269973E-03  0.00000000000E+00 0.  1.
       22    1    1    2    0    0  0.82398961060E-02  0.23130551729E-01 -0.24482906172E-01  0.34674644998E-01  0.00000000000E+00 0.  1.
</event>
<event>
 5   0  0.4146200E+04  0.9118800E+02  0.7546771E-02  0.1180000E+00
      -11   -1    0    0    0    0  0.00000000000E+00  0.00000000000E+00  0.34996269501E-01  0.35000000000E-01  0.51099999109E-03 0. -1.
       11   -1    0    0    0    0 -0.00000000000E+00 -0.00000000000E+00 -0.34996269501E-01  0.35000000000E-01  0.51099999109E-03 0.  1.
       22    1    1    2    0    0 -0.54011230907E-02  0.13055833075E-02  0.34471493961E-01  0.34916479981E-01  0.00000000000E+00 0. -1.
       22    1    1    2    0    0 -0.19132327101E-03 -0.39834877138E-03 -0.62104214250E-03  0.76222023094E-03  0.00000000000E+00 0.  1.
       22    1    1    2    0    0  0.55924463617E-02 -0.90723453607E-03 -0.33850451818E-01  0.34321299788E-01  0.00000000000E+00 0.  1.
</event>
<event>
 5   0  0.4146200E+04  0.9118800E+02  0.7546771E-02  0.1180000E+00
      -11   -1    0    0    0    0  0.00000000000E+00  0.00000000000E+00  0.34996269501E-01  0.35000000000E-01  0.51099999109E-03 0.  1.
       11   -1    0    0    0    0 -0.00000000000E+00 -0.00000000000E+00 -0.34996269501E-01  0.35000000000E-01  0.51099999109E-03 0. -1.
       22    1    1    2    0    0  0.60921276116E-02 -0.10897161232E-01  0.31461834850E-01  0.33848326309E-01  0.00000000000E+00 0.  1.
       22    1    1    2    0    0 -0.60820203127E-02  0.10873071281E-01 -0.32658798918E-01  0.34954424569E-01  0.00000000000E+00 0. -1.
       22    1    1    2    0    0 -0.10107298891E-04  0.24089950893E-04  0.11969640675E-02  0.11972491228E-02  0.00000000000E+00 0.  1.
</event>
<event>
 5   0  0.4146200E+04  0.9118800E+02  0.7546771E-02  0.1180000E+00
      -11   -1    0    0    0    0  0.00000000000E+00  0.00000000000E+00  0.34996269501E-01  0.35000000000E-01  0.51099999109E-03 0.  1.
       11   -1    0    0    0    0 -0.00000000000E+00 -0.00000000000E+00 -0.34996269501E-01  0.35000000000E-01  0.51099999109E-03 0. -1.
       22    1    1    2    0    0  0.42995584406E-02  0.20982916028E-01  0.19340084999E-01  0.28858410483E-01  0.00000000000E+00 0.  1.
       22    1    1    2    0    0 -0.44390343933E-02 -0.20746123740E-01 -0.26516866760E-01  0.33959547985E-01  0.00000000000E+00 0. -1.
       22    1    1    2    0    0  0.13947595273E-03 -0.23679228871E-03  0.71767817607E-02  0.71820415322E-02  0.00000000000E+00 0.  1.
</event>
<event>
 5   0  0.4146200E+04  0.9118800E+02  0.7546771E-02  0.1180000E+00
      -11   -1    0    0    0    0  0.00000000000E+00  0.00000000000E+00  0.34996269501E-01  0.35000000000E-01  0.51099999109E-03 0. -1.
       11   -1    0    0    0    0 -0.00000000000E+00 -0.00000000000E+00 -0.34996269501E-01  0.35000000000E-01  0.51099999109E-03 0.  1.
       22    1    1    2    0    0 -0.42901900575E-03  0.46978010482E-03 -0.22120416028E-02  0.23017121251E-02  0.00000000000E+00 0. -1.
       22    1    1    2    0    0 -0.11035575101E-01 -0.18938642977E-02 -0.30774015204E-01  0.32747681621E-01  0.00000000000E+00 0.  1.
       22    1    1    2    0    0  0.11464594107E-01  0.14240841929E-02  0.32986056807E-01  0.34950606254E-01  0.00000000000E+00 0. -1.
</event>
<event>
 5   0  0.4146200E+04  0.9118800E+02  0.7546771E-02  0.1180000E+00
      -11   -1    0    0    0    0  0.00000000000E+00  0.00000000000E+00  0.34996269501E-01  0.35000000000E-01  0.51099999109E-03 0.  1.
       11   -1    0    0    0    0 -0.00000000000E+00 -0.00000000000E+00 -0.34996269501E-01  0.35000000000E-01  0.51099999109E-03 0. -1.
       22    1    1    2    0    0  0.43770845857E-03  0.41211329729E-03  0.24867936512E-02  0.25584309113E-02  0.00000000000E+00 0. -1.
       22    1    1    2    0    0 -0.12148204948E-01 -0.60297091989E-02  0.29745161385E-01  0.32691144096E-01  0.00000000000E+00 0.  1.
       22    1    1    2    0    0  0.11710496489E-01  0.56175959016E-02 -0.32231955036E-01  0.34750424993E-01  0.00000000000E+00 0. -1.
</event>
<event>
 5   0  0.4146200E+04  0.9118800E+02  0.7546771E-02  0.1180000E+00
      -11   -1    0    0    0    0  0.00000000000E+00  0.00000000000E+00  0.34996269501E-01  0.35000000000E-01  0.51099999109E-03 0. -1.
       11   -1    0    0    0    0 -0.00000000000E+00 -0.00000000000E+00 -0.34996269501E-01  0.35000000000E-01  0.51099999109E-03 0.  1.
       22    1    1    2    0    0 -0.11774900210E-01  0.36588887733E-02 -0.30130916245E-01  0.32556226068E-01  0.00000000000E+00 0.  1.
       22    1    1    2    0    0  0.37981370169E-03 -0.32452380577E-03 -0.25887714460E-02  0.26365340407E-02  0.00000000000E+00 0.  1.
       22    1    1    2    0    0  0.11395086508E-01 -0.33343649676E-02  0.32719687691E-01  0.34807239892E-01  0.00000000000E+00 0. -1.
</event>
<event>
 5   0  0.4146200E+04  0.9118800E+02  0.7546771E-02  0.1180000E+00
      -11   -1    0    0    0    0  0.00000000000E+00  0.00000000000E+00  0.34996269501E-01  0.35000000000E-01  0.51099999109E-03 0.  1.
       11   -1    0    0    0    0 -0.00000000000E+00 -0.00000000000E+00 -0.34996269501E-01  0.35000000000E-01  0.51099999109E-03 0. -1.
       22    1    1    2    0    0 -0.55257959597E-03  0.73733145451E-02  0.33914009354E-01  0.34710677638E-01  0.00000000000E+00 0.  1.
       22    1    1    2    0    0 -0.11332792636E-02  0.33652293036E-03 -0.14055321606E-02  0.18365974590E-02  0.00000000000E+00 0. -1.
       22    1    1    2    0    0  0.16858588596E-02 -0.77098374754E-02 -0.32508477194E-01  0.33452724903E-01  0.00000000000E+00 0. -1.
</event>
<event>
 5   0  0.4146200E+04  0.9118800E+02  0.7546771E-02  0.1180000E+00
      -11   -1    0    0    0    0  0.00000000000E+00  0.00000000000E+00  0.34996269501E-01  0.35000000000E-01  0.51099999109E-03 0. -1.
       11   -1    0    0    0    0 -0.00000000000E+00 -0.00000000000E+00 -0.34996269501E-01  0.35000000000E-01  0.51099999109E-03 0.  1.
       22    1    1    2    0    0 -0.18641913533E-01  0.18123324623E-01 -0.23132241735E-01  0.34800523606E-01  0.00000000000E+00 0.  1.
       22    1    1    2    0    0  0.18547849453E-01 -0.18026792456E-01  0.23413172262E-01  0.34887886163E-01  0.00000000000E+00 0. -1.
       22    1    1    2    0    0  0.94064080141E-04 -0.96532167506E-04 -0.28093052781E-03  0.31159023089E-03  0.00000000000E+00 0. -1.
</event>
<event>
 5   0  0.4146200E+04  0.9118800E+02  0.7546771E-02  0.1180000E+00
      -11   -1    0    0    0    0  0.00000000000E+00  0.00000000000E+00  0.34996269501E-01  0.35000000000E-01  0.51099999109E-03 0. -1.
       11   -1    0    0    0    0 -0.00000000000E+00 -0.00000000000E+00 -0.34996269501E-01  0.35000000000E-01  0.51099999109E-03 0.  1.
       22    1    1    2    0    0  0.14139761987E-03 -0.10499459459E-03 -0.39836878841E-03  0.43556267446E-03  0.00000000000E+00 0.  1.
       22    1    1    2    0    0  0.28891543890E-01 -0.82917081254E-02 -0.17160171520E-01  0.34611345230E-01  0.00000000000E+00 0.  1.
       22    1    1    2    0    0 -0.29032941510E-01  0.83967027200E-02  0.17558540309E-01  0.34953092096E-01  0.00000000000E+00 0. -1.
</event>
<event>
 5   0  0.4146200E+04  0.9118800E+02  0.7546771E-02  0.1180000E+00
      -11   -1    0    0    0    0  0.00000000000E+00  0.00000000000E+00  0.34996269501E-01  0.35000000000E-01  0.51099999109E-03 0.  1.
       11   -1    0    0    0    0 -0.00000000000E+00 -0.00000000000E+00 -0.34996269501E-01  0.35000000000E-01  0.51099999109E-03 0. -1.
       22    1    1    2    0    0 -0.24213761753E-02  0.43386141048E-02 -0.20008074080E-01  0.20615762497E-01  0.00000000000E+00 0. -1.
       22    1    1    2    0    0  0.51679749044E-02 -0.29024019515E-02 -0.14016795484E-01  0.15218490639E-01  0.00000000000E+00 0. -1.
       22    1    1    2    0    0 -0.27465987291E-02 -0.14362121532E-02  0.34024869564E-01  0.34165746864E-01  0.00000000000E+00 0.  1.
</event>
<event>
 5   0  0.4146200E+04  0.9118800E+02  0.7546771E-02  0.1180000E+00
      -11   -1    0    0    0    0  0.00000000000E+00  0.00000000000E+00  0.34996269501E-01  0.35000000000E-01  0.51099999109E-03 0. -1.
       11   -1    0    0    0    0 -0.00000000000E+00 -0.00000000000E+00 -0.34996269501E-01  0.35000000000E-01  0.51099999109E-03 0.  1.
       22    1    1    2    0    0  0.71029312856E-04  0.25061224600E-03  0.55334988887E-03  0.61159444132E-03  0.00000000000E+00 0. -1.
       22    1    1    2    0    0  0.96092489428E-02 -0.86919066912E-02 -0.32483247491E-01  0.34972107096E-01  0.00000000000E+00 0.  1.
       22    1    1    2    0    0 -0.96802782556E-02  0.84412944452E-02  0.31929897602E-01  0.34416298463E-01  0.00000000000E+00 0. -1.
</event>
<event>
 5   0  0.4146200E+04  0.9118800E+02  0.7546771E-02  0.1180000E+00
      -11   -1    0    0    0    0  0.00000000000E+00  0.00000000000E+00  0.34996269501E-01  0.35000000000E-01  0.51099999109E-03 0. -1.
       11   -1    0    0    0    0 -0.00000000000E+00 -0.00000000000E+00 -0.34996269501E-01  0.35000000000E-01  0.51099999109E-03 0.  1.
       22    1    1    2    0    0  0.10338694340E-01  0.11694822360E-01  0.30397993647E-01  0.34171559643E-01  0.00000000000E+00 0. -1.
       22    1    1    2    0    0  0.31761371700E-03 -0.39411323829E-04  0.79965817641E-03  0.86132742019E-03  0.00000000000E+00 0.  1.
       22    1    1    2    0    0 -0.10656308057E-01 -0.11655411036E-01 -0.31197651824E-01  0.34967112937E-01  0.00000000000E+00 0.  1.
</event>
<event>
 5   0  0.4146200E+04  0.9118800E+02  0.7546771E-02  0.1180000E+00
      -11   -1    0    0    0    0  0.00000000000E+00  0.00000000000E+00  0.34996269501E-01  0.35000000000E-01  0.51099999109E-03 0. -1.
       11   -1    0    0    0    0 -0.00000000000E+00 -0.00000000000E+00 -0.34996269501E-01  0.35000000000E-01  0.51099999109E-03 0.  1.
       22    1    1    2    0    0 -0.16551623352E-01 -0.56516054315E-02 -0.29880244203E-01  0.34622620830E-01  0.00000000000E+00 0.  1.
       22    1    1    2    0    0  0.16536175978E-01  0.57306088313E-02  0.30277749642E-01  0.34971804599E-01  0.00000000000E+00 0. -1.
       22    1    1    2    0    0  0.15447374023E-04 -0.79003399800E-04 -0.39750543902E-03  0.40557457094E-03  0.00000000000E+00 0.  1.
</event>
<event>
 5   0  0.4146200E+04  0.9118800E+02  0.7546771E-02  0.1180000E+00
      -11   -1    0    0    0    0  0.00000000000E+00  0.00000000000E+00  0.34996269501E-01  0.35000000000E-01  0.51099999109E-03 0.  1.
       11   -1    0    0    0    0 -0.00000000000E+00 -0.00000000000E+00 -0.34996269501E-01  0.35000000000E-01  0.51099999109E-03 0. -1.
       22    1    1    2    0    0 -0.49533767788E-03 -0.80487586957E-03 -0.10106492063E-01  0.10150584535E-01  0.00000000000E+00 0.  1.
       22    1    1    2    0    0  0.10595825928E-01 -0.77525795587E-03  0.33058383111E-01  0.34723612225E-01  0.00000000000E+00 0.  1.
       22    1    1    2    0    0 -0.10100488250E-01  0.15801338254E-02 -0.22951891048E-01  0.25125803240E-01  0.00000000000E+00 0. -1.
</event>
<event>
 5   0  0.4146200E+04  0.9118800E+02  0.7546771E-02  0.1180000E+00
      -11   -1    0    0    0    0  0.00000000000E+00  0.00000000000E+00  0.34996269501E-01  0.35000000000E-01  0.51099999109E-03 0.  1.
       11   -1    0    0    0    0 -0.00000000000E+00 -0.00000000000E+00 -0.34996269501E-01  0.35000000000E-01  0.51099999109E-03 0. -1.
       22    1    1    2    0    0 -0.93672115066E-02 -0.10086080577E-01 -0.30982084491E-01  0.33902259987E-01  0.00000000000E+00 0. -1.
       22    1    1    2    0    0  0.15122145625E-03  0.13820814787E-02 -0.98835754243E-03  0.17058334545E-02  0.00000000000E+00 0.  1.
       22    1    1    2    0    0  0.92159900504E-02  0.87039990984E-02  0.31970442033E-01  0.34391906559E-01  0.00000000000E+00 0.  1.
</event>
<event>
 5   0  0.4146200E+04  0.9118800E+02  0.7546771E-02  0.1180000E+00
      -11   -1    0    0    0    0  0.00000000000E+00  0.00000000000E+00  0.34996269501E-01  0.35000000000E-01  0.51099999109E-03 0. -1.
       11   -1    0    0    0    0 -0.00000000000E+00 -0.00000000000E+00 -0.34996269501E-01  0.35000000000E-01  0.51099999109E-03 0. -1.
       22    1    1    2    0    0  0.11781821628E-02  0.19734911798E-03  0.34937093871E-01  0.34957511181E-01  0.00000000000E+00 0. -1.
       22    1    1    2    0    0 -0.13971460110E-02 -0.40186123667E-03 -0.34373273639E-01  0.34404003402E-01  0.00000000000E+00 0. -1.
       22    1    1    2    0    0  0.21896384824E-03  0.20451211869E-03 -0.56382023160E-03  0.63848541651E-03  0.00000000000E+00 0.  1.
</event>
<event>
 5   0  0.4146200E+04  0.9118800E+02  0.7546771E-02  0.1180000E+00
      -11   -1    0    0    0    0  0.00000000000E+00  0.00000000000E+00  0.34996269501E-01  0.35000000000E-01  0.51099999109E-03 0. -1.
       11   -1    0    0    0    0 -0.00000000000E+00 -0.00000000000E+00 -0.34996269501E-01  0.35000000000E-01  0.51099999109E-03 0.  1.
       22    1    1    2    0    0 -0.58834425395E-02 -0.61369175667E-02 -0.73680210290E-02  0.11250083876E-01  0.00000000000E+00 0. -1.
       22    1    1    2    0    0  0.16159773662E-01  0.16819469038E-02 -0.21982495549E-01  0.27334910659E-01  0.00000000000E+00 0.  1.
       22    1    1    2    0    0 -0.10276331122E-01  0.44549706629E-02  0.29350516578E-01  0.31415005465E-01  0.00000000000E+00 0. -1.
</event>
<event>
 5   0  0.4146200E+04  0.9118800E+02  0.7546771E-02  0.1180000E+00
      -11   -1    0    0    0    0  0.00000000000E+00  0.00000000000E+00  0.34996269501E-01  0.35000000000E-01  0.51099999109E-03 0.  1.
       11   -1    0    0    0    0 -0.00000000000E+00 -0.00000000000E+00 -0.34996269501E-01  0.35000000000E-01  0.51099999109E-03 0.  1.
       22    1    1    2    0    0  0.81865499146E-04 -0.87419796125E-03 -0.34004225196E-01  0.34015559016E-01  0.00000000000E+00 0.  1.
       22    1    1    2    0    0 -0.29582450710E-03  0.74498189625E-03 -0.82735362368E-03  0.11519653568E-02  0.00000000000E+00 0. -1.
       22    1    1    2    0    0  0.21395900796E-03  0.12921606500E-03  0.34831578819E-01  0.34832475627E-01  0.00000000000E+00 0.  1.
</event>
<event>
 5   0  0.4146200E+04  0.9118800E+02  0.7546771E-02  0.1180000E+00
      -11   -1    0    0    0    0  0.00000000000E+00  0.00000000000E+00  0.34996269501E-01  0.35000000000E-01  0.51099999109E-03 0. -1.
       11   -1    0    0    0    0 -0.00000000000E+00 -0.00000000000E+00 -0.34996269501E-01  0.35000000000E-01  0.51099999109E-03 0.  1.
       22    1    1    2    0    0  0.44370264824E-03  0.21530778564E-03 -0.89864047710E-03  0.10250776506E-02  0.00000000000E+00 0.  1.
       22    1    1    2    0    0 -0.45466644191E-02  0.13085900444E-01  0.32016815125E-01  0.34885375138E-01  0.00000000000E+00 0. -1.
       22    1    1    2    0    0  0.41029617708E-02 -0.13301208230E-01 -0.31118174648E-01  0.34089547211E-01  0.00000000000E+00 0.  1.
</event>
<event>
 5   0  0.4146200E+04  0.9118800E+02  0.7546771E-02  0.1180000E+00
      -11   -1    0    0    0    0  0.00000000000E+00  0.00000000000E+00  0.34996269501E-01  0.35000000000E-01  0.51099999109E-03 0.  1.
       11   -1    0    0    0    0 -0.00000000000E+00 -0.00000000000E+00 -0.34996269501E-01  0.35000000000E-01  0.51099999109E-03 0. -1.
       22    1    1    2    0    0  0.51470823836E-04 -0.10715478733E-03 -0.43491165154E-02  0.43507408402E-02  0.00000000000E+00 0. -1.
       22    1    1    2    0    0 -0.11903571345E-01 -0.12472501736E-01 -0.25721588682E-01  0.30965439358E-01  0.00000000000E+00 0. -1.
       22    1    1    2    0    0  0.11852100521E-01  0.12579656523E-01  0.30070705197E-01  0.34683819802E-01  0.00000000000E+00 0.  1.
</event>
<event>
 5   0  0.4146200E+04  0.9118800E+02  0.7546771E-02  0.1180000E+00
      -11   -1    0    0    0    0  0.00000000000E+00  0.00000000000E+00  0.34996269501E-01  0.35000000000E-01  0.51099999109E-03 0.  1.
       11   -1    0    0    0    0 -0.00000000000E+00 -0.00000000000E+00 -0.34996269501E-01  0.35000000000E-01  0.51099999109E-03 0. -1.
       22    1    1    2    0    0 -0.10847026382E-01 -0.60490889623E-02  0.25862620936E-01  0.28690148488E-01  0.00000000000E+00 0.  1.
       22    1    1    2    0    0  0.80356559797E-04  0.39261622462E-03  0.66163306422E-02  0.66284565205E-02  0.00000000000E+00 0.  1.
       22    1    1    2    0    0  0.10766669822E-01  0.56564727377E-02 -0.32478951579E-01  0.34681394991E-01  0.00000000000E+00 0. -1.
</event>
<event>
 5   0  0.4146200E+04  0.9118800E+02  0.7546771E-02  0.1180000E+00
      -11   -1    0    0    0    0  0.00000000000E+00  0.00000000000E+00  0.34996269501E-01  0.35000000000E-01  0.51099999109E-03 0.  1.
       11   -1    0    0    0    0 -0.00000000000E+00 -0.00000000000E+00 -0.34996269501E-01  0.35000000000E-01  0.51099999109E-03 0. -1.
       22    1    1    2    0    0  0.10988676128E-02 -0.44815368515E-02  0.34266399215E-01  0.34575682174E-01  0.00000000000E+00 0.  1.
       22    1    1    2    0    0  0.77532085329E-04  0.48824538557E-02 -0.10024285728E-01  0.11150366417E-01  0.00000000000E+00 0. -1.
       22    1    1    2    0    0 -0.11763996982E-02 -0.40091700413E-03 -0.24242113487E-01  0.24273951409E-01  0.00000000000E+00 0. -1.
</event>
<event>
 5   0  0.4146200E+04  0.9118800E+02  0.7546771E-02  0.1180000E+00
      -11   -1    0    0    0    0  0.00000000000E+00  0.00000000000E+00  0.34996269501E-01  0.35000000000E-01  0.51099999109E-03 0.  1.
       11   -1    0    0    0    0 -0.00000000000E+00 -0.00000000000E+00 -0.34996269501E-01  0.35000000000E-01  0.51099999109E-03 0. -1.
       22    1    1    2    0    0  0.12727235664E-02  0.43807057139E-02 -0.46088394505E-02  0.64847366106E-02  0.00000000000E+00 0.  1.
       22    1    1    2    0    0 -0.92766105453E-03 -0.49740013321E-02 -0.29232402319E-01  0.29667062369E-01  0.00000000000E+00 0. -1.
       22    1    1    2    0    0 -0.34506251185E-03  0.59329561814E-03  0.33841241769E-01  0.33848201020E-01  0.00000000000E+00 0.  1.
</event>
<event>
 5   0  0.4146200E+04  0.9118800E+02  0.7546771E-02  0.1180000E+00
      -11   -1    0    0    0    0  0.00000000000E+00  0.00000000000E+00  0.34996269501E-01  0.35000000000E-01  0.51099999109E-03 0. -1.
       11   -1    0    0    0    0 -0.00000000000E+00 -0.00000000000E+00 -0.34996269501E-01  0.35000000000E-01  0.51099999109E-03 0.  1.
       22    1    1    2    0    0  0.36463094281E-03 -0.16318834546E-02  0.34221947641E-01  0.34262774255E-01  0.00000000000E+00 0. -1.
       22    1    1    2    0    0 -0.47626067908E-02 -0.11686165769E-02 -0.19913135369E-01  0.20508072761E-01  0.00000000000E+00 0.  1.
       22    1    1    2    0    0  0.43979758480E-02  0.28005000315E-02 -0.14308812272E-01  0.15229152984E-01  0.00000000000E+00 0. -1.
</event>
<event>
 5   0  0.4146200E+04  0.9118800E+02  0.7546771E-02  0.1180000E+00
      -11   -1    0    0    0    0  0.00000000000E+00  0.00000000000E+00  0.34996269501E-01  0.35000000000E-01  0.51099999109E-03 0.  1.
       11   -1    0    0    0    0 -0.00000000000E+00 -0.00000000000E+00 -0.34996269501E-01  0.35000000000E-01  0.51099999109E-03 0.  1.
       22    1    1    2    0    0 -0.69588461905E-03 -0.92344010376E-03 -0.18937822078E-02  0.22188754086E-02  0.00000000000E+00 0. -1.
       22    1    1    2    0    0  0.22209223658E-03  0.56649006390E-03 -0.32938335913E-01  0.32943955571E-01  0.00000000000E+00 0.  1.
       22    1    1    2    0    0  0.47379238247E-03  0.35695003986E-03  0.34832118121E-01  0.34837169020E-01  0.00000000000E+00 0.  1.
</event>
<event>
 5   0  0.4146200E+04  0.9118800E+02  0.7546771E-02  0.1180000E+00
      -11   -1    0    0    0    0  0.00000000000E+00  0.00000000000E+00  0.34996269501E-01  0.35000000000E-01  0.51099999109E-03 0. -1.
       11   -1    0    0    0    0 -0.00000000000E+00 -0.00000000000E+00 -0.34996269501E-01  0.35000000000E-01  0.51099999109E-03 0.  1.
       22    1    1    2    0    0  0.82620410566E-03  0.32014779352E-03 -0.12460796785E-01  0.12492260178E-01  0.00000000000E+00 0. -1.
       22    1    1    2    0    0  0.11222521569E-01 -0.69973075400E-02  0.31409959947E-01  0.34080682021E-01  0.00000000000E+00 0. -1.
       22    1    1    2    0    0 -0.12048725674E-01  0.66771597465E-02 -0.18949163162E-01  0.23427057801E-01  0.00000000000E+00 0.  1.
</event>
<event>
 5   0  0.4146200E+04  0.9118800E+02  0.7546771E-02  0.1180000E+00
      -11   -1    0    0    0    0  0.00000000000E+00  0.00000000000E+00  0.34996269501E-01  0.35000000000E-01  0.51099999109E-03 0. -1.
       11   -1    0    0    0    0 -0.00000000000E+00 -0.00000000000E+00 -0.34996269501E-01  0.35000000000E-01  0.51099999109E-03 0.  1.
       22    1    1    2    0    0  0.10673907084E-03  0.64901904223E-04 -0.36985032514E-03  0.39037770098E-03  0.00000000000E+00 0.  1.
       22    1    1    2    0    0  0.20337387598E-01  0.62035114618E-02 -0.27323258218E-01  0.34621573165E-01  0.00000000000E+00 0.  1.
       22    1    1    2    0    0 -0.20444126669E-01 -0.62684133660E-02  0.27693108543E-01  0.34988049134E-01  0.00000000000E+00 0. -1.
</event>
<event>
 5   0  0.4146200E+04  0.9118800E+02  0.7546771E-02  0.1180000E+00
      -11   -1    0    0    0    0  0.00000000000E+00  0.00000000000E+00  0.34996269501E-01  0.35000000000E-01  0.51099999109E-03 0.  1.
       11   -1    0    0    0    0 -0.00000000000E+00 -0.00000000000E+00 -0.34996269501E-01  0.35000000000E-01  0.51099999109E-03 0. -1.
       22    1    1    2    0    0  0.21755105636E-03 -0.12062729980E-02 -0.30681966268E-01  0.30706440320E-01  0.00000000000E+00 0. -1.
       22    1    1    2    0    0  0.15130254648E-02  0.29820954180E-02 -0.36049533062E-02  0.49170954311E-02  0.00000000000E+00 0. -1.
       22    1    1    2    0    0 -0.17305765212E-02 -0.17758224200E-02  0.34286919575E-01  0.34376464249E-01  0.00000000000E+00 0.  1.
</event>
<event>
 5   0  0.4146200E+04  0.9118800E+02  0.7546771E-02  0.1180000E+00
      -11   -1    0    0    0    0  0.00000000000E+00  0.00000000000E+00  0.34996269501E-01  0.35000000000E-01  0.51099999109E-03 0.  1.
       11   -1    0    0    0    0 -0.00000000000E+00 -0.00000000000E+00 -0.34996269501E-01  0.35000000000E-01  0.51099999109E-03 0. -1.
       22    1    1    2    0    0  0.90851285663E-02  0.15585331755E-01  0.22757285841E-01  0.29040251132E-01  0.00000000000E+00 0.  1.
       22    1    1    2    0    0 -0.37381751576E-02 -0.11675578073E-01 -0.29231013847E-01  0.31697716753E-01  0.00000000000E+00 0. -1.
       22    1    1    2    0    0 -0.53469534087E-02 -0.39097536819E-02  0.64737280055E-02  0.92620321149E-02  0.00000000000E+00 0. -1.
</event>
<event>
 5   0  0.4146200E+04  0.9118800E+02  0.7546771E-02  0.1180000E+00
      -11   -1    0    0    0    0  0.00000000000E+00  0.00000000000E+00  0.34996269501E-01  0.35000000000E-01  0.51099999109E-03 0.  1.
       11   -1    0    0    0    0 -0.00000000000E+00 -0.00000000000E+00 -0.34996269501E-01  0.35000000000E-01  0.51099999109E-03 0. -1.
       22    1    1    2    0    0 -0.59891988784E-02 -0.29470842962E-01  0.16746200083E-01  0.34421451237E-01  0.00000000000E+00 0.  1.
       22    1    1    2    0    0  0.10725261120E-02  0.15653128167E-02 -0.41626067020E-02  0.45746924520E-02  0.00000000000E+00 0.  1.
       22    1    1    2    0    0  0.49166727664E-02  0.27905530145E-01 -0.12583593381E-01  0.31003856311E-01  0.00000000000E+00 0. -1.
</event>
<event>
 5   0  0.4146200E+04  0.9118800E+02  0.7546771E-02  0.1180000E+00
      -11   -1    0    0    0    0  0.00000000000E+00  0.00000000000E+00  0.34996269501E-01  0.35000000000E-01  0.51099999109E-03 0.  1.
       11   -1    0    0    0    0 -0.00000000000E+00 -0.00000000000E+00 -0.34996269501E-01  0.35000000000E-01  0.51099999109E-03 0. -1.
       22    1    1    2    0    0 -0.87154913939E-02 -0.65002210004E-02 -0.55613025156E-02  0.12212319557E-01  0.00000000000E+00 0. -1.
       22    1    1    2    0    0  0.94603830304E-03 -0.96489073492E-02 -0.22495557909E-01  0.24495847140E-01  0.00000000000E+00 0. -1.
       22    1    1    2    0    0  0.77694530909E-02  0.16149128350E-01  0.28056860424E-01  0.33291833303E-01  0.00000000000E+00 0.  1.
</event>
<event>
 5   0  0.4146200E+04  0.9118800E+02  0.7546771E-02  0.1180000E+00
      -11   -1    0    0    0    0  0.00000000000E+00  0.00000000000E+00  0.34996269501E-01  0.35000000000E-01  0.51099999109E-03 0. -1.
       11   -1    0    0    0    0 -0.00000000000E+00 -0.00000000000E+00 -0.34996269501E-01  0.35000000000E-01  0.51099999109E-03 0.  1.
       22    1    1    2    0    0 -0.92276724910E-02  0.29228196653E-02  0.30115967121E-01  0.31633278205E-01  0.00000000000E+00 0. -1.
       22    1    1    2    0    0  0.17875367787E-02  0.52711820845E-02  0.71273650320E-03  0.56114741046E-02  0.00000000000E+00 0. -1.
       22    1    1    2    0    0  0.74401357122E-02 -0.81940017498E-02 -0.30828703624E-01  0.32755247690E-01  0.00000000000E+00 0.  1.
</event>
<event>
 5   0  0.4146200E+04  0.9118800E+02  0.7546771E-02  0.1180000E+00
      -11   -1    0    0    0    0  0.00000000000E+00  0.00000000000E+00  0.34996269501E-01  0.35000000000E-01  0.51099999109E-03 0. -1.
       11   -1    0    0    0    0 -0.00000000000E+00 -0.00000000000E+00 -0.34996269501E-01  0.35000000000E-01  0.51099999109E-03 0.  1.
       22    1    1    2    0    0 -0.73440790624E-02  0.11516672583E-02  0.34182163703E-01  0.34981168508E-01  0.00000000000E+00 0. -1.
       22    1    1    2    0    0  0.17789129961E-03 -0.10968804106E-03 -0.26640805726E-03  0.33860010898E-03  0.00000000000E+00 0.  1.
       22    1    1    2    0    0  0.71661877628E-02 -0.10419792172E-02 -0.33915755646E-01  0.34680231383E-01  0.00000000000E+00 0.  1.
</event>
<event>
 5   0  0.4146200E+04  0.9118800E+02  0.7546771E-02  0.1180000E+00
      -11   -1    0    0    0    0  0.00000000000E+00  0.00000000000E+00  0.34996269501E-01  0.35000000000E-01  0.51099999109E-03 0.  1.
       11   -1    0    0    0    0 -0.00000000000E+00 -0.00000000000E+00 -0.34996269501E-01  0.35000000000E-01  0.51099999109E-03 0. -1.
       22    1    1    2    0    0  0.57369350943E-03 -0.12474278955E-02 -0.25665552053E-02  0.29107398062E-02  0.00000000000E+00 0.  1.
       22    1    1    2    0    0 -0.19705447336E-02 -0.81698674557E-02  0.33596493148E-01  0.34631692605E-01  0.00000000000E+00 0.  1.
       22    1    1    2    0    0  0.13968512242E-02  0.94172953512E-02 -0.31029937943E-01  0.32457567589E-01  0.00000000000E+00 0. -1.
</event>
<event>
 5   0  0.4146200E+04  0.9118800E+02  0.7546771E-02  0.1180000E+00
      -11   -1    0    0    0    0  0.00000000000E+00  0.00000000000E+00  0.34996269501E-01  0.35000000000E-01  0.51099999109E-03 0. -1.
       11   -1    0    0    0    0 -0.00000000000E+00 -0.00000000000E+00 -0.34996269501E-01  0.35000000000E-01  0.51099999109E-03 0.  1.
       22    1    1    2    0    0  0.37206716115E-02 -0.36296662387E-02 -0.11380251449E-01  0.12511114949E-01  0.00000000000E+00 0.  1.
       22    1    1    2    0    0 -0.47371882668E-03  0.13030807480E-02 -0.22917453464E-01  0.22959357618E-01  0.00000000000E+00 0.  1.
       22    1    1    2    0    0 -0.32469527848E-02  0.23265854908E-02  0.34297704913E-01  0.34529527432E-01  0.00000000000E+00 0. -1.
</event>
<event>
 5   0  0.4146200E+04  0.9118800E+02  0.7546771E-02  0.1180000E+00
      -11   -1    0    0    0    0  0.00000000000E+00  0.00000000000E+00  0.34996269501E-01  0.35000000000E-01  0.51099999109E-03 0. -1.
       11   -1    0    0    0    0 -0.00000000000E+00 -0.00000000000E+00 -0.34996269501E-01  0.35000000000E-01  0.51099999109E-03 0.  1.
       22    1    1    2    0    0 -0.76795335363E-02  0.13346047715E-01  0.30760498273E-01  0.34399134857E-01  0.00000000000E+00 0. -1.
       22    1    1    2    0    0  0.84121007289E-02 -0.14138597588E-01 -0.30186166646E-01  0.34378307655E-01  0.00000000000E+00 0.  1.
       22    1    1    2    0    0 -0.73256719252E-03  0.79254987367E-03 -0.57433162615E-03  0.12225574876E-02  0.00000000000E+00 0.  1.
</event>
<event>
 5   0  0.4146200E+04  0.9118800E+02  0.7546771E-02  0.1180000E+00
      -11   -1    0    0    0    0  0.00000000000E+00  0.00000000000E+00  0.34996269501E-01  0.35000000000E-01  0.51099999109E-03 0. -1.
       11   -1    0    0    0    0 -0.00000000000E+00 -0.00000000000E+00 -0.34996269501E-01  0.35000000000E-01  0.51099999109E-03 0.  1.
       22    1    1    2    0    0  0.24022427274E-02 -0.25064763014E-02 -0.30305389874E-01  0.30503603869E-01  0.00000000000E+00 0.  1.
       22    1    1    2    0    0 -0.38215685173E-02  0.36885598117E-02  0.34503498722E-01  0.34909902370E-01  0.00000000000E+00 0. -1.
       22    1    1    2    0    0  0.14193257900E-02 -0.11820835103E-02 -0.41981088482E-02  0.45864937615E-02  0.00000000000E+00 0.  1.
</event>
<event>
 5   0  0.4146200E+04  0.9118800E+02  0.7546771E-02  0.1180000E+00
      -11   -1    0    0    0    0  0.00000000000E+00  0.00000000000E+00  0.34996269501E-01  0.35000000000E-01  0.51099999109E-03 0.  1.
       11   -1    0    0    0    0 -0.00000000000E+00 -0.00000000000E+00 -0.34996269501E-01  0.35000000000E-01  0.51099999109E-03 0. -1.
       22    1    1    2    0    0 -0.96205019191E-03 -0.13408848115E-02  0.31331392314E-01  0.31374825210E-01  0.00000000000E+00 0.  1.
       22    1    1    2    0    0  0.10926843805E-01 -0.35490091656E-02 -0.15928682824E-01  0.19639610946E-01  0.00000000000E+00 0.  1.
       22    1    1    2    0    0 -0.99647936132E-02  0.48898939771E-02 -0.15402709489E-01  0.18985563844E-01  0.00000000000E+00 0. -1.
</event>
<event>
 5   0  0.4146200E+04  0.9118800E+02  0.7546771E-02  0.1180000E+00
      -11   -1    0    0    0    0  0.00000000000E+00  0.00000000000E+00  0.34996269501E-01  0.35000000000E-01  0.51099999109E-03 0. -1.
       11   -1    0    0    0    0 -0.00000000000E+00 -0.00000000000E+00 -0.34996269501E-01  0.35000000000E-01  0.51099999109E-03 0.  1.
       22    1    1    2    0    0 -0.15933722346E-01  0.89830238013E-02 -0.29501804793E-01  0.34712169487E-01  0.00000000000E+00 0.  1.
       22    1    1    2    0    0  0.15864236666E-01 -0.85216787237E-02  0.25268304369E-01  0.31028699924E-01  0.00000000000E+00 0. -1.
       22    1    1    2    0    0  0.69485680740E-04 -0.46134507765E-03  0.42335004239E-02  0.42591305896E-02  0.00000000000E+00 0.  1.
</event>
<event>
 5   0  0.4146200E+04  0.9118800E+02  0.7546771E-02  0.1180000E+00
      -11   -1    0    0    0    0  0.00000000000E+00  0.00000000000E+00  0.34996269501E-01  0.35000000000E-01  0.51099999109E-03 0.  1.
       11   -1    0    0    0    0 -0.00000000000E+00 -0.00000000000E+00 -0.34996269501E-01  0.35000000000E-01  0.51099999109E-03 0. -1.
       22    1    1    2    0    0 -0.27880345077E-03 -0.63441098934E-03 -0.10751603242E-02  0.12791318894E-02  0.00000000000E+00 0.  1.
       22    1    1    2    0    0  0.25688363490E-01  0.47774337163E-03 -0.22430218679E-01  0.34106230626E-01  0.00000000000E+00 0. -1.
       22    1    1    2    0    0 -0.25409560039E-01  0.15666761771E-03  0.23505379003E-01  0.34614637485E-01  0.00000000000E+00 0.  1.
</event>
<event>
 5   0  0.4146200E+04  0.9118800E+02  0.7546771E-02  0.1180000E+00
      -11   -1    0    0    0    0  0.00000000000E+00  0.00000000000E+00  0.34996269501E-01  0.35000000000E-01  0.51099999109E-03 0. -1.
       11   -1    0    0    0    0 -0.00000000000E+00 -0.00000000000E+00 -0.34996269501E-01  0.35000000000E-01  0.51099999109E-03 0.  1.
       22    1    1    2    0    0 -0.38747577894E-03 -0.18078731508E-02  0.34757478187E-01  0.34806620530E-01  0.00000000000E+00 0. -1.
       22    1    1    2    0    0  0.13604926895E-02 -0.93108297830E-04 -0.29318258365E-01  0.29349955418E-01  0.00000000000E+00 0.  1.
       22    1    1    2    0    0 -0.97301691058E-03  0.19009814486E-02 -0.54392198219E-02  0.58434240517E-02  0.00000000000E+00 0.  1.
</event>
<event>
 5   0  0.4146200E+04  0.9118800E+02  0.7546771E-02  0.1180000E+00
      -11   -1    0    0    0    0  0.00000000000E+00  0.00000000000E+00  0.34996269501E-01  0.35000000000E-01  0.51099999109E-03 0.  1.
       11   -1    0    0    0    0 -0.00000000000E+00 -0.00000000000E+00 -0.34996269501E-01  0.35000000000E-01  0.51099999109E-03 0. -1.
       22    1    1    2    0    0 -0.13421078738E-01 -0.71295032390E-02  0.31508275664E-01  0.34981803930E-01  0.00000000000E+00 0.  1.
       22    1    1    2    0    0  0.53898785464E-04 -0.61670368721E-04 -0.34916345059E-03  0.35864108616E-03  0.00000000000E+00 0.  1.
       22    1    1    2    0    0  0.13367179952E-01  0.71911736077E-02 -0.31159112213E-01  0.34659554983E-01  0.00000000000E+00 0. -1.
</event>
<event>
 5   0  0.4146200E+04  0.9118800E+02  0.7546771E-02  0.1180000E+00
      -11   -1    0    0    0    0  0.00000000000E+00  0.00000000000E+00  0.34996269501E-01  0.35000000000E-01  0.51099999109E-03 0.  1.
       11   -1    0    0    0    0 -0.00000000000E+00 -0.00000000000E+00 -0.34996269501E-01  0.35000000000E-01  0.51099999109E-03 0. -1.
       22    1    1    2    0    0  0.35315451444E-02  0.13014892664E-01 -0.32243083999E-01  0.34949616707E-01  0.00000000000E+00 0. -1.
       22    1    1    2    0    0 -0.36481257044E-02 -0.12918718327E-01  0.30785096519E-01  0.33584583845E-01  0.00000000000E+00 0.  1.
       22    1    1    2    0    0  0.11658055999E-03 -0.96174337420E-04  0.14579874797E-02  0.14657994478E-02  0.00000000000E+00 0. -1.
</event>
<event>
 5   0  0.4146200E+04  0.9118800E+02  0.7546771E-02  0.1180000E+00
      -11   -1    0    0    0    0  0.00000000000E+00  0.00000000000E+00  0.34996269501E-01  0.35000000000E-01  0.51099999109E-03 0.  1.
       11   -1    0    0    0    0 -0.00000000000E+00 -0.00000000000E+00 -0.34996269501E-01  0.35000000000E-01  0.51099999109E-03 0. -1.
       22    1    1    2    0    0 -0.46873539311E-02 -0.47972722521E-02  0.26867621557E-01  0.27692132385E-01  0.00000000000E+00 0.  1.
       22    1    1    2    0    0  0.15102155107E-01  0.11529659438E-01 -0.10298436379E-01  0.21611708111E-01  0.00000000000E+00 0. -1.
       22    1    1    2    0    0 -0.10414801176E-01 -0.67323871860E-02 -0.16569185177E-01  0.20696159504E-01  0.00000000000E+00 0. -1.
</event>
<event>
 5   0  0.4146200E+04  0.9118800E+02  0.7546771E-02  0.1180000E+00
      -11   -1    0    0    0    0  0.00000000000E+00  0.00000000000E+00  0.34996269501E-01  0.35000000000E-01  0.51099999109E-03 0.  1.
       11   -1    0    0    0    0 -0.00000000000E+00 -0.00000000000E+00 -0.34996269501E-01  0.35000000000E-01  0.51099999109E-03 0. -1.
       22    1    1    2    0    0 -0.21810662064E-01  0.26963714281E-02  0.26867339193E-01  0.34710651303E-01  0.00000000000E+00 0.  1.
       22    1    1    2    0    0  0.21816201759E-01 -0.26842200293E-02 -0.27191626893E-01  0.34964786135E-01  0.00000000000E+00 0. -1.
       22    1    1    2    0    0 -0.55396951069E-05 -0.12151398859E-04  0.32428769998E-03  0.32456256265E-03  0.00000000000E+00 0. -1.
</event>
<event>
 5   0  0.4146200E+04  0.9118800E+02  0.7546771E-02  0.1180000E+00
      -11   -1    0    0    0    0  0.00000000000E+00  0.00000000000E+00  0.34996269501E-01  0.35000000000E-01  0.51099999109E-03 0. -1.
       11   -1    0    0    0    0 -0.00000000000E+00 -0.00000000000E+00 -0.34996269501E-01  0.35000000000E-01  0.51099999109E-03 0.  1.
       22    1    1    2    0    0  0.13695606542E-01 -0.93457724859E-02 -0.28105921255E-01  0.32632130049E-01  0.00000000000E+00 0.  1.
       22    1    1    2    0    0 -0.23628069531E-02 -0.25268587279E-03  0.20583219887E-01  0.20719933585E-01  0.00000000000E+00 0. -1.
       22    1    1    2    0    0 -0.11332799589E-01  0.95984583587E-02  0.75227013678E-02  0.16647936366E-01  0.00000000000E+00 0. -1.
</event>
<event>
 5   0  0.4146200E+04  0.9118800E+02  0.7546771E-02  0.1180000E+00
      -11   -1    0    0    0    0  0.00000000000E+00  0.00000000000E+00  0.34996269501E-01  0.35000000000E-01  0.51099999109E-03 0. -1.
       11   -1    0    0    0    0 -0.00000000000E+00 -0.00000000000E+00 -0.34996269501E-01  0.35000000000E-01  0.51099999109E-03 0. -1.
       22    1    1    2    0    0  0.27139461589E-03  0.10630203779E-02  0.33644660546E-01  0.33662543733E-01  0.00000000000E+00 0. -1.
       22    1    1    2    0    0 -0.19361776340E-02 -0.64878249760E-02 -0.25683649099E-01  0.26561070908E-01  0.00000000000E+00 0.  1.
       22    1    1    2    0    0  0.16647830181E-02  0.54248045981E-02 -0.79610114464E-02  0.97763853583E-02  0.00000000000E+00 0. -1.
</event>
<event>
 5   0  0.4146200E+04  0.9118800E+02  0.7546771E-02  0.1180000E+00
      -11   -1    0    0    0    0  0.00000000000E+00  0.00000000000E+00  0.34996269501E-01  0.35000000000E-01  0.51099999109E-03 0. -1.
       11   -1    0    0    0    0 -0.00000000000E+00 -0.00000000000E+00 -0.34996269501E-01  0.35000000000E-01  0.51099999109E-03 0.  1.
       22    1    1    2    0    0 -0.81278376060E-02 -0.34452462496E-02  0.32524007825E-01  0.33700779678E-01  0.00000000000E+00 0. -1.
       22    1    1    2    0    0 -0.33830474569E-02  0.14216686303E-02 -0.13339214234E-01  0.13834767369E-01  0.00000000000E+00 0.  1.
       22    1    1    2    0    0  0.11510885063E-01  0.20235776193E-02 -0.19184793591E-01  0.22464452953E-01  0.00000000000E+00 0.  1.
</event>
<event>
 5   0  0.4146200E+04  0.9118800E+02  0.7546771E-02  0.1180000E+00
      -11   -1    0    0    0    0  0.00000000000E+00  0.00000000000E+00  0.34996269501E-01  0.35000000000E-01  0.51099999109E-03 0. -1.
       11   -1    0    0    0    0 -0.00000000000E+00 -0.00000000000E+00 -0.34996269501E-01  0.35000000000E-01  0.51099999109E-03 0.  1.
       22    1    1    2    0    0 -0.13535142574E-03  0.49622984391E-03  0.63827864733E-03  0.81973391907E-03  0.00000000000E+00 0.  1.
       22    1    1    2    0    0  0.13715455058E-02  0.13574045544E-01 -0.31998713360E-01  0.34785823351E-01  0.00000000000E+00 0.  1.
       22    1    1    2    0    0 -0.12361940800E-02 -0.14070275388E-01  0.31360434713E-01  0.34394442730E-01  0.00000000000E+00 0. -1.
</event>
<event>
 5   0  0.4146200E+04  0.9118800E+02  0.7546771E-02  0.1180000E+00
      -11   -1    0    0    0    0  0.00000000000E+00  0.00000000000E+00  0.34996269501E-01  0.35000000000E-01  0.51099999109E-03 0. -1.
       11   -1    0    0    0    0 -0.00000000000E+00 -0.00000000000E+00 -0.34996269501E-01  0.35000000000E-01  0.51099999109E-03 0.  1.
       22    1    1    2    0    0 -0.21651035777E-02  0.13532630044E-01  0.32183006984E-01  0.34979503826E-01  0.00000000000E+00 0. -1.
       22    1    1    2    0    0  0.19911925188E-02 -0.13270456914E-01 -0.31854806947E-01  0.34565858878E-01  0.00000000000E+00 0.  1.
       22    1    1    2    0    0  0.17391105885E-03 -0.26217312978E-03 -0.32820003740E-03  0.45463729600E-03  0.00000000000E+00 0.  1.
</event>
<event>
 5   0  0.4146200E+04  0.9118800E+02  0.7546771E-02  0.1180000E+00
      -11   -1    0    0    0    0  0.00000000000E+00  0.00000000000E+00  0.34996269501E-01  0.35000000000E-01  0.51099999109E-03 0.  1.
       11   -1    0    0    0    0 -0.00000000000E+00 -0.00000000000E+00 -0.34996269501E-01  0.35000000000E-01  0.51099999109E-03 0. -1.
       22    1    1    2    0    0  0.15386628255E-01  0.21577900240E-02  0.30903415526E-01  0.34589383892E-01  0.00000000000E+00 0.  1.
       22    1    1    2    0    0  0.18974871175E-03  0.19555390379E-03 -0.55835720743E-02  0.55902167232E-02  0.00000000000E+00 0. -1.
       22    1    1    2    0    0 -0.15576376967E-01 -0.23533439278E-02 -0.25319843452E-01  0.29820399385E-01  0.00000000000E+00 0. -1.
</event>
<event>
 5   0  0.4146200E+04  0.9118800E+02  0.7546771E-02  0.1180000E+00
      -11   -1    0    0    0    0  0.00000000000E+00  0.00000000000E+00  0.34996269501E-01  0.35000000000E-01  0.51099999109E-03 0. -1.
       11   -1    0    0    0    0 -0.00000000000E+00 -0.00000000000E+00 -0.34996269501E-01  0.35000000000E-01  0.51099999109E-03 0. -1.
       22    1    1    2    0    0  0.28748043911E-02  0.26461212548E-02 -0.97445319914E-02  0.10498683809E-01  0.00000000000E+00 0.  1.
       22    1    1    2    0    0 -0.27146724624E-02 -0.23072757188E-02  0.34529852199E-01  0.34713162643E-01  0.00000000000E+00 0. -1.
       22    1    1    2    0    0 -0.16013192866E-03 -0.33884553600E-03 -0.24785320208E-01  0.24788153548E-01  0.00000000000E+00 0. -1.
</event>
<event>
 5   0  0.4146200E+04  0.9118800E+02  0.7546771E-02  0.1180000E+00
      -11   -1    0    0    0    0  0.00000000000E+00  0.00000000000E+00  0.34996269501E-01  0.35000000000E-01  0.51099999109E-03 0. -1.
       11   -1    0    0    0    0 -0.00000000000E+00 -0.00000000000E+00 -0.34996269501E-01  0.35000000000E-01  0.51099999109E-03 0. -1.
       22    1    1    2    0    0  0.31873241776E-03 -0.13577153978E-01 -0.26454933417E-01  0.29737252775E-01  0.00000000000E+00 0. -1.
       22    1    1    2    0    0  0.00000000000E+00 -0.00000000000E+00  0.26680467432E-01  0.26679979978E-01  0.00000000000E+00 0. -1.
       22    1    1    2    0    0 -0.31873241776E-03  0.13577153978E-01 -0.22553401462E-03  0.13582767247E-01  0.00000000000E+00 0.  1.
</event>
<event>
 5   0  0.4146200E+04  0.9118800E+02  0.7546771E-02  0.1180000E+00
      -11   -1    0    0    0    0  0.00000000000E+00  0.00000000000E+00  0.34996269501E-01  0.35000000000E-01  0.51099999109E-03 0. -1.
       11   -1    0    0    0    0 -0.00000000000E+00 -0.00000000000E+00 -0.34996269501E-01  0.35000000000E-01  0.51099999109E-03 0.  1.
       22    1    1    2    0    0 -0.14344225814E-03 -0.21339831596E-04 -0.31265436752E-03  0.34465029140E-03  0.00000000000E+00 0.  1.
       22    1    1    2    0    0 -0.34378001622E-02 -0.22062344822E-02 -0.34423037223E-01  0.34664555849E-01  0.00000000000E+00 0.  1.
       22    1    1    2    0    0  0.35812424203E-02  0.22275743138E-02  0.34735691591E-01  0.34990793859E-01  0.00000000000E+00 0. -1.
</event>
<event>
 5   0  0.4146200E+04  0.9118800E+02  0.7546771E-02  0.1180000E+00
      -11   -1    0    0    0    0  0.00000000000E+00  0.00000000000E+00  0.34996269501E-01  0.35000000000E-01  0.51099999109E-03 0. -1.
       11   -1    0    0    0    0 -0.00000000000E+00 -0.00000000000E+00 -0.34996269501E-01  0.35000000000E-01  0.51099999109E-03 0.  1.
       22    1    1    2    0    0  0.26509586883E-01 -0.52795493763E-02 -0.89066688538E-02  0.28459806542E-01  0.00000000000E+00 0.  1.
       22    1    1    2    0    0 -0.27222518799E-01  0.59208160190E-05  0.16823156351E-01  0.32001314886E-01  0.00000000000E+00 0. -1.
       22    1    1    2    0    0  0.71293191643E-03  0.52736285603E-02 -0.79164874975E-02  0.95388785718E-02  0.00000000000E+00 0. -1.
</event>
<event>
 5   0  0.4146200E+04  0.9118800E+02  0.7546771E-02  0.1180000E+00
      -11   -1    0    0    0    0  0.00000000000E+00  0.00000000000E+00  0.34996269501E-01  0.35000000000E-01  0.51099999109E-03 0.  1.
       11   -1    0    0    0    0 -0.00000000000E+00 -0.00000000000E+00 -0.34996269501E-01  0.35000000000E-01  0.51099999109E-03 0. -1.
       22    1    1    2    0    0 -0.36981183500E-04 -0.50931729272E-05  0.32995818738E-03  0.33206317736E-03  0.00000000000E+00 0. -1.
       22    1    1    2    0    0  0.30529902497E-02 -0.15610308946E-01 -0.31155784574E-01  0.34981215063E-01  0.00000000000E+00 0. -1.
       22    1    1    2    0    0 -0.30160090662E-02  0.15615402119E-01  0.30825826387E-01  0.34686721760E-01  0.00000000000E+00 0.  1.
</event>
<event>
 5   0  0.4146200E+04  0.9118800E+02  0.7546771E-02  0.1180000E+00
      -11   -1    0    0    0    0  0.00000000000E+00  0.00000000000E+00  0.34996269501E-01  0.35000000000E-01  0.51099999109E-03 0. -1.
       11   -1    0    0    0    0 -0.00000000000E+00 -0.00000000000E+00 -0.34996269501E-01  0.35000000000E-01  0.51099999109E-03 0.  1.
       22    1    1    2    0    0  0.16388690839E-02  0.13203445885E-01  0.22183799087E-01  0.25867698333E-01  0.00000000000E+00 0. -1.
       22    1    1    2    0    0 -0.17382531899E-02 -0.13273935449E-01 -0.31806401802E-01  0.34508927571E-01  0.00000000000E+00 0.  1.
       22    1    1    2    0    0  0.99384105956E-04  0.70489564238E-04  0.96226027150E-02  0.96233740960E-02  0.00000000000E+00 0. -1.
</event>
<event>
 5   0  0.4146200E+04  0.9118800E+02  0.7546771E-02  0.1180000E+00
      -11   -1    0    0    0    0  0.00000000000E+00  0.00000000000E+00  0.34996269501E-01  0.35000000000E-01  0.51099999109E-03 0.  1.
       11   -1    0    0    0    0 -0.00000000000E+00 -0.00000000000E+00 -0.34996269501E-01  0.35000000000E-01  0.51099999109E-03 0. -1.
       22    1    1    2    0    0  0.91167582552E-02 -0.46712894272E-03 -0.24040191616E-01  0.25715059857E-01  0.00000000000E+00 0.  1.
       22    1    1    2    0    0  0.62776673626E-02 -0.64313109028E-02  0.25803312054E-01  0.27323648739E-01  0.00000000000E+00 0.  1.
       22    1    1    2    0    0 -0.15394425618E-01  0.68984398455E-02 -0.17631204387E-02  0.16961291404E-01  0.00000000000E+00 0. -1.
</event>
<event>
 5   0  0.4146200E+04  0.9118800E+02  0.7546771E-02  0.1180000E+00
      -11   -1    0    0    0    0  0.00000000000E+00  0.00000000000E+00  0.34996269501E-01  0.35000000000E-01  0.51099999109E-03 0. -1.
       11   -1    0    0    0    0 -0.00000000000E+00 -0.00000000000E+00 -0.34996269501E-01  0.35000000000E-01  0.51099999109E-03 0.  1.
       22    1    1    2    0    0  0.95702363062E-04 -0.14257931507E-01 -0.31831476907E-01  0.34878943389E-01  0.00000000000E+00 0.  1.
       22    1    1    2    0    0  0.94931529081E-04  0.14271727317E-01  0.29389459846E-01  0.32671571169E-01  0.00000000000E+00 0. -1.
       22    1    1    2    0    0 -0.19063389214E-03 -0.13795809862E-04  0.24420170613E-02  0.24494854424E-02  0.00000000000E+00 0.  1.
</event>
<event>
 5   0  0.4146200E+04  0.9118800E+02  0.7546771E-02  0.1180000E+00
      -11   -1    0    0    0    0  0.00000000000E+00  0.00000000000E+00  0.34996269501E-01  0.35000000000E-01  0.51099999109E-03 0. -1.
       11   -1    0    0    0    0 -0.00000000000E+00 -0.00000000000E+00 -0.34996269501E-01  0.35000000000E-01  0.51099999109E-03 0.  1.
       22    1    1    2    0    0 -0.14623856206E-01 -0.65934285875E-02 -0.31092945435E-01  0.34987165171E-01  0.00000000000E+00 0.  1.
       22    1    1    2    0    0  0.17084554856E-03 -0.38095015971E-04  0.56641628490E-03  0.59284638778E-03  0.00000000000E+00 0. -1.
       22    1    1    2    0    0  0.14453010658E-01  0.66315236035E-02  0.30526529150E-01  0.34419988441E-01  0.00000000000E+00 0. -1.
</event>
<event>
 5   0  0.4146200E+04  0.9118800E+02  0.7546771E-02  0.1180000E+00
      -11   -1    0    0    0    0  0.00000000000E+00  0.00000000000E+00  0.34996269501E-01  0.35000000000E-01  0.51099999109E-03 0.  1.
       11   -1    0    0    0    0 -0.00000000000E+00 -0.00000000000E+00 -0.34996269501E-01  0.35000000000E-01  0.51099999109E-03 0. -1.
       22    1    1    2    0    0 -0.18500842721E-03  0.64532574356E-03  0.37011340336E-02  0.37615245005E-02  0.00000000000E+00 0. -1.
       22    1    1    2    0    0 -0.18339227398E-01  0.12373548441E-01  0.22537734296E-01  0.31581346231E-01  0.00000000000E+00 0.  1.
       22    1    1    2    0    0  0.18524235825E-01 -0.13018874184E-01 -0.26238868329E-01  0.34657129269E-01  0.00000000000E+00 0. -1.
</event>
<event>
 5   0  0.4146200E+04  0.9118800E+02  0.7546771E-02  0.1180000E+00
      -11   -1    0    0    0    0  0.00000000000E+00  0.00000000000E+00  0.34996269501E-01  0.35000000000E-01  0.51099999109E-03 0. -1.
       11   -1    0    0    0    0 -0.00000000000E+00 -0.00000000000E+00 -0.34996269501E-01  0.35000000000E-01  0.51099999109E-03 0.  1.
       22    1    1    2    0    0  0.15288559836E-03  0.75379052156E-04 -0.40668544230E-03  0.44096378158E-03  0.00000000000E+00 0. -1.
       22    1    1    2    0    0 -0.10700807853E-02  0.98269428712E-04 -0.34561595884E-01  0.34578297237E-01  0.00000000000E+00 0.  1.
       22    1    1    2    0    0  0.91719518696E-03 -0.17364848087E-03  0.34968281326E-01  0.34980738982E-01  0.00000000000E+00 0. -1.
</event>
<event>
 5   0  0.4146200E+04  0.9118800E+02  0.7546771E-02  0.1180000E+00
      -11   -1    0    0    0    0  0.00000000000E+00  0.00000000000E+00  0.34996269501E-01  0.35000000000E-01  0.51099999109E-03 0. -1.
       11   -1    0    0    0    0 -0.00000000000E+00 -0.00000000000E+00 -0.34996269501E-01  0.35000000000E-01  0.51099999109E-03 0.  1.
       22    1    1    2    0    0  0.16626092892E-02  0.17320010207E-02  0.15742121048E-01  0.15924147459E-01  0.00000000000E+00 0. -1.
       22    1    1    2    0    0 -0.14467413734E-01  0.88244101910E-02  0.12679004537E-01  0.21164437895E-01  0.00000000000E+00 0. -1.
       22    1    1    2    0    0  0.12804804444E-01 -0.10556411212E-01 -0.28421125585E-01  0.32911414647E-01  0.00000000000E+00 0.  1.
</event>
<event>
 5   0  0.4146200E+04  0.9118800E+02  0.7546771E-02  0.1180000E+00
      -11   -1    0    0    0    0  0.00000000000E+00  0.00000000000E+00  0.34996269501E-01  0.35000000000E-01  0.51099999109E-03 0. -1.
       11   -1    0    0    0    0 -0.00000000000E+00 -0.00000000000E+00 -0.34996269501E-01  0.35000000000E-01  0.51099999109E-03 0. -1.
       22    1    1    2    0    0  0.20126151875E-03  0.14687438136E-02 -0.30782221233E-01  0.30817898349E-01  0.00000000000E+00 0. -1.
       22    1    1    2    0    0 -0.20126151875E-03 -0.14687438136E-02 -0.40694643939E-02  0.43310801242E-02  0.00000000000E+00 0.  1.
       22    1    1    2    0    0  0.00000000000E+00  0.00000000000E+00  0.34851685627E-01  0.34851021527E-01  0.00000000000E+00 0. -1.
</event>
<event>
 5   0  0.4146200E+04  0.9118800E+02  0.7546771E-02  0.1180000E+00
      -11   -1    0    0    0    0  0.00000000000E+00  0.00000000000E+00  0.34996269501E-01  0.35000000000E-01  0.51099999109E-03 0.  1.
       11   -1    0    0    0    0 -0.00000000000E+00 -0.00000000000E+00 -0.34996269501E-01  0.35000000000E-01  0.51099999109E-03 0. -1.
       22    1    1    2    0    0  0.13025522553E-01  0.63206099313E-02  0.31531269548E-01  0.34696329878E-01  0.00000000000E+00 0.  1.
       22    1    1    2    0    0 -0.12892454433E-01 -0.63185976458E-02 -0.31861824565E-01  0.34947330687E-01  0.00000000000E+00 0. -1.
       22    1    1    2    0    0 -0.13306812033E-03 -0.20122854556E-05  0.33055501738E-03  0.35633943573E-03  0.00000000000E+00 0.  1.
</event>
<event>
 5   0  0.4146200E+04  0.9118800E+02  0.7546771E-02  0.1180000E+00
      -11   -1    0    0    0    0  0.00000000000E+00  0.00000000000E+00  0.34996269501E-01  0.35000000000E-01  0.51099999109E-03 0.  1.
       11   -1    0    0    0    0 -0.00000000000E+00 -0.00000000000E+00 -0.34996269501E-01  0.35000000000E-01  0.51099999109E-03 0. -1.
       22    1    1    2    0    0  0.17914002802E-03  0.51494971600E-04  0.34822358075E-01  0.34822856930E-01  0.00000000000E+00 0.  1.
       22    1    1    2    0    0 -0.35857679562E-03  0.15693341759E-02 -0.30725788776E-01  0.30767929456E-01  0.00000000000E+00 0. -1.
       22    1    1    2    0    0  0.17943676760E-03 -0.16208291475E-02 -0.40965692983E-02  0.44092136141E-02  0.00000000000E+00 0.  1.
</event>
<event>
 5   0  0.4146200E+04  0.9118800E+02  0.7546771E-02  0.1180000E+00
      -11   -1    0    0    0    0  0.00000000000E+00  0.00000000000E+00  0.34996269501E-01  0.35000000000E-01  0.51099999109E-03 0. -1.
       11   -1    0    0    0    0 -0.00000000000E+00 -0.00000000000E+00 -0.34996269501E-01  0.35000000000E-01  0.51099999109E-03 0.  1.
       22    1    1    2    0    0  0.13676385344E-01 -0.65562576399E-03 -0.14368720245E-01  0.19847757624E-01  0.00000000000E+00 0.  1.
       22    1    1    2    0    0 -0.94829483239E-02  0.18168155560E-01 -0.75001922067E-02  0.21823406437E-01  0.00000000000E+00 0.  1.
       22    1    1    2    0    0 -0.41934370198E-02 -0.17512529796E-01  0.21868912452E-01  0.28328835940E-01  0.00000000000E+00 0. -1.
</event>
<event>
 5   0  0.4146200E+04  0.9118800E+02  0.7546771E-02  0.1180000E+00
      -11   -1    0    0    0    0  0.00000000000E+00  0.00000000000E+00  0.34996269501E-01  0.35000000000E-01  0.51099999109E-03 0. -1.
       11   -1    0    0    0    0 -0.00000000000E+00 -0.00000000000E+00 -0.34996269501E-01  0.35000000000E-01  0.51099999109E-03 0.  1.
       22    1    1    2    0    0 -0.66611479505E-02  0.12440724685E-01  0.31522120189E-01  0.34536742520E-01  0.00000000000E+00 0. -1.
       22    1    1    2    0    0  0.88882102213E-03 -0.26719291062E-02 -0.15944388189E-01  0.16191130988E-01  0.00000000000E+00 0.  1.
       22    1    1    2    0    0  0.57723269283E-02 -0.97687955791E-02 -0.15577732000E-01  0.19272126491E-01  0.00000000000E+00 0.  1.
</event>
<event>
 5   0  0.4146200E+04  0.9118800E+02  0.7546771E-02  0.1180000E+00
      -11   -1    0    0    0    0  0.00000000000E+00  0.00000000000E+00  0.34996269501E-01  0.35000000000E-01  0.51099999109E-03 0.  1.
       11   -1    0    0    0    0 -0.00000000000E+00 -0.00000000000E+00 -0.34996269501E-01  0.35000000000E-01  0.51099999109E-03 0. -1.
       22    1    1    2    0    0  0.24962614017E-03 -0.45628246038E-03 -0.13692853503E-02  0.14647352198E-02  0.00000000000E+00 0. -1.
       22    1    1    2    0    0 -0.55123940574E-03  0.34083661408E-03  0.34948494164E-01  0.34954502983E-01  0.00000000000E+00 0.  1.
       22    1    1    2    0    0  0.30161326557E-03  0.11544584631E-03 -0.33579208814E-01  0.33580761797E-01  0.00000000000E+00 0. -1.
</event>
<event>
 5   0  0.4146200E+04  0.9118800E+02  0.7546771E-02  0.1180000E+00
      -11   -1    0    0    0    0  0.00000000000E+00  0.00000000000E+00  0.34996269501E-01  0.35000000000E-01  0.51099999109E-03 0. -1.
       11   -1    0    0    0    0 -0.00000000000E+00 -0.00000000000E+00 -0.34996269501E-01  0.35000000000E-01  0.51099999109E-03 0.  1.
       22    1    1    2    0    0  0.60873515229E-04 -0.28132456612E-02 -0.41917259853E-02  0.50486258992E-02  0.00000000000E+00 0. -1.
       22    1    1    2    0    0  0.41888382869E-02 -0.27747120507E-01 -0.11511320778E-01  0.30330835278E-01  0.00000000000E+00 0.  1.
       22    1    1    2    0    0 -0.42497118022E-02  0.30560366168E-01  0.15703046763E-01  0.34620538823E-01  0.00000000000E+00 0. -1.
</event>
<event>
 5   0  0.4146200E+04  0.9118800E+02  0.7546771E-02  0.1180000E+00
      -11   -1    0    0    0    0  0.00000000000E+00  0.00000000000E+00  0.34996269501E-01  0.35000000000E-01  0.51099999109E-03 0.  1.
       11   -1    0    0    0    0 -0.00000000000E+00 -0.00000000000E+00 -0.34996269501E-01  0.35000000000E-01  0.51099999109E-03 0. -1.
       22    1    1    2    0    0 -0.79770577596E-03 -0.16768318980E-02 -0.21655433370E-01  0.21734900371E-01  0.00000000000E+00 0. -1.
       22    1    1    2    0    0  0.43271083912E-02  0.76355933063E-02  0.33452924179E-01  0.34585029829E-01  0.00000000000E+00 0.  1.
       22    1    1    2    0    0 -0.35294026152E-02 -0.59587614084E-02 -0.11797490809E-01  0.13680069800E-01  0.00000000000E+00 0. -1.
</event>
<event>
 5   0  0.4146200E+04  0.9118800E+02  0.7546771E-02  0.1180000E+00
      -11   -1    0    0    0    0  0.00000000000E+00  0.00000000000E+00  0.34996269501E-01  0.35000000000E-01  0.51099999109E-03 0. -1.
       11   -1    0    0    0    0 -0.00000000000E+00 -0.00000000000E+00 -0.34996269501E-01  0.35000000000E-01  0.51099999109E-03 0.  1.
       22    1    1    2    0    0 -0.79830360432E-02  0.10975666724E-01  0.32235582478E-01  0.34976090436E-01  0.00000000000E+00 0. -1.
       22    1    1    2    0    0  0.80584013345E-02 -0.10829896131E-01 -0.31506389650E-01  0.34276479852E-01  0.00000000000E+00 0.  1.
       22    1    1    2    0    0 -0.75365291290E-04 -0.14577059395E-03 -0.72919282836E-03  0.74742971183E-03  0.00000000000E+00 0.  1.
</event>
<event>
 5   0  0.4146200E+04  0.9118800E+02  0.7546771E-02  0.1180000E+00
      -11   -1    0    0    0    0  0.00000000000E+00  0.00000000000E+00  0.34996269501E-01  0.35000000000E-01  0.51099999109E-03 0. -1.
       11   -1    0    0    0    0 -0.00000000000E+00 -0.00000000000E+00 -0.34996269501E-01  0.35000000000E-01  0.51099999109E-03 0.  1.
       22    1    1    2    0    0  0.11620382126E-02 -0.91530410987E-04  0.31437968608E-01  0.31459570576E-01  0.00000000000E+00 0. -1.
       22    1    1    2    0    0  0.89867073169E-02 -0.18168333092E-02 -0.56696218326E-02  0.10779907393E-01  0.00000000000E+00 0. -1.
       22    1    1    2    0    0 -0.10148745530E-01  0.19083637202E-02 -0.25768346775E-01  0.27760522031E-01  0.00000000000E+00 0.  1.
</event>
<event>
 5   0  0.4146200E+04  0.9118800E+02  0.7546771E-02  0.1180000E+00
      -11   -1    0    0    0    0  0.00000000000E+00  0.00000000000E+00  0.34996269501E-01  0.35000000000E-01  0.51099999109E-03 0. -1.
       11   -1    0    0    0    0 -0.00000000000E+00 -0.00000000000E+00 -0.34996269501E-01  0.35000000000E-01  0.51099999109E-03 0.  1.
       22    1    1    2    0    0 -0.87009196442E-02 -0.10934979568E-01  0.28308117765E-01  0.31569436362E-01  0.00000000000E+00 0. -1.
       22    1    1    2    0    0  0.14892555997E-01  0.10958960583E-01 -0.25819621491E-01  0.31757517143E-01  0.00000000000E+00 0.  1.
       22    1    1    2    0    0 -0.61916363526E-02 -0.23981015601E-04 -0.24884962743E-02  0.66730464946E-02  0.00000000000E+00 0. -1.
</event>
<event>
 5   0  0.4146200E+04  0.9118800E+02  0.7546771E-02  0.1180000E+00
      -11   -1    0    0    0    0  0.00000000000E+00  0.00000000000E+00  0.34996269501E-01  0.35000000000E-01  0.51099999109E-03 0. -1.
       11   -1    0    0    0    0 -0.00000000000E+00 -0.00000000000E+00 -0.34996269501E-01  0.35000000000E-01  0.51099999109E-03 0. -1.
       22    1    1    2    0    0  0.11274910216E-02  0.41604365627E-03 -0.22456621075E-02  0.25470230916E-02  0.00000000000E+00 0. -1.
       22    1    1    2    0    0  0.00000000000E+00  0.00000000000E+00  0.34839329121E-01  0.34837160842E-01  0.00000000000E+00 0. -1.
       22    1    1    2    0    0 -0.11274910216E-02 -0.41604365627E-03 -0.32593667013E-01  0.32615816067E-01  0.00000000000E+00 0.  1.
</event>
<event>
 5   0  0.4146200E+04  0.9118800E+02  0.7546771E-02  0.1180000E+00
      -11   -1    0    0    0    0  0.00000000000E+00  0.00000000000E+00  0.34996269501E-01  0.35000000000E-01  0.51099999109E-03 0. -1.
       11   -1    0    0    0    0 -0.00000000000E+00 -0.00000000000E+00 -0.34996269501E-01  0.35000000000E-01  0.51099999109E-03 0.  1.
       22    1    1    2    0    0  0.89772373015E-04 -0.18206042211E-03 -0.17065834940E-02  0.17186134814E-02  0.00000000000E+00 0.  1.
       22    1    1    2    0    0 -0.13168880229E-01 -0.31896926946E-02  0.32197721691E-01  0.34932604083E-01  0.00000000000E+00 0. -1.
       22    1    1    2    0    0  0.13079107856E-01  0.33717531168E-02 -0.30491138197E-01  0.33348782435E-01  0.00000000000E+00 0.  1.
</event>
<event>
 5   0  0.4146200E+04  0.9118800E+02  0.7546771E-02  0.1180000E+00
      -11   -1    0    0    0    0  0.00000000000E+00  0.00000000000E+00  0.34996269501E-01  0.35000000000E-01  0.51099999109E-03 0. -1.
       11   -1    0    0    0    0 -0.00000000000E+00 -0.00000000000E+00 -0.34996269501E-01  0.35000000000E-01  0.51099999109E-03 0.  1.
       22    1    1    2    0    0  0.19169339566E-02 -0.23148000370E-02  0.34839396327E-01  0.34968792822E-01  0.00000000000E+00 0. -1.
       22    1    1    2    0    0 -0.14789107281E-02  0.19430167259E-02 -0.33277947131E-01  0.33367413088E-01  0.00000000000E+00 0.  1.
       22    1    1    2    0    0 -0.43802322849E-03  0.37178331107E-03 -0.15614491968E-02  0.16637940898E-02  0.00000000000E+00 0.  1.
</event>
<event>
 5   0  0.4146200E+04  0.9118800E+02  0.7546771E-02  0.1180000E+00
      -11   -1    0    0    0    0  0.00000000000E+00  0.00000000000E+00  0.34996269501E-01  0.35000000000E-01  0.51099999109E-03 0. -1.
       11   -1    0    0    0    0 -0.00000000000E+00 -0.00000000000E+00 -0.34996269501E-01  0.35000000000E-01  0.51099999109E-03 0.  1.
       22    1    1    2    0    0 -0.31632764392E-02  0.78384575778E-03 -0.24394881733E-02  0.40708518213E-02  0.00000000000E+00 0. -1.
       22    1    1    2    0    0  0.47334751059E-02  0.12127096647E-01  0.31503754063E-01  0.34087516479E-01  0.00000000000E+00 0. -1.
       22    1    1    2    0    0 -0.15701986666E-02 -0.12910942405E-01 -0.29064265889E-01  0.31841631700E-01  0.00000000000E+00 0.  1.
</event>
<event>
 5   0  0.4146200E+04  0.9118800E+02  0.7546771E-02  0.1180000E+00
      -11   -1    0    0    0    0  0.00000000000E+00  0.00000000000E+00  0.34996269501E-01  0.35000000000E-01  0.51099999109E-03 0.  1.
       11   -1    0    0    0    0 -0.00000000000E+00 -0.00000000000E+00 -0.34996269501E-01  0.35000000000E-01  0.51099999109E-03 0. -1.
       22    1    1    2    0    0  0.12317801263E-01  0.75198119349E-02  0.81351398816E-02  0.16566722681E-01  0.00000000000E+00 0.  1.
       22    1    1    2    0    0 -0.29543777663E-02 -0.19673883136E-01 -0.24127194428E-01  0.31271577137E-01  0.00000000000E+00 0. -1.
       22    1    1    2    0    0 -0.93634234969E-02  0.12154071201E-01  0.15992054547E-01  0.22161700182E-01  0.00000000000E+00 0.  1.
</event>
<event>
 5   0  0.4146200E+04  0.9118800E+02  0.7546771E-02  0.1180000E+00
      -11   -1    0    0    0    0  0.00000000000E+00  0.00000000000E+00  0.34996269501E-01  0.35000000000E-01  0.51099999109E-03 0. -1.
       11   -1    0    0    0    0 -0.00000000000E+00 -0.00000000000E+00 -0.34996269501E-01  0.35000000000E-01  0.51099999109E-03 0.  1.
       22    1    1    2    0    0 -0.12572317749E-02 -0.16614784208E-01  0.23978894609E-01  0.29199641653E-01  0.00000000000E+00 0. -1.
       22    1    1    2    0    0  0.13644877778E-02  0.16443808300E-01 -0.30286458057E-01  0.34489566537E-01  0.00000000000E+00 0.  1.
       22    1    1    2    0    0 -0.10725600291E-03  0.17097590826E-03  0.63075634485E-02  0.63107918099E-02  0.00000000000E+00 0. -1.
</event>
<event>
 5   0  0.4146200E+04  0.9118800E+02  0.7546771E-02  0.1180000E+00
      -11   -1    0    0    0    0  0.00000000000E+00  0.00000000000E+00  0.34996269501E-01  0.35000000000E-01  0.51099999109E-03 0. -1.
       11   -1    0    0    0    0 -0.00000000000E+00 -0.00000000000E+00 -0.34996269501E-01  0.35000000000E-01  0.51099999109E-03 0.  1.
       22    1    1    2    0    0 -0.25769341544E-02 -0.74480551693E-03 -0.33623217715E-01  0.33730047353E-01  0.00000000000E+00 0.  1.
       22    1    1    2    0    0 -0.90622153310E-04  0.70115339296E-03 -0.11740919259E-02  0.13705182617E-02  0.00000000000E+00 0.  1.
       22    1    1    2    0    0  0.26675563077E-02  0.43652123974E-04  0.34797309641E-01  0.34899434385E-01  0.00000000000E+00 0. -1.
</event>
<event>
 5   0  0.4146200E+04  0.9118800E+02  0.7546771E-02  0.1180000E+00
      -11   -1    0    0    0    0  0.00000000000E+00  0.00000000000E+00  0.34996269501E-01  0.35000000000E-01  0.51099999109E-03 0.  1.
       11   -1    0    0    0    0 -0.00000000000E+00 -0.00000000000E+00 -0.34996269501E-01  0.35000000000E-01  0.51099999109E-03 0. -1.
       22    1    1    2    0    0 -0.20454314309E-03  0.25455912990E-03  0.73614559981E-03  0.80532514683E-03  0.00000000000E+00 0.  1.
       22    1    1    2    0    0 -0.11896663926E-01  0.20362032803E-02  0.32009526934E-01  0.34209451192E-01  0.00000000000E+00 0.  1.
       22    1    1    2    0    0  0.12101207069E-01 -0.22907624102E-02 -0.32745672533E-01  0.34985223661E-01  0.00000000000E+00 0. -1.
</event>
<event>
 5   0  0.4146200E+04  0.9118800E+02  0.7546771E-02  0.1180000E+00
      -11   -1    0    0    0    0  0.00000000000E+00  0.00000000000E+00  0.34996269501E-01  0.35000000000E-01  0.51099999109E-03 0.  1.
       11   -1    0    0    0    0 -0.00000000000E+00 -0.00000000000E+00 -0.34996269501E-01  0.35000000000E-01  0.51099999109E-03 0. -1.
       22    1    1    2    0    0 -0.28046814375E-02 -0.87423027099E-03  0.29705496759E-01  0.29850411291E-01  0.00000000000E+00 0.  1.
       22    1    1    2    0    0  0.14669172545E-01  0.46203982062E-03 -0.20047734487E-01  0.24845719189E-01  0.00000000000E+00 0.  1.
       22    1    1    2    0    0 -0.11864491107E-01  0.41219045037E-03 -0.96577622719E-02  0.15303869520E-01  0.00000000000E+00 0. -1.
</event>
<event>
 5   0  0.4146200E+04  0.9118800E+02  0.7546771E-02  0.1180000E+00
      -11   -1    0    0    0    0  0.00000000000E+00  0.00000000000E+00  0.34996269501E-01  0.35000000000E-01  0.51099999109E-03 0. -1.
       11   -1    0    0    0    0 -0.00000000000E+00 -0.00000000000E+00 -0.34996269501E-01  0.35000000000E-01  0.51099999109E-03 0.  1.
       22    1    1    2    0    0 -0.24239677491E-02  0.42565597707E-03  0.34439268932E-01  0.34527091497E-01  0.00000000000E+00 0. -1.
       22    1    1    2    0    0  0.15968895013E-02 -0.27809631347E-02 -0.50787251046E-02  0.60064349429E-02  0.00000000000E+00 0. -1.
       22    1    1    2    0    0  0.82707824780E-03  0.23553071576E-02 -0.29360543827E-01  0.29466473560E-01  0.00000000000E+00 0.  1.
</event>
<event>
 5   0  0.4146200E+04  0.9118800E+02  0.7546771E-02  0.1180000E+00
      -11   -1    0    0    0    0  0.00000000000E+00  0.00000000000E+00  0.34996269501E-01  0.35000000000E-01  0.51099999109E-03 0.  1.
       11   -1    0    0    0    0 -0.00000000000E+00 -0.00000000000E+00 -0.34996269501E-01  0.35000000000E-01  0.51099999109E-03 0. -1.
       22    1    1    2    0    0 -0.12334795636E-01  0.52840132316E-02 -0.31920355833E-01  0.34626248652E-01  0.00000000000E+00 0. -1.
       22    1    1    2    0    0  0.12358870749E-01 -0.52391788097E-02  0.32306488092E-01  0.34984280093E-01  0.00000000000E+00 0.  1.
       22    1    1    2    0    0 -0.24075113237E-04 -0.44834421886E-04 -0.38613225932E-03  0.38947125459E-03  0.00000000000E+00 0. -1.
</event>
<event>
 5   0  0.4146200E+04  0.9118800E+02  0.7546771E-02  0.1180000E+00
      -11   -1    0    0    0    0  0.00000000000E+00  0.00000000000E+00  0.34996269501E-01  0.35000000000E-01  0.51099999109E-03 0.  1.
       11   -1    0    0    0    0 -0.00000000000E+00 -0.00000000000E+00 -0.34996269501E-01  0.35000000000E-01  0.51099999109E-03 0. -1.
       22    1    1    2    0    0 -0.17016462202E-01 -0.16462885602E-02 -0.30353936069E-01  0.34837216978E-01  0.00000000000E+00 0. -1.
       22    1    1    2    0    0 -0.65838865942E-04 -0.30643715215E-03  0.44928139280E-04  0.31663389298E-03  0.00000000000E+00 0. -1.
       22    1    1    2    0    0  0.17082301068E-01  0.19527257124E-02  0.30309007929E-01  0.34846149129E-01  0.00000000000E+00 0.  1.
</event>
<event>
 5   0  0.4146200E+04  0.9118800E+02  0.7546771E-02  0.1180000E+00
      -11   -1    0    0    0    0  0.00000000000E+00  0.00000000000E+00  0.34996269501E-01  0.35000000000E-01  0.51099999109E-03 0. -1.
       11   -1    0    0    0    0 -0.00000000000E+00 -0.00000000000E+00 -0.34996269501E-01  0.35000000000E-01  0.51099999109E-03 0.  1.
       22    1    1    2    0    0 -0.20279135906E-01 -0.22265295004E-02 -0.28379352460E-01  0.34951229345E-01  0.00000000000E+00 0.  1.
       22    1    1    2    0    0 -0.21997091982E-04 -0.90460683235E-05  0.43858933180E-03  0.43923377076E-03  0.00000000000E+00 0. -1.
       22    1    1    2    0    0  0.20301132997E-01  0.22355755687E-02  0.27940763129E-01  0.34609536884E-01  0.00000000000E+00 0. -1.
</event>
<event>
 5   0  0.4146200E+04  0.9118800E+02  0.7546771E-02  0.1180000E+00
      -11   -1    0    0    0    0  0.00000000000E+00  0.00000000000E+00  0.34996269501E-01  0.35000000000E-01  0.51099999109E-03 0.  1.
       11   -1    0    0    0    0 -0.00000000000E+00 -0.00000000000E+00 -0.34996269501E-01  0.35000000000E-01  0.51099999109E-03 0. -1.
       22    1    1    2    0    0 -0.10633532841E-02  0.43788311805E-03 -0.12453706963E-01  0.12506689368E-01  0.00000000000E+00 0. -1.
       22    1    1    2    0    0 -0.71986481761E-02  0.42271385627E-02 -0.21064338950E-01  0.22658234958E-01  0.00000000000E+00 0. -1.
       22    1    1    2    0    0  0.82620014602E-02 -0.46650216808E-02  0.33518045913E-01  0.34835075674E-01  0.00000000000E+00 0.  1.
</event>
<event>
 5   0  0.4146200E+04  0.9118800E+02  0.7546771E-02  0.1180000E+00
      -11   -1    0    0    0    0  0.00000000000E+00  0.00000000000E+00  0.34996269501E-01  0.35000000000E-01  0.51099999109E-03 0.  1.
       11   -1    0    0    0    0 -0.00000000000E+00 -0.00000000000E+00 -0.34996269501E-01  0.35000000000E-01  0.51099999109E-03 0. -1.
       22    1    1    2    0    0  0.39858127109E-02  0.79270538490E-03 -0.67866422628E-02  0.79103475269E-02  0.00000000000E+00 0. -1.
       22    1    1    2    0    0 -0.13414786649E-01  0.79245285602E-02  0.30992558796E-01  0.34688519059E-01  0.00000000000E+00 0.  1.
       22    1    1    2    0    0  0.94289739385E-02 -0.87172339451E-02 -0.24205916533E-01  0.27401133415E-01  0.00000000000E+00 0. -1.
</event>
<event>
 5   0  0.4146200E+04  0.9118800E+02  0.7546771E-02  0.1180000E+00
      -11   -1    0    0    0    0  0.00000000000E+00  0.00000000000E+00  0.34996269501E-01  0.35000000000E-01  0.51099999109E-03 0.  1.
       11   -1    0    0    0    0 -0.00000000000E+00 -0.00000000000E+00 -0.34996269501E-01  0.35000000000E-01  0.51099999109E-03 0. -1.
       22    1    1    2    0    0  0.11478147412E-02  0.54695740719E-04 -0.34061945164E-01  0.34081323018E-01  0.00000000000E+00 0. -1.
       22    1    1    2    0    0 -0.11268638015E-02 -0.49471681730E-03  0.34926598291E-01  0.34948273705E-01  0.00000000000E+00 0.  1.
       22    1    1    2    0    0 -0.20950939686E-04  0.44002107658E-03 -0.86465312696E-03  0.97040327682E-03  0.00000000000E+00 0.  1.
</event>
<event>
 5   0  0.4146200E+04  0.9118800E+02  0.7546771E-02  0.1180000E+00
      -11   -1    0    0    0    0  0.00000000000E+00  0.00000000000E+00  0.34996269501E-01  0.35000000000E-01  0.51099999109E-03 0.  1.
       11   -1    0    0    0    0 -0.00000000000E+00 -0.00000000000E+00 -0.34996269501E-01  0.35000000000E-01  0.51099999109E-03 0. -1.
       22    1    1    2    0    0  0.23781880685E-01 -0.10614162346E-01 -0.22882660602E-01  0.34667772462E-01  0.00000000000E+00 0. -1.
       22    1    1    2    0    0 -0.23642661701E-01  0.10521151018E-01  0.23337881797E-01  0.34847192108E-01  0.00000000000E+00 0.  1.
       22    1    1    2    0    0 -0.13921898322E-03  0.93011327951E-04 -0.45522119464E-03  0.48503543012E-03  0.00000000000E+00 0. -1.
</event>
<event>
 5   0  0.4146200E+04  0.9118800E+02  0.7546771E-02  0.1180000E+00
      -11   -1    0    0    0    0  0.00000000000E+00  0.00000000000E+00  0.34996269501E-01  0.35000000000E-01  0.51099999109E-03 0.  1.
       11   -1    0    0    0    0 -0.00000000000E+00 -0.00000000000E+00 -0.34996269501E-01  0.35000000000E-01  0.51099999109E-03 0. -1.
       22    1    1    2    0    0 -0.26891491050E-03  0.35519203423E-04 -0.34310880864E-03  0.43737912326E-03  0.00000000000E+00 0.  1.
       22    1    1    2    0    0  0.76996577899E-02 -0.29167128721E-02 -0.33652609588E-01  0.34645202787E-01  0.00000000000E+00 0. -1.
       22    1    1    2    0    0 -0.74307428794E-02  0.28811936687E-02  0.33995718397E-01  0.34917418089E-01  0.00000000000E+00 0.  1.
</event>
<event>
 5   0  0.4146200E+04  0.9118800E+02  0.7546771E-02  0.1180000E+00
      -11   -1    0    0    0    0  0.00000000000E+00  0.00000000000E+00  0.34996269501E-01  0.35000000000E-01  0.51099999109E-03 0. -1.
       11   -1    0    0    0    0 -0.00000000000E+00 -0.00000000000E+00 -0.34996269501E-01  0.35000000000E-01  0.51099999109E-03 0.  1.
       22    1    1    2    0    0 -0.77194183182E-03  0.99129110625E-03 -0.53132657022E-02  0.54597934641E-02  0.00000000000E+00 0.  1.
       22    1    1    2    0    0 -0.11954365833E-01 -0.13999766455E-01 -0.23872108056E-01  0.30145942783E-01  0.00000000000E+00 0.  1.
       22    1    1    2    0    0  0.12726307665E-01  0.13008475348E-01  0.29185373758E-01  0.34394263753E-01  0.00000000000E+00 0. -1.
</event>
<event>
 5   0  0.4146200E+04  0.9118800E+02  0.7546771E-02  0.1180000E+00
      -11   -1    0    0    0    0  0.00000000000E+00  0.00000000000E+00  0.34996269501E-01  0.35000000000E-01  0.51099999109E-03 0. -1.
       11   -1    0    0    0    0 -0.00000000000E+00 -0.00000000000E+00 -0.34996269501E-01  0.35000000000E-01  0.51099999109E-03 0.  1.
       22    1    1    2    0    0  0.50503012054E-02  0.18710322924E-01  0.24063887409E-01  0.30897449788E-01  0.00000000000E+00 0. -1.
       22    1    1    2    0    0 -0.53426843033E-02 -0.18450983789E-01 -0.28653424355E-01  0.34496402793E-01  0.00000000000E+00 0.  1.
       22    1    1    2    0    0  0.29238309793E-03 -0.25933913501E-03  0.45895369467E-02  0.46061474192E-02  0.00000000000E+00 0. -1.
</event>
<event>
 5   0  0.4146200E+04  0.9118800E+02  0.7546771E-02  0.1180000E+00
      -11   -1    0    0    0    0  0.00000000000E+00  0.00000000000E+00  0.34996269501E-01  0.35000000000E-01  0.51099999109E-03 0. -1.
       11   -1    0    0    0    0 -0.00000000000E+00 -0.00000000000E+00 -0.34996269501E-01  0.35000000000E-01  0.51099999109E-03 0.  1.
       22    1    1    2    0    0  0.16787260137E-01  0.15712548221E-01  0.22894641587E-01  0.32447817921E-01  0.00000000000E+00 0. -1.
       22    1    1    2    0    0 -0.17707284360E-03  0.70359265254E-04  0.29826460082E-02  0.29887258872E-02  0.00000000000E+00 0.  1.
       22    1    1    2    0    0 -0.16610187293E-01 -0.15782907486E-01 -0.25877287595E-01  0.34563456191E-01  0.00000000000E+00 0.  1.
</event>
<event>
 5   0  0.4146200E+04  0.9118800E+02  0.7546771E-02  0.1180000E+00
      -11   -1    0    0    0    0  0.00000000000E+00  0.00000000000E+00  0.34996269501E-01  0.35000000000E-01  0.51099999109E-03 0.  1.
       11   -1    0    0    0    0 -0.00000000000E+00 -0.00000000000E+00 -0.34996269501E-01  0.35000000000E-01  0.51099999109E-03 0. -1.
       22    1    1    2    0    0  0.10738807018E-02  0.10371524372E-02  0.18107182415E-01  0.18168625704E-01  0.00000000000E+00 0.  1.
       22    1    1    2    0    0  0.97936838752E-02  0.11478517996E-01  0.10767891202E-01  0.18536992749E-01  0.00000000000E+00 0.  1.
       22    1    1    2    0    0 -0.10867564577E-01 -0.12515670433E-01 -0.28875073617E-01  0.33294381548E-01  0.00000000000E+00 0. -1.
</event>
<event>
 5   0  0.4146200E+04  0.9118800E+02  0.7546771E-02  0.1180000E+00
      -11   -1    0    0    0    0  0.00000000000E+00  0.00000000000E+00  0.34996269501E-01  0.35000000000E-01  0.51099999109E-03 0. -1.
       11   -1    0    0    0    0 -0.00000000000E+00 -0.00000000000E+00 -0.34996269501E-01  0.35000000000E-01  0.51099999109E-03 0.  1.
       22    1    1    2    0    0 -0.61425118191E-05  0.16086292626E-04  0.78888213559E-03  0.78907003689E-03  0.00000000000E+00 0.  1.
       22    1    1    2    0    0 -0.80955137151E-02  0.93034779020E-02 -0.32724376495E-01  0.34971086062E-01  0.00000000000E+00 0.  1.
       22    1    1    2    0    0  0.81016562270E-02 -0.93195641946E-02  0.31935494359E-01  0.34239843901E-01  0.00000000000E+00 0. -1.
</event>
<event>
 5   0  0.4146200E+04  0.9118800E+02  0.7546771E-02  0.1180000E+00
      -11   -1    0    0    0    0  0.00000000000E+00  0.00000000000E+00  0.34996269501E-01  0.35000000000E-01  0.51099999109E-03 0.  1.
       11   -1    0    0    0    0 -0.00000000000E+00 -0.00000000000E+00 -0.34996269501E-01  0.35000000000E-01  0.51099999109E-03 0. -1.
       22    1    1    2    0    0 -0.12306132604E-02  0.23437563610E-03 -0.26120208445E-02  0.28968938240E-02  0.00000000000E+00 0. -1.
       22    1    1    2    0    0  0.83699602081E-03  0.27448978193E-02 -0.32116677823E-01  0.32244627781E-01  0.00000000000E+00 0. -1.
       22    1    1    2    0    0  0.39361723961E-03 -0.29792734554E-02  0.34728698667E-01  0.34858478395E-01  0.00000000000E+00 0.  1.
</event>
<event>
 5   0  0.4146200E+04  0.9118800E+02  0.7546771E-02  0.1180000E+00
      -11   -1    0    0    0    0  0.00000000000E+00  0.00000000000E+00  0.34996269501E-01  0.35000000000E-01  0.51099999109E-03 0.  1.
       11   -1    0    0    0    0 -0.00000000000E+00 -0.00000000000E+00 -0.34996269501E-01  0.35000000000E-01  0.51099999109E-03 0. -1.
       22    1    1    2    0    0  0.18186423746E-01  0.10265829269E-01  0.26064556437E-01  0.33399017374E-01  0.00000000000E+00 0.  1.
       22    1    1    2    0    0 -0.17907772636E-01 -0.11411076818E-01 -0.27499717070E-01  0.34743854620E-01  0.00000000000E+00 0. -1.
       22    1    1    2    0    0 -0.27865111008E-03  0.11452475492E-02  0.14351606328E-02  0.18571280063E-02  0.00000000000E+00 0.  1.
</event>
<event>
 5   0  0.4146200E+04  0.9118800E+02  0.7546771E-02  0.1180000E+00
      -11   -1    0    0    0    0  0.00000000000E+00  0.00000000000E+00  0.34996269501E-01  0.35000000000E-01  0.51099999109E-03 0. -1.
       11   -1    0    0    0    0 -0.00000000000E+00 -0.00000000000E+00 -0.34996269501E-01  0.35000000000E-01  0.51099999109E-03 0.  1.
       22    1    1    2    0    0 -0.52583872997E-02  0.38268945441E-02 -0.25880684917E-01  0.26685307017E-01  0.00000000000E+00 0.  1.
       22    1    1    2    0    0 -0.16519166809E-02 -0.23924556790E-02 -0.81014912120E-02  0.86073708387E-02  0.00000000000E+00 0.  1.
       22    1    1    2    0    0  0.69103039806E-02 -0.14344388651E-02  0.33982176129E-01  0.34707322144E-01  0.00000000000E+00 0. -1.
</event>
<event>
 5   0  0.4146200E+04  0.9118800E+02  0.7546771E-02  0.1180000E+00
      -11   -1    0    0    0    0  0.00000000000E+00  0.00000000000E+00  0.34996269501E-01  0.35000000000E-01  0.51099999109E-03 0. -1.
       11   -1    0    0    0    0 -0.00000000000E+00 -0.00000000000E+00 -0.34996269501E-01  0.35000000000E-01  0.51099999109E-03 0.  1.
       22    1    1    2    0    0  0.27650462089E-03  0.58852732940E-03 -0.97300233139E-03  0.11702789239E-02  0.00000000000E+00 0.  1.
       22    1    1    2    0    0 -0.31285334671E-01  0.14099561551E-01  0.30785642290E-02  0.34453553650E-01  0.00000000000E+00 0.  1.
       22    1    1    2    0    0  0.31008830050E-01 -0.14688088880E-01 -0.21055618976E-02  0.34376167426E-01  0.00000000000E+00 0. -1.
</event>
<event>
 5   0  0.4146200E+04  0.9118800E+02  0.7546771E-02  0.1180000E+00
      -11   -1    0    0    0    0  0.00000000000E+00  0.00000000000E+00  0.34996269501E-01  0.35000000000E-01  0.51099999109E-03 0.  1.
       11   -1    0    0    0    0 -0.00000000000E+00 -0.00000000000E+00 -0.34996269501E-01  0.35000000000E-01  0.51099999109E-03 0. -1.
       22    1    1    2    0    0  0.24310626138E-03  0.51338754364E-03  0.30877306068E-01  0.30882530620E-01  0.00000000000E+00 0.  1.
       22    1    1    2    0    0 -0.10692841471E-01 -0.57226675091E-02 -0.18318538505E-01  0.21969402247E-01  0.00000000000E+00 0. -1.
       22    1    1    2    0    0  0.10449735209E-01  0.52092799654E-02 -0.12558767563E-01  0.17148067133E-01  0.00000000000E+00 0.  1.
</event>
<event>
 5   0  0.4146200E+04  0.9118800E+02  0.7546771E-02  0.1180000E+00
      -11   -1    0    0    0    0  0.00000000000E+00  0.00000000000E+00  0.34996269501E-01  0.35000000000E-01  0.51099999109E-03 0.  1.
       11   -1    0    0    0    0 -0.00000000000E+00 -0.00000000000E+00 -0.34996269501E-01  0.35000000000E-01  0.51099999109E-03 0. -1.
       22    1    1    2    0    0  0.17211946303E-01  0.46769614121E-02 -0.28316396737E-01  0.33465555243E-01  0.00000000000E+00 0. -1.
       22    1    1    2    0    0  0.91197543300E-04 -0.19064387650E-03 -0.16381762786E-02  0.16517516761E-02  0.00000000000E+00 0. -1.
       22    1    1    2    0    0 -0.17303143846E-01 -0.44863175356E-02  0.29954573016E-01  0.34882693080E-01  0.00000000000E+00 0.  1.
</event>
<event>
 5   0  0.4146200E+04  0.9118800E+02  0.7546771E-02  0.1180000E+00
      -11   -1    0    0    0    0  0.00000000000E+00  0.00000000000E+00  0.34996269501E-01  0.35000000000E-01  0.51099999109E-03 0.  1.
       11   -1    0    0    0    0 -0.00000000000E+00 -0.00000000000E+00 -0.34996269501E-01  0.35000000000E-01  0.51099999109E-03 0.  1.
       22    1    1    2    0    0 -0.11375194140E-02  0.92356754890E-03 -0.30594137344E-02  0.33921880598E-02  0.00000000000E+00 0. -1.
       22    1    1    2    0    0  0.00000000000E+00  0.00000000000E+00  0.34817361334E-01  0.34816080890E-01  0.00000000000E+00 0.  1.
       22    1    1    2    0    0  0.11375194140E-02 -0.92356754890E-03 -0.31757947600E-01  0.31791731050E-01  0.00000000000E+00 0.  1.
</event>
<event>
 5   0  0.4146200E+04  0.9118800E+02  0.7546771E-02  0.1180000E+00
      -11   -1    0    0    0    0  0.00000000000E+00  0.00000000000E+00  0.34996269501E-01  0.35000000000E-01  0.51099999109E-03 0.  1.
       11   -1    0    0    0    0 -0.00000000000E+00 -0.00000000000E+00 -0.34996269501E-01  0.35000000000E-01  0.51099999109E-03 0. -1.
       22    1    1    2    0    0  0.69417612896E-03  0.10412956610E-02  0.49010496714E-03  0.13440163803E-02  0.00000000000E+00 0. -1.
       22    1    1    2    0    0  0.15506614437E-01  0.12037531681E-01  0.27489633331E-01  0.33779242160E-01  0.00000000000E+00 0.  1.
       22    1    1    2    0    0 -0.16200790566E-01 -0.13078827342E-01 -0.27979738298E-01  0.34876741459E-01  0.00000000000E+00 0. -1.
</event>
<event>
 5   0  0.4146200E+04  0.9118800E+02  0.7546771E-02  0.1180000E+00
      -11   -1    0    0    0    0  0.00000000000E+00  0.00000000000E+00  0.34996269501E-01  0.35000000000E-01  0.51099999109E-03 0.  1.
       11   -1    0    0    0    0 -0.00000000000E+00 -0.00000000000E+00 -0.34996269501E-01  0.35000000000E-01  0.51099999109E-03 0. -1.
       22    1    1    2    0    0 -0.11637609807E-01 -0.15393584774E-01 -0.28832210365E-01  0.34694275734E-01  0.00000000000E+00 0. -1.
       22    1    1    2    0    0 -0.61014928725E-04  0.41106581950E-04  0.32894600608E-02  0.32902826724E-02  0.00000000000E+00 0.  1.
       22    1    1    2    0    0  0.11698624735E-01  0.15352478192E-01  0.25542750304E-01  0.32015441593E-01  0.00000000000E+00 0.  1.
</event>
<event>
 5   0  0.4146200E+04  0.9118800E+02  0.7546771E-02  0.1180000E+00
      -11   -1    0    0    0    0  0.00000000000E+00  0.00000000000E+00  0.34996269501E-01  0.35000000000E-01  0.51099999109E-03 0.  1.
       11   -1    0    0    0    0 -0.00000000000E+00 -0.00000000000E+00 -0.34996269501E-01  0.35000000000E-01  0.51099999109E-03 0. -1.
       22    1    1    2    0    0 -0.15045049832E-01  0.89779468492E-02 -0.29964535321E-01  0.34710667397E-01  0.00000000000E+00 0. -1.
       22    1    1    2    0    0  0.15038697324E-01 -0.88646060580E-02  0.30281302630E-01  0.34952838894E-01  0.00000000000E+00 0.  1.
       22    1    1    2    0    0  0.63525079419E-05 -0.11334079128E-03 -0.31676730807E-03  0.33649370988E-03  0.00000000000E+00 0. -1.
</event>
<event>
 5   0  0.4146200E+04  0.9118800E+02  0.7546771E-02  0.1180000E+00
      -11   -1    0    0    0    0  0.00000000000E+00  0.00000000000E+00  0.34996269501E-01  0.35000000000E-01  0.51099999109E-03 0.  1.
       11   -1    0    0    0    0 -0.00000000000E+00 -0.00000000000E+00 -0.34996269501E-01  0.35000000000E-01  0.51099999109E-03 0. -1.
       22    1    1    2    0    0  0.52484346760E-03 -0.33079732137E-03 -0.34116814218E-01  0.34122454483E-01  0.00000000000E+00 0. -1.
       22    1    1    2    0    0  0.39588797888E-04  0.42072050778E-03 -0.82718384055E-03  0.92887357840E-03  0.00000000000E+00 0.  1.
       22    1    1    2    0    0 -0.56443226549E-03 -0.89923186406E-04  0.34943998059E-01  0.34948671939E-01  0.00000000000E+00 0.  1.
</event>
<event>
 5   0  0.4146200E+04  0.9118800E+02  0.7546771E-02  0.1180000E+00
      -11   -1    0    0    0    0  0.00000000000E+00  0.00000000000E+00  0.34996269501E-01  0.35000000000E-01  0.51099999109E-03 0.  1.
       11   -1    0    0    0    0 -0.00000000000E+00 -0.00000000000E+00 -0.34996269501E-01  0.35000000000E-01  0.51099999109E-03 0. -1.
       22    1    1    2    0    0  0.24323489401E-03  0.78515803287E-03  0.12633228297E-02  0.15071897433E-02  0.00000000000E+00 0.  1.
       22    1    1    2    0    0 -0.21855809610E-01 -0.60427188123E-02 -0.26483780582E-01  0.34865190352E-01  0.00000000000E+00 0. -1.
       22    1    1    2    0    0  0.21612574716E-01  0.52575607794E-02  0.25220457753E-01  0.33627619905E-01  0.00000000000E+00 0.  1.
</event>
<event>
 5   0  0.4146200E+04  0.9118800E+02  0.7546771E-02  0.1180000E+00
      -11   -1    0    0    0    0  0.00000000000E+00  0.00000000000E+00  0.34996269501E-01  0.35000000000E-01  0.51099999109E-03 0.  1.
       11   -1    0    0    0    0 -0.00000000000E+00 -0.00000000000E+00 -0.34996269501E-01  0.35000000000E-01  0.51099999109E-03 0. -1.
       22    1    1    2    0    0 -0.75169817157E-02  0.60113370268E-02 -0.33048291483E-01  0.34421370642E-01  0.00000000000E+00 0. -1.
       22    1    1    2    0    0  0.70281341042E-04 -0.23103716352E-03 -0.59365229149E-03  0.64089053747E-03  0.00000000000E+00 0.  1.
       22    1    1    2    0    0  0.74467003747E-02 -0.57802998633E-02  0.33641943774E-01  0.34937738820E-01  0.00000000000E+00 0.  1.
</event>
<event>
 5   0  0.4146200E+04  0.9118800E+02  0.7546771E-02  0.1180000E+00
      -11   -1    0    0    0    0  0.00000000000E+00  0.00000000000E+00  0.34996269501E-01  0.35000000000E-01  0.51099999109E-03 0.  1.
       11   -1    0    0    0    0 -0.00000000000E+00 -0.00000000000E+00 -0.34996269501E-01  0.35000000000E-01  0.51099999109E-03 0. -1.
       22    1    1    2    0    0  0.15399402120E-01 -0.31828458972E-02 -0.30940643004E-01  0.34707282855E-01  0.00000000000E+00 0. -1.
       22    1    1    2    0    0  0.49707781647E-03 -0.30100980101E-03  0.46522687406E-03  0.74439861652E-03  0.00000000000E+00 0.  1.
       22    1    1    2    0    0 -0.15896479937E-01  0.34838556982E-02  0.30475416129E-01  0.34548318529E-01  0.00000000000E+00 0.  1.
</event>
<event>
 5   0  0.4146200E+04  0.9118800E+02  0.7546771E-02  0.1180000E+00
      -11   -1    0    0    0    0  0.00000000000E+00  0.00000000000E+00  0.34996269501E-01  0.35000000000E-01  0.51099999109E-03 0. -1.
       11   -1    0    0    0    0 -0.00000000000E+00 -0.00000000000E+00 -0.34996269501E-01  0.35000000000E-01  0.51099999109E-03 0. -1.
       22    1    1    2    0    0  0.83627960600E-02  0.64054682355E-02 -0.14975003537E-01  0.18308935310E-01  0.00000000000E+00 0. -1.
       22    1    1    2    0    0 -0.80378830342E-02 -0.58632675782E-02 -0.17006692293E-01  0.19703122928E-01  0.00000000000E+00 0.  1.
       22    1    1    2    0    0 -0.32491302579E-03 -0.54220065732E-03  0.31981695830E-01  0.31987941762E-01  0.00000000000E+00 0. -1.
</event>
<event>
 5   0  0.4146200E+04  0.9118800E+02  0.7546771E-02  0.1180000E+00
      -11   -1    0    0    0    0  0.00000000000E+00  0.00000000000E+00  0.34996269501E-01  0.35000000000E-01  0.51099999109E-03 0.  1.
       11   -1    0    0    0    0 -0.00000000000E+00 -0.00000000000E+00 -0.34996269501E-01  0.35000000000E-01  0.51099999109E-03 0.  1.
       22    1    1    2    0    0  0.19054713566E-03 -0.36363257676E-03 -0.34031403325E-01  0.34033879431E-01  0.00000000000E+00 0.  1.
       22    1    1    2    0    0 -0.19054713566E-03  0.36363257676E-03 -0.92441903339E-03  0.10114778352E-02  0.00000000000E+00 0. -1.
       22    1    1    2    0    0 -0.00000000000E+00 -0.00000000000E+00  0.34955822358E-01  0.34954642734E-01  0.00000000000E+00 0.  1.
</event>
<event>
 5   0  0.4146200E+04  0.9118800E+02  0.7546771E-02  0.1180000E+00
      -11   -1    0    0    0    0  0.00000000000E+00  0.00000000000E+00  0.34996269501E-01  0.35000000000E-01  0.51099999109E-03 0.  1.
       11   -1    0    0    0    0 -0.00000000000E+00 -0.00000000000E+00 -0.34996269501E-01  0.35000000000E-01  0.51099999109E-03 0. -1.
       22    1    1    2    0    0  0.23171402877E-03  0.42407775449E-04 -0.57026481551E-03  0.61700224502E-03  0.00000000000E+00 0.  1.
       22    1    1    2    0    0  0.68356144610E-02  0.29563378434E-01  0.17013662175E-01  0.34787694233E-01  0.00000000000E+00 0.  1.
       22    1    1    2    0    0 -0.70673284898E-02 -0.29605786209E-01 -0.16443397359E-01  0.34595303522E-01  0.00000000000E+00 0. -1.
</event>
<event>
 5   0  0.4146200E+04  0.9118800E+02  0.7546771E-02  0.1180000E+00
      -11   -1    0    0    0    0  0.00000000000E+00  0.00000000000E+00  0.34996269501E-01  0.35000000000E-01  0.51099999109E-03 0. -1.
       11   -1    0    0    0    0 -0.00000000000E+00 -0.00000000000E+00 -0.34996269501E-01  0.35000000000E-01  0.51099999109E-03 0.  1.
       22    1    1    2    0    0 -0.20827613062E-02  0.74778967033E-02  0.19223733358E-01  0.20731829586E-01  0.00000000000E+00 0. -1.
       22    1    1    2    0    0  0.45652198840E-02 -0.16602891847E-01 -0.30209834292E-01  0.34772565884E-01  0.00000000000E+00 0.  1.
       22    1    1    2    0    0 -0.24824585777E-02  0.91249951434E-02  0.10986100934E-01  0.14495604530E-01  0.00000000000E+00 0. -1.
</event>
<event>
 5   0  0.4146200E+04  0.9118800E+02  0.7546771E-02  0.1180000E+00
      -11   -1    0    0    0    0  0.00000000000E+00  0.00000000000E+00  0.34996269501E-01  0.35000000000E-01  0.51099999109E-03 0.  1.
       11   -1    0    0    0    0 -0.00000000000E+00 -0.00000000000E+00 -0.34996269501E-01  0.35000000000E-01  0.51099999109E-03 0. -1.
       22    1    1    2    0    0 -0.68399519651E-02 -0.25301308661E-02 -0.32745141994E-01  0.33547441471E-01  0.00000000000E+00 0. -1.
       22    1    1    2    0    0  0.65763240525E-03  0.72001959284E-03 -0.13994047130E-02  0.17056500653E-02  0.00000000000E+00 0. -1.
       22    1    1    2    0    0  0.61823195599E-02  0.18101112732E-02  0.34144546707E-01  0.34746908463E-01  0.00000000000E+00 0.  1.
</event>
<event>
 5   0  0.4146200E+04  0.9118800E+02  0.7546771E-02  0.1180000E+00
      -11   -1    0    0    0    0  0.00000000000E+00  0.00000000000E+00  0.34996269501E-01  0.35000000000E-01  0.51099999109E-03 0. -1.
       11   -1    0    0    0    0 -0.00000000000E+00 -0.00000000000E+00 -0.34996269501E-01  0.35000000000E-01  0.51099999109E-03 0.  1.
       22    1    1    2    0    0 -0.43771337924E-02 -0.19253258056E-01  0.96780721311E-02  0.21988913711E-01  0.00000000000E+00 0. -1.
       22    1    1    2    0    0 -0.15903034966E-03 -0.20664823542E-03  0.15704811633E-01  0.15706976239E-01  0.00000000000E+00 0. -1.
       22    1    1    2    0    0  0.45361641421E-02  0.19459906291E-01 -0.25382883764E-01  0.32304110051E-01  0.00000000000E+00 0.  1.
</event>
<event>
 5   0  0.4146200E+04  0.9118800E+02  0.7546771E-02  0.1180000E+00
      -11   -1    0    0    0    0  0.00000000000E+00  0.00000000000E+00  0.34996269501E-01  0.35000000000E-01  0.51099999109E-03 0. -1.
       11   -1    0    0    0    0 -0.00000000000E+00 -0.00000000000E+00 -0.34996269501E-01  0.35000000000E-01  0.51099999109E-03 0.  1.
       22    1    1    2    0    0  0.19079122141E-02 -0.27593169408E-02 -0.94480035881E-02  0.10025902992E-01  0.00000000000E+00 0. -1.
       22    1    1    2    0    0 -0.14982004169E-02 -0.22646632594E-02 -0.25006161341E-01  0.25153159029E-01  0.00000000000E+00 0.  1.
       22    1    1    2    0    0 -0.40971179719E-03  0.50239802002E-02  0.34454164929E-01  0.34820937979E-01  0.00000000000E+00 0. -1.
</event>
<event>
 5   0  0.4146200E+04  0.9118800E+02  0.7546771E-02  0.1180000E+00
      -11   -1    0    0    0    0  0.00000000000E+00  0.00000000000E+00  0.34996269501E-01  0.35000000000E-01  0.51099999109E-03 0.  1.
       11   -1    0    0    0    0 -0.00000000000E+00 -0.00000000000E+00 -0.34996269501E-01  0.35000000000E-01  0.51099999109E-03 0. -1.
       22    1    1    2    0    0 -0.42347536813E-02  0.13533337931E-01 -0.31798475080E-01  0.34817056046E-01  0.00000000000E+00 0. -1.
       22    1    1    2    0    0  0.43309354170E-02 -0.13575771476E-01  0.28321236427E-01  0.31704116538E-01  0.00000000000E+00 0.  1.
       22    1    1    2    0    0 -0.96181735732E-04  0.42433544020E-04  0.34772386535E-02  0.34788274153E-02  0.00000000000E+00 0.  1.
</event>
<event>
 5   0  0.4146200E+04  0.9118800E+02  0.7546771E-02  0.1180000E+00
      -11   -1    0    0    0    0  0.00000000000E+00  0.00000000000E+00  0.34996269501E-01  0.35000000000E-01  0.51099999109E-03 0. -1.
       11   -1    0    0    0    0 -0.00000000000E+00 -0.00000000000E+00 -0.34996269501E-01  0.35000000000E-01  0.51099999109E-03 0.  1.
       22    1    1    2    0    0  0.60669871502E-02  0.47057397785E-02 -0.29592862889E-01  0.30572697852E-01  0.00000000000E+00 0.  1.
       22    1    1    2    0    0 -0.32136636786E-02 -0.63309195344E-02  0.33545508750E-01  0.34288618136E-01  0.00000000000E+00 0. -1.
       22    1    1    2    0    0 -0.28533234716E-02  0.16251797559E-02 -0.39526458607E-02  0.51386840118E-02  0.00000000000E+00 0.  1.
</event>
<event>
 5   0  0.4146200E+04  0.9118800E+02  0.7546771E-02  0.1180000E+00
      -11   -1    0    0    0    0  0.00000000000E+00  0.00000000000E+00  0.34996269501E-01  0.35000000000E-01  0.51099999109E-03 0. -1.
       11   -1    0    0    0    0 -0.00000000000E+00 -0.00000000000E+00 -0.34996269501E-01  0.35000000000E-01  0.51099999109E-03 0.  1.
       22    1    1    2    0    0 -0.19250119316E-01  0.41564135590E-02 -0.26717103813E-01  0.33191060597E-01  0.00000000000E+00 0.  1.
       22    1    1    2    0    0  0.19739821816E-01 -0.42881139860E-02  0.28512687055E-01  0.34943122499E-01  0.00000000000E+00 0. -1.
       22    1    1    2    0    0 -0.48970249960E-03  0.13170042702E-03 -0.17955832420E-02  0.18658169041E-02  0.00000000000E+00 0. -1.
</event>
<event>
 5   0  0.4146200E+04  0.9118800E+02  0.7546771E-02  0.1180000E+00
      -11   -1    0    0    0    0  0.00000000000E+00  0.00000000000E+00  0.34996269501E-01  0.35000000000E-01  0.51099999109E-03 0. -1.
       11   -1    0    0    0    0 -0.00000000000E+00 -0.00000000000E+00 -0.34996269501E-01  0.35000000000E-01  0.51099999109E-03 0.  1.
       22    1    1    2    0    0 -0.18662033901E-03 -0.42768091316E-03  0.34930552624E-01  0.34933669214E-01  0.00000000000E+00 0. -1.
       22    1    1    2    0    0 -0.23611629484E-03 -0.31071984108E-03 -0.54533475320E-03  0.67058759113E-03  0.00000000000E+00 0. -1.
       22    1    1    2    0    0  0.42273663385E-03  0.73840075425E-03 -0.34385217871E-01  0.34395743195E-01  0.00000000000E+00 0.  1.
</event>
<event>
 5   0  0.4146200E+04  0.9118800E+02  0.7546771E-02  0.1180000E+00
      -11   -1    0    0    0    0  0.00000000000E+00  0.00000000000E+00  0.34996269501E-01  0.35000000000E-01  0.51099999109E-03 0.  1.
       11   -1    0    0    0    0 -0.00000000000E+00 -0.00000000000E+00 -0.34996269501E-01  0.35000000000E-01  0.51099999109E-03 0. -1.
       22    1    1    2    0    0 -0.17291401949E-02  0.31567070378E-02  0.10663688218E-01  0.11254731074E-01  0.00000000000E+00 0.  1.
       22    1    1    2    0    0 -0.17673101594E-03  0.87043542723E-02  0.22151122178E-01  0.23800614087E-01  0.00000000000E+00 0.  1.
       22    1    1    2    0    0  0.19058712108E-02 -0.11861061310E-01 -0.32814810396E-01  0.34944654839E-01  0.00000000000E+00 0. -1.
</event>
<event>
 5   0  0.4146200E+04  0.9118800E+02  0.7546771E-02  0.1180000E+00
      -11   -1    0    0    0    0  0.00000000000E+00  0.00000000000E+00  0.34996269501E-01  0.35000000000E-01  0.51099999109E-03 0.  1.
       11   -1    0    0    0    0 -0.00000000000E+00 -0.00000000000E+00 -0.34996269501E-01  0.35000000000E-01  0.51099999109E-03 0. -1.
       22    1    1    2    0    0  0.23444434805E-03  0.25316777530E-03  0.32721995439E-03  0.47553230525E-03  0.00000000000E+00 0. -1.
       22    1    1    2    0    0  0.19254430584E-01  0.51456425702E-02  0.28215019815E-01  0.34544146794E-01  0.00000000000E+00 0.  1.
       22    1    1    2    0    0 -0.19488874933E-01 -0.53988103455E-02 -0.28542239769E-01  0.34980320901E-01  0.00000000000E+00 0. -1.
</event>
<event>
 5   0  0.4146200E+04  0.9118800E+02  0.7546771E-02  0.1180000E+00
      -11   -1    0    0    0    0  0.00000000000E+00  0.00000000000E+00  0.34996269501E-01  0.35000000000E-01  0.51099999109E-03 0. -1.
       11   -1    0    0    0    0 -0.00000000000E+00 -0.00000000000E+00 -0.34996269501E-01  0.35000000000E-01  0.51099999109E-03 0. -1.
       22    1    1    2    0    0 -0.70219859521E-02  0.58620576245E-02 -0.13812690969E-01  0.16566907922E-01  0.00000000000E+00 0.  1.
       22    1    1    2    0    0  0.67283507152E-02 -0.62736555813E-02 -0.18740128053E-01  0.20876346835E-01  0.00000000000E+00 0. -1.
       22    1    1    2    0    0  0.29363523692E-03  0.41159795671E-03  0.32552819022E-01  0.32556745243E-01  0.00000000000E+00 0. -1.
</event>
<event>
 5   0  0.4146200E+04  0.9118800E+02  0.7546771E-02  0.1180000E+00
      -11   -1    0    0    0    0  0.00000000000E+00  0.00000000000E+00  0.34996269501E-01  0.35000000000E-01  0.51099999109E-03 0.  1.
       11   -1    0    0    0    0 -0.00000000000E+00 -0.00000000000E+00 -0.34996269501E-01  0.35000000000E-01  0.51099999109E-03 0. -1.
       22    1    1    2    0    0 -0.25251492193E-01 -0.27807823454E-02  0.16872863251E-01  0.30496952679E-01  0.00000000000E+00 0.  1.
       22    1    1    2    0    0 -0.16105353524E-02 -0.38980120217E-02 -0.10189315222E-01  0.11027713568E-01  0.00000000000E+00 0. -1.
       22    1    1    2    0    0  0.26862027545E-01  0.66787943671E-02 -0.66835480292E-02  0.28475333752E-01  0.00000000000E+00 0. -1.
</event>
<event>
 5   0  0.4146200E+04  0.9118800E+02  0.7546771E-02  0.1180000E+00
      -11   -1    0    0    0    0  0.00000000000E+00  0.00000000000E+00  0.34996269501E-01  0.35000000000E-01  0.51099999109E-03 0.  1.
       11   -1    0    0    0    0 -0.00000000000E+00 -0.00000000000E+00 -0.34996269501E-01  0.35000000000E-01  0.51099999109E-03 0. -1.
       22    1    1    2    0    0  0.25926061873E-02  0.54259345126E-03  0.26676956708E-01  0.26808133722E-01  0.00000000000E+00 0.  1.
       22    1    1    2    0    0 -0.10294372561E-01  0.69306458165E-02 -0.29577285791E-01  0.32075283204E-01  0.00000000000E+00 0. -1.
       22    1    1    2    0    0  0.77017663738E-02 -0.74732392678E-02  0.29003290836E-02  0.11116583073E-01  0.00000000000E+00 0.  1.
</event>
<event>
 5   0  0.4146200E+04  0.9118800E+02  0.7546771E-02  0.1180000E+00
      -11   -1    0    0    0    0  0.00000000000E+00  0.00000000000E+00  0.34996269501E-01  0.35000000000E-01  0.51099999109E-03 0. -1.
       11   -1    0    0    0    0 -0.00000000000E+00 -0.00000000000E+00 -0.34996269501E-01  0.35000000000E-01  0.51099999109E-03 0.  1.
       22    1    1    2    0    0  0.15725401902E-02  0.13085868764E-01  0.26802655009E-01  0.29867962091E-01  0.00000000000E+00 0. -1.
       22    1    1    2    0    0 -0.16914416585E-02 -0.13161248842E-01 -0.32151075997E-01  0.34781764385E-01  0.00000000000E+00 0.  1.
       22    1    1    2    0    0  0.11890146829E-03  0.75380078369E-04  0.53484209878E-02  0.53502735237E-02  0.00000000000E+00 0. -1.
</event>
<event>
 5   0  0.4146200E+04  0.9118800E+02  0.7546771E-02  0.1180000E+00
      -11   -1    0    0    0    0  0.00000000000E+00  0.00000000000E+00  0.34996269501E-01  0.35000000000E-01  0.51099999109E-03 0.  1.
       11   -1    0    0    0    0 -0.00000000000E+00 -0.00000000000E+00 -0.34996269501E-01  0.35000000000E-01  0.51099999109E-03 0. -1.
       22    1    1    2    0    0  0.69493340510E-02  0.71038389839E-03  0.33578069606E-01  0.34297006392E-01  0.00000000000E+00 0.  1.
       22    1    1    2    0    0 -0.54610071214E-04 -0.21787804595E-02 -0.22278294839E-01  0.22384648478E-01  0.00000000000E+00 0. -1.
       22    1    1    2    0    0 -0.68947239797E-02  0.14683965611E-02 -0.11299774767E-01  0.13318345130E-01  0.00000000000E+00 0. -1.
</event>
<event>
 5   0  0.4146200E+04  0.9118800E+02  0.7546771E-02  0.1180000E+00
      -11   -1    0    0    0    0  0.00000000000E+00  0.00000000000E+00  0.34996269501E-01  0.35000000000E-01  0.51099999109E-03 0. -1.
       11   -1    0    0    0    0 -0.00000000000E+00 -0.00000000000E+00 -0.34996269501E-01  0.35000000000E-01  0.51099999109E-03 0.  1.
       22    1    1    2    0    0 -0.22670632150E-01  0.46882085254E-02  0.25875714467E-01  0.34720159280E-01  0.00000000000E+00 0. -1.
       22    1    1    2    0    0  0.22681644571E-01 -0.52050326389E-02 -0.25820661727E-01  0.34759976082E-01  0.00000000000E+00 0.  1.
       22    1    1    2    0    0 -0.11012420753E-04  0.51682411350E-03 -0.55052740114E-04  0.51986463806E-03  0.00000000000E+00 0. -1.
</event>
<event>
 5   0  0.4146200E+04  0.9118800E+02  0.7546771E-02  0.1180000E+00
      -11   -1    0    0    0    0  0.00000000000E+00  0.00000000000E+00  0.34996269501E-01  0.35000000000E-01  0.51099999109E-03 0. -1.
       11   -1    0    0    0    0 -0.00000000000E+00 -0.00000000000E+00 -0.34996269501E-01  0.35000000000E-01  0.51099999109E-03 0.  1.
       22    1    1    2    0    0  0.91872754224E-03  0.12788085559E-02 -0.24901348633E-02  0.29462150731E-02  0.00000000000E+00 0. -1.
       22    1    1    2    0    0  0.16607978443E-01  0.57903981446E-02 -0.26883368534E-01  0.32125833256E-01  0.00000000000E+00 0.  1.
       22    1    1    2    0    0 -0.17526705985E-01 -0.70692067006E-02  0.29373503398E-01  0.34927951671E-01  0.00000000000E+00 0. -1.
</event>
<event>
 5   0  0.4146200E+04  0.9118800E+02  0.7546771E-02  0.1180000E+00
      -11   -1    0    0    0    0  0.00000000000E+00  0.00000000000E+00  0.34996269501E-01  0.35000000000E-01  0.51099999109E-03 0. -1.
       11   -1    0    0    0    0 -0.00000000000E+00 -0.00000000000E+00 -0.34996269501E-01  0.35000000000E-01  0.51099999109E-03 0.  1.
       22    1    1    2    0    0 -0.11903203093E-01  0.49276119310E-03  0.32862657351E-01  0.34955447439E-01  0.00000000000E+00 0. -1.
       22    1    1    2    0    0 -0.59099126058E-04 -0.33447018407E-04 -0.10802374540E-02  0.10823697920E-02  0.00000000000E+00 0.  1.
       22    1    1    2    0    0  0.11962302219E-01 -0.45931417469E-03 -0.31782419897E-01  0.33962182769E-01  0.00000000000E+00 0.  1.
</event>
<event>
 5   0  0.4146200E+04  0.9118800E+02  0.7546771E-02  0.1180000E+00
      -11   -1    0    0    0    0  0.00000000000E+00  0.00000000000E+00  0.34996269501E-01  0.35000000000E-01  0.51099999109E-03 0. -1.
       11   -1    0    0    0    0 -0.00000000000E+00 -0.00000000000E+00 -0.34996269501E-01  0.35000000000E-01  0.51099999109E-03 0.  1.
       22    1    1    2    0    0 -0.18276747312E-01 -0.37487255979E-02 -0.25014718114E-01  0.31206226273E-01  0.00000000000E+00 0.  1.
       22    1    1    2    0    0  0.49794464450E-03 -0.21819968583E-02 -0.38058953321E-02  0.44151895132E-02  0.00000000000E+00 0. -1.
       22    1    1    2    0    0  0.17778802667E-01  0.59307224563E-02  0.28820613446E-01  0.34378584214E-01  0.00000000000E+00 0. -1.
</event>
<event>
 5   0  0.4146200E+04  0.9118800E+02  0.7546771E-02  0.1180000E+00
      -11   -1    0    0    0    0  0.00000000000E+00  0.00000000000E+00  0.34996269501E-01  0.35000000000E-01  0.51099999109E-03 0. -1.
       11   -1    0    0    0    0 -0.00000000000E+00 -0.00000000000E+00 -0.34996269501E-01  0.35000000000E-01  0.51099999109E-03 0.  1.
       22    1    1    2    0    0  0.99287966588E-02 -0.87503468766E-03 -0.28716451467E-01  0.30397060280E-01  0.00000000000E+00 0.  1.
       22    1    1    2    0    0  0.41742409347E-02 -0.20732586914E-02 -0.24513355004E-02  0.52660929272E-02  0.00000000000E+00 0.  1.
       22    1    1    2    0    0 -0.14103037594E-01  0.29482933790E-02  0.31167786968E-01  0.34336846793E-01  0.00000000000E+00 0. -1.
</event>
<event>
 5   0  0.4146200E+04  0.9118800E+02  0.7546771E-02  0.1180000E+00
      -11   -1    0    0    0    0  0.00000000000E+00  0.00000000000E+00  0.34996269501E-01  0.35000000000E-01  0.51099999109E-03 0. -1.
       11   -1    0    0    0    0 -0.00000000000E+00 -0.00000000000E+00 -0.34996269501E-01  0.35000000000E-01  0.51099999109E-03 0.  1.
       22    1    1    2    0    0 -0.43020685570E-02  0.85226778156E-02  0.18847165200E-02  0.97311863295E-02  0.00000000000E+00 0. -1.
       22    1    1    2    0    0  0.75750762965E-02  0.72404206118E-02 -0.27828350857E-01  0.29735880397E-01  0.00000000000E+00 0.  1.
       22    1    1    2    0    0 -0.32730077395E-02 -0.15763098427E-01  0.25943634337E-01  0.30532933274E-01  0.00000000000E+00 0. -1.
</event>
<event>
 5   0  0.4146200E+04  0.9118800E+02  0.7546771E-02  0.1180000E+00
      -11   -1    0    0    0    0  0.00000000000E+00  0.00000000000E+00  0.34996269501E-01  0.35000000000E-01  0.51099999109E-03 0.  1.
       11   -1    0    0    0    0 -0.00000000000E+00 -0.00000000000E+00 -0.34996269501E-01  0.35000000000E-01  0.51099999109E-03 0. -1.
       22    1    1    2    0    0  0.41422977910E-02 -0.26050507807E-02  0.91612760267E-03  0.49783742672E-02  0.00000000000E+00 0.  1.
       22    1    1    2    0    0 -0.12084569033E-01  0.48288006915E-02 -0.31109660509E-01  0.33721878681E-01  0.00000000000E+00 0. -1.
       22    1    1    2    0    0  0.79422712422E-02 -0.22237499109E-02  0.30193532906E-01  0.31299747052E-01  0.00000000000E+00 0.  1.
</event>
<event>
 5   0  0.4146200E+04  0.9118800E+02  0.7546771E-02  0.1180000E+00
      -11   -1    0    0    0    0  0.00000000000E+00  0.00000000000E+00  0.34996269501E-01  0.35000000000E-01  0.51099999109E-03 0. -1.
       11   -1    0    0    0    0 -0.00000000000E+00 -0.00000000000E+00 -0.34996269501E-01  0.35000000000E-01  0.51099999109E-03 0.  1.
       22    1    1    2    0    0 -0.46152089704E-02  0.11759585140E-02  0.69004497182E-02  0.83844641201E-02  0.00000000000E+00 0. -1.
       22    1    1    2    0    0 -0.20480451505E-02  0.12198644578E-01  0.24162997974E-01  0.27145015926E-01  0.00000000000E+00 0. -1.
       22    1    1    2    0    0  0.66632541209E-02 -0.13374603093E-01 -0.31063447693E-01  0.34470519954E-01  0.00000000000E+00 0.  1.
</event>
<event>
 5   0  0.4146200E+04  0.9118800E+02  0.7546771E-02  0.1180000E+00
      -11   -1    0    0    0    0  0.00000000000E+00  0.00000000000E+00  0.34996269501E-01  0.35000000000E-01  0.51099999109E-03 0. -1.
       11   -1    0    0    0    0 -0.00000000000E+00 -0.00000000000E+00 -0.34996269501E-01  0.35000000000E-01  0.51099999109E-03 0.  1.
       22    1    1    2    0    0  0.18366691624E-02 -0.19879348135E-02 -0.44233430043E-02  0.51856727401E-02  0.00000000000E+00 0.  1.
       22    1    1    2    0    0 -0.20303875575E-03  0.23680772889E-02 -0.30128346806E-01  0.30221950566E-01  0.00000000000E+00 0.  1.
       22    1    1    2    0    0 -0.16336304066E-02 -0.38014247541E-03  0.34551689810E-01  0.34592376694E-01  0.00000000000E+00 0. -1.
</event>
<event>
 5   0  0.4146200E+04  0.9118800E+02  0.7546771E-02  0.1180000E+00
      -11   -1    0    0    0    0  0.00000000000E+00  0.00000000000E+00  0.34996269501E-01  0.35000000000E-01  0.51099999109E-03 0. -1.
       11   -1    0    0    0    0 -0.00000000000E+00 -0.00000000000E+00 -0.34996269501E-01  0.35000000000E-01  0.51099999109E-03 0.  1.
       22    1    1    2    0    0  0.39027167266E-02 -0.92892768564E-02  0.33256165019E-01  0.34749019758E-01  0.00000000000E+00 0. -1.
       22    1    1    2    0    0 -0.42774039709E-02  0.99160308901E-02 -0.32232974942E-01  0.33993948387E-01  0.00000000000E+00 0.  1.
       22    1    1    2    0    0  0.37468724429E-03 -0.62675403373E-03 -0.10231900771E-02  0.12570318547E-02  0.00000000000E+00 0.  1.
</event>
<event>
 5   0  0.4146200E+04  0.9118800E+02  0.7546771E-02  0.1180000E+00
      -11   -1    0    0    0    0  0.00000000000E+00  0.00000000000E+00  0.34996269501E-01  0.35000000000E-01  0.51099999109E-03 0.  1.
       11   -1    0    0    0    0 -0.00000000000E+00 -0.00000000000E+00 -0.34996269501E-01  0.35000000000E-01  0.51099999109E-03 0. -1.
       22    1    1    2    0    0  0.54723912885E-03  0.20261172959E-03  0.46014212830E-03  0.74313723857E-03  0.00000000000E+00 0. -1.
       22    1    1    2    0    0 -0.12063389913E-01 -0.33023293871E-02  0.32169892996E-01  0.34515688765E-01  0.00000000000E+00 0.  1.
       22    1    1    2    0    0  0.11516150784E-01  0.30997176575E-02 -0.32630035124E-01  0.34741173996E-01  0.00000000000E+00 0. -1.
</event>
<event>
 5   0  0.4146200E+04  0.9118800E+02  0.7546771E-02  0.1180000E+00
      -11   -1    0    0    0    0  0.00000000000E+00  0.00000000000E+00  0.34996269501E-01  0.35000000000E-01  0.51099999109E-03 0. -1.
       11   -1    0    0    0    0 -0.00000000000E+00 -0.00000000000E+00 -0.34996269501E-01  0.35000000000E-01  0.51099999109E-03 0.  1.
       22    1    1    2    0    0 -0.30690762653E-04 -0.30798060315E-04  0.11672380077E-02  0.11680475205E-02  0.00000000000E+00 0. -1.
       22    1    1    2    0    0  0.99918139074E-02  0.12778962631E-01  0.29779757222E-01  0.33911239601E-01  0.00000000000E+00 0. -1.
       22    1    1    2    0    0 -0.99611231448E-02 -0.12748164571E-01 -0.30946995229E-01  0.34920712879E-01  0.00000000000E+00 0.  1.
</event>
<event>
 5   0  0.4146200E+04  0.9118800E+02  0.7546771E-02  0.1180000E+00
      -11   -1    0    0    0    0  0.00000000000E+00  0.00000000000E+00  0.34996269501E-01  0.35000000000E-01  0.51099999109E-03 0.  1.
       11   -1    0    0    0    0 -0.00000000000E+00 -0.00000000000E+00 -0.34996269501E-01  0.35000000000E-01  0.51099999109E-03 0.  1.
       22    1    1    2    0    0  0.00000000000E+00  0.00000000000E+00  0.34403509406E-01  0.34403314733E-01  0.00000000000E+00 0.  1.
       22    1    1    2    0    0  0.85259212498E-03 -0.42831054173E-02 -0.11963403504E-01  0.12735577283E-01  0.00000000000E+00 0. -1.
       22    1    1    2    0    0 -0.85259212498E-03  0.42831054173E-02 -0.22440105902E-01  0.22861107984E-01  0.00000000000E+00 0.  1.
</event>
<event>
 5   0  0.4146200E+04  0.9118800E+02  0.7546771E-02  0.1180000E+00
      -11   -1    0    0    0    0  0.00000000000E+00  0.00000000000E+00  0.34996269501E-01  0.35000000000E-01  0.51099999109E-03 0.  1.
       11   -1    0    0    0    0 -0.00000000000E+00 -0.00000000000E+00 -0.34996269501E-01  0.35000000000E-01  0.51099999109E-03 0.  1.
       22    1    1    2    0    0 -0.00000000000E+00 -0.00000000000E+00  0.34961376304E-01  0.34960077012E-01  0.00000000000E+00 0.  1.
       22    1    1    2    0    0 -0.27856917978E-03 -0.53033161584E-04 -0.48090548060E-03  0.55828611430E-03  0.00000000000E+00 0. -1.
       22    1    1    2    0    0  0.27856917978E-03  0.53033161584E-04 -0.34480470823E-01  0.34481636874E-01  0.00000000000E+00 0.  1.
</event>
<event>
 5   0  0.4146200E+04  0.9118800E+02  0.7546771E-02  0.1180000E+00
      -11   -1    0    0    0    0  0.00000000000E+00  0.00000000000E+00  0.34996269501E-01  0.35000000000E-01  0.51099999109E-03 0.  1.
       11   -1    0    0    0    0 -0.00000000000E+00 -0.00000000000E+00 -0.34996269501E-01  0.35000000000E-01  0.51099999109E-03 0. -1.
       22    1    1    2    0    0 -0.15875007350E-01 -0.77737361797E-02  0.29797387363E-01  0.34645795217E-01  0.00000000000E+00 0.  1.
       22    1    1    2    0    0  0.16443128822E-01  0.78314278829E-02 -0.29591551900E-01  0.34747196894E-01  0.00000000000E+00 0. -1.
       22    1    1    2    0    0 -0.56812147168E-03 -0.57691703290E-04 -0.20583546357E-03  0.60700788898E-03  0.00000000000E+00 0. -1.
</event>
<event>
 5   0  0.4146200E+04  0.9118800E+02  0.7546771E-02  0.1180000E+00
      -11   -1    0    0    0    0  0.00000000000E+00  0.00000000000E+00  0.34996269501E-01  0.35000000000E-01  0.51099999109E-03 0. -1.
       11   -1    0    0    0    0 -0.00000000000E+00 -0.00000000000E+00 -0.34996269501E-01  0.35000000000E-01  0.51099999109E-03 0. -1.
       22    1    1    2    0    0 -0.16108807116E-02 -0.20871824540E-02 -0.30274174826E-01  0.30388763197E-01  0.00000000000E+00 0. -1.
       22    1    1    2    0    0  0.31525661057E-03 -0.14005987712E-03  0.34586248039E-01  0.34587968384E-01  0.00000000000E+00 0. -1.
       22    1    1    2    0    0  0.12956241011E-02  0.22272423311E-02 -0.43120732135E-02  0.50232684192E-02  0.00000000000E+00 0.  1.
</event>
<event>
 5   0  0.4146200E+04  0.9118800E+02  0.7546771E-02  0.1180000E+00
      -11   -1    0    0    0    0  0.00000000000E+00  0.00000000000E+00  0.34996269501E-01  0.35000000000E-01  0.51099999109E-03 0.  1.
       11   -1    0    0    0    0 -0.00000000000E+00 -0.00000000000E+00 -0.34996269501E-01  0.35000000000E-01  0.51099999109E-03 0. -1.
       22    1    1    2    0    0 -0.56616823615E-02 -0.11230853052E-02  0.21349562966E-01  0.22116053143E-01  0.00000000000E+00 0.  1.
       22    1    1    2    0    0 -0.80053395539E-02 -0.66774904647E-02  0.89512928492E-02  0.13740450646E-01  0.00000000000E+00 0.  1.
       22    1    1    2    0    0  0.13667021915E-01  0.78005757698E-02 -0.30300855816E-01  0.34143496211E-01  0.00000000000E+00 0. -1.
</event>
<event>
 5   0  0.4146200E+04  0.9118800E+02  0.7546771E-02  0.1180000E+00
      -11   -1    0    0    0    0  0.00000000000E+00  0.00000000000E+00  0.34996269501E-01  0.35000000000E-01  0.51099999109E-03 0. -1.
       11   -1    0    0    0    0 -0.00000000000E+00 -0.00000000000E+00 -0.34996269501E-01  0.35000000000E-01  0.51099999109E-03 0.  1.
       22    1    1    2    0    0 -0.60814173419E-02  0.17942670984E-02 -0.16238207154E-01  0.17432223119E-01  0.00000000000E+00 0. -1.
       22    1    1    2    0    0  0.11058909326E-01 -0.31102284457E-02 -0.16124389318E-01  0.19798205155E-01  0.00000000000E+00 0.  1.
       22    1    1    2    0    0 -0.49774919841E-02  0.13159613473E-02  0.32362596472E-01  0.32769571726E-01  0.00000000000E+00 0. -1.
</event>
<event>
 5   0  0.4146200E+04  0.9118800E+02  0.7546771E-02  0.1180000E+00
      -11   -1    0    0    0    0  0.00000000000E+00  0.00000000000E+00  0.34996269501E-01  0.35000000000E-01  0.51099999109E-03 0.  1.
       11   -1    0    0    0    0 -0.00000000000E+00 -0.00000000000E+00 -0.34996269501E-01  0.35000000000E-01  0.51099999109E-03 0. -1.
       22    1    1    2    0    0  0.10116981512E-03 -0.75888328234E-04 -0.13461833381E-02  0.13521109236E-02  0.00000000000E+00 0. -1.
       22    1    1    2    0    0  0.15125172036E-01 -0.12580461332E-01 -0.27407023883E-01  0.33736979630E-01  0.00000000000E+00 0. -1.
       22    1    1    2    0    0 -0.15226341851E-01  0.12656349660E-01  0.28753207221E-01  0.34910909446E-01  0.00000000000E+00 0.  1.
</event>
<event>
 5   0  0.4146200E+04  0.9118800E+02  0.7546771E-02  0.1180000E+00
      -11   -1    0    0    0    0  0.00000000000E+00  0.00000000000E+00  0.34996269501E-01  0.35000000000E-01  0.51099999109E-03 0. -1.
       11   -1    0    0    0    0 -0.00000000000E+00 -0.00000000000E+00 -0.34996269501E-01  0.35000000000E-01  0.51099999109E-03 0.  1.
       22    1    1    2    0    0 -0.79063935608E-02  0.11074913036E-01  0.30911669037E-01  0.33774191930E-01  0.00000000000E+00 0. -1.
       22    1    1    2    0    0 -0.25373590840E-04  0.39485710767E-04  0.12681023962E-02  0.12689706961E-02  0.00000000000E+00 0.  1.
       22    1    1    2    0    0  0.79317671517E-02 -0.11114398746E-01 -0.32179771433E-01  0.34956837373E-01  0.00000000000E+00 0.  1.
</event>
<event>
 5   0  0.4146200E+04  0.9118800E+02  0.7546771E-02  0.1180000E+00
      -11   -1    0    0    0    0  0.00000000000E+00  0.00000000000E+00  0.34996269501E-01  0.35000000000E-01  0.51099999109E-03 0.  1.
       11   -1    0    0    0    0 -0.00000000000E+00 -0.00000000000E+00 -0.34996269501E-01  0.35000000000E-01  0.51099999109E-03 0. -1.
       22    1    1    2    0    0 -0.90129552243E-03 -0.35011276269E-03 -0.34303013716E-01  0.34316638276E-01  0.00000000000E+00 0. -1.
       22    1    1    2    0    0 -0.26725010633E-03  0.84795846002E-04 -0.65100138673E-03  0.70881292339E-03  0.00000000000E+00 0. -1.
       22    1    1    2    0    0  0.11685456288E-02  0.26531691668E-03  0.34954015103E-01  0.34974548800E-01  0.00000000000E+00 0.  1.
</event>
<event>
 5   0  0.4146200E+04  0.9118800E+02  0.7546771E-02  0.1180000E+00
      -11   -1    0    0    0    0  0.00000000000E+00  0.00000000000E+00  0.34996269501E-01  0.35000000000E-01  0.51099999109E-03 0. -1.
       11   -1    0    0    0    0 -0.00000000000E+00 -0.00000000000E+00 -0.34996269501E-01  0.35000000000E-01  0.51099999109E-03 0.  1.
       22    1    1    2    0    0  0.61395769506E-02  0.12191465818E-01 -0.30971057082E-01  0.33845717908E-01  0.00000000000E+00 0.  1.
       22    1    1    2    0    0 -0.61633378202E-02 -0.13378369193E-01  0.18598568865E-01  0.23724971216E-01  0.00000000000E+00 0. -1.
       22    1    1    2    0    0  0.23760869588E-04  0.11869033756E-02  0.12372488217E-01  0.12429310877E-01  0.00000000000E+00 0. -1.
</event>
<event>
 5   0  0.4146200E+04  0.9118800E+02  0.7546771E-02  0.1180000E+00
      -11   -1    0    0    0    0  0.00000000000E+00  0.00000000000E+00  0.34996269501E-01  0.35000000000E-01  0.51099999109E-03 0.  1.
       11   -1    0    0    0    0 -0.00000000000E+00 -0.00000000000E+00 -0.34996269501E-01  0.35000000000E-01  0.51099999109E-03 0. -1.
       22    1    1    2    0    0  0.58772379885E-02 -0.93211354754E-02 -0.30756612546E-01  0.32671007150E-01  0.00000000000E+00 0. -1.
       22    1    1    2    0    0  0.25396418891E-03  0.73524467179E-04 -0.23745762734E-02  0.23892501197E-02  0.00000000000E+00 0. -1.
       22    1    1    2    0    0 -0.61312021774E-02  0.92476110082E-02  0.33131188819E-01  0.34939742730E-01  0.00000000000E+00 0.  1.
</event>
<event>
 5   0  0.4146200E+04  0.9118800E+02  0.7546771E-02  0.1180000E+00
      -11   -1    0    0    0    0  0.00000000000E+00  0.00000000000E+00  0.34996269501E-01  0.35000000000E-01  0.51099999109E-03 0. -1.
       11   -1    0    0    0    0 -0.00000000000E+00 -0.00000000000E+00 -0.34996269501E-01  0.35000000000E-01  0.51099999109E-03 0.  1.
       22    1    1    2    0    0 -0.83904785993E-02 -0.96653611288E-03  0.33681317666E-01  0.34724134012E-01  0.00000000000E+00 0. -1.
       22    1    1    2    0    0  0.66157260008E-03 -0.19813610177E-02 -0.48352714614E-02  0.52671927906E-02  0.00000000000E+00 0. -1.
       22    1    1    2    0    0  0.77289059992E-02  0.29478971306E-02 -0.28846046204E-01  0.30008673197E-01  0.00000000000E+00 0.  1.
</event>
<event>
 5   0  0.4146200E+04  0.9118800E+02  0.7546771E-02  0.1180000E+00
      -11   -1    0    0    0    0  0.00000000000E+00  0.00000000000E+00  0.34996269501E-01  0.35000000000E-01  0.51099999109E-03 0.  1.
       11   -1    0    0    0    0 -0.00000000000E+00 -0.00000000000E+00 -0.34996269501E-01  0.35000000000E-01  0.51099999109E-03 0.  1.
       22    1    1    2    0    0 -0.45381032479E-03  0.27540726219E-04  0.34985471141E-01  0.34988425132E-01  0.00000000000E+00 0.  1.
       22    1    1    2    0    0  0.74543856814E-04 -0.11579453722E-03 -0.38459464158E-03  0.40850728239E-03  0.00000000000E+00 0. -1.
       22    1    1    2    0    0  0.37926646797E-03  0.88253810998E-04 -0.34600876499E-01  0.34603067585E-01  0.00000000000E+00 0.  1.
</event>
<event>
 5   0  0.4146200E+04  0.9118800E+02  0.7546771E-02  0.1180000E+00
      -11   -1    0    0    0    0  0.00000000000E+00  0.00000000000E+00  0.34996269501E-01  0.35000000000E-01  0.51099999109E-03 0. -1.
       11   -1    0    0    0    0 -0.00000000000E+00 -0.00000000000E+00 -0.34996269501E-01  0.35000000000E-01  0.51099999109E-03 0.  1.
       22    1    1    2    0    0 -0.12357498967E-01 -0.29412383133E-03 -0.32416927511E-01  0.34693680675E-01  0.00000000000E+00 0.  1.
       22    1    1    2    0    0  0.16723176797E-03  0.16283315789E-04  0.81166954980E-02  0.81184344191E-02  0.00000000000E+00 0.  1.
       22    1    1    2    0    0  0.12190267199E-01  0.27784051554E-03  0.24300232013E-01  0.27187884905E-01  0.00000000000E+00 0. -1.
</event>
<event>
 5   0  0.4146200E+04  0.9118800E+02  0.7546771E-02  0.1180000E+00
      -11   -1    0    0    0    0  0.00000000000E+00  0.00000000000E+00  0.34996269501E-01  0.35000000000E-01  0.51099999109E-03 0. -1.
       11   -1    0    0    0    0 -0.00000000000E+00 -0.00000000000E+00 -0.34996269501E-01  0.35000000000E-01  0.51099999109E-03 0.  1.
       22    1    1    2    0    0  0.10265169045E-01 -0.46509208802E-02 -0.63840224105E-02  0.12952239293E-01  0.00000000000E+00 0.  1.
       22    1    1    2    0    0 -0.12650389544E-01 -0.62903642752E-02  0.28750679524E-01  0.32034397317E-01  0.00000000000E+00 0. -1.
       22    1    1    2    0    0  0.23852204995E-02  0.10941285155E-01 -0.22366657114E-01  0.25013363391E-01  0.00000000000E+00 0.  1.
</event>
<event>
 5   0  0.4146200E+04  0.9118800E+02  0.7546771E-02  0.1180000E+00
      -11   -1    0    0    0    0  0.00000000000E+00  0.00000000000E+00  0.34996269501E-01  0.35000000000E-01  0.51099999109E-03 0. -1.
       11   -1    0    0    0    0 -0.00000000000E+00 -0.00000000000E+00 -0.34996269501E-01  0.35000000000E-01  0.51099999109E-03 0.  1.
       22    1    1    2    0    0 -0.16978631995E-04 -0.60535872245E-04  0.17083631810E-02  0.17095197056E-02  0.00000000000E+00 0.  1.
       22    1    1    2    0    0 -0.17277139292E-01 -0.64969762159E-02 -0.29564291111E-01  0.34853372160E-01  0.00000000000E+00 0.  1.
       22    1    1    2    0    0  0.17294117924E-01  0.65575120881E-02  0.27855927930E-01  0.33437108134E-01  0.00000000000E+00 0. -1.
</event>
<event>
 5   0  0.4146200E+04  0.9118800E+02  0.7546771E-02  0.1180000E+00
      -11   -1    0    0    0    0  0.00000000000E+00  0.00000000000E+00  0.34996269501E-01  0.35000000000E-01  0.51099999109E-03 0. -1.
       11   -1    0    0    0    0 -0.00000000000E+00 -0.00000000000E+00 -0.34996269501E-01  0.35000000000E-01  0.51099999109E-03 0.  1.
       22    1    1    2    0    0 -0.40259457623E-03  0.30009757857E-03  0.57753842132E-02  0.57971720485E-02  0.00000000000E+00 0.  1.
       22    1    1    2    0    0  0.18748735599E-01  0.12580233252E-01 -0.25701711706E-01  0.34210456587E-01  0.00000000000E+00 0.  1.
       22    1    1    2    0    0 -0.18346141022E-01 -0.12880330831E-01  0.19926327493E-01  0.29992371365E-01  0.00000000000E+00 0. -1.
</event>
<event>
 5   0  0.4146200E+04  0.9118800E+02  0.7546771E-02  0.1180000E+00
      -11   -1    0    0    0    0  0.00000000000E+00  0.00000000000E+00  0.34996269501E-01  0.35000000000E-01  0.51099999109E-03 0.  1.
       11   -1    0    0    0    0 -0.00000000000E+00 -0.00000000000E+00 -0.34996269501E-01  0.35000000000E-01  0.51099999109E-03 0. -1.
       22    1    1    2    0    0  0.14479231752E-02  0.14154572289E-02  0.34734492454E-01  0.34793461551E-01  0.00000000000E+00 0.  1.
       22    1    1    2    0    0 -0.22849388140E-02 -0.12552493839E-02 -0.71763247273E-02  0.76351969845E-02  0.00000000000E+00 0.  1.
       22    1    1    2    0    0  0.83701563875E-03 -0.16020784503E-03 -0.27558167726E-01  0.27571341465E-01  0.00000000000E+00 0. -1.
</event>
<event>
 5   0  0.4146200E+04  0.9118800E+02  0.7546771E-02  0.1180000E+00
      -11   -1    0    0    0    0  0.00000000000E+00  0.00000000000E+00  0.34996269501E-01  0.35000000000E-01  0.51099999109E-03 0.  1.
       11   -1    0    0    0    0 -0.00000000000E+00 -0.00000000000E+00 -0.34996269501E-01  0.35000000000E-01  0.51099999109E-03 0.  1.
       22    1    1    2    0    0  0.12129915116E-03 -0.32150567389E-02 -0.30611414445E-01  0.30780025952E-01  0.00000000000E+00 0.  1.
       22    1    1    2    0    0 -0.14908260873E-02  0.65674377650E-03  0.34405140047E-01  0.34443686453E-01  0.00000000000E+00 0.  1.
       22    1    1    2    0    0  0.13695269361E-02  0.25583129624E-02 -0.37937256023E-02  0.47762875948E-02  0.00000000000E+00 0. -1.
</event>
<event>
 5   0  0.4146200E+04  0.9118800E+02  0.7546771E-02  0.1180000E+00
      -11   -1    0    0    0    0  0.00000000000E+00  0.00000000000E+00  0.34996269501E-01  0.35000000000E-01  0.51099999109E-03 0. -1.
       11   -1    0    0    0    0 -0.00000000000E+00 -0.00000000000E+00 -0.34996269501E-01  0.35000000000E-01  0.51099999109E-03 0.  1.
       22    1    1    2    0    0 -0.48004436871E-03  0.76470069696E-02 -0.45645871335E-02  0.89186665981E-02  0.00000000000E+00 0.  1.
       22    1    1    2    0    0 -0.17183513015E-01  0.81629654247E-02 -0.19541417828E-01  0.27272222769E-01  0.00000000000E+00 0.  1.
       22    1    1    2    0    0  0.17663557383E-01 -0.15809972394E-01  0.24106004962E-01  0.33809110632E-01  0.00000000000E+00 0. -1.
</event>
<event>
 5   0  0.4146200E+04  0.9118800E+02  0.7546771E-02  0.1180000E+00
      -11   -1    0    0    0    0  0.00000000000E+00  0.00000000000E+00  0.34996269501E-01  0.35000000000E-01  0.51099999109E-03 0. -1.
       11   -1    0    0    0    0 -0.00000000000E+00 -0.00000000000E+00 -0.34996269501E-01  0.35000000000E-01  0.51099999109E-03 0.  1.
       22    1    1    2    0    0 -0.57420165491E-03  0.83667798254E-03 -0.34238093534E-01  0.34253128126E-01  0.00000000000E+00 0.  1.
       22    1    1    2    0    0  0.96039724353E-03 -0.12120017279E-02  0.34877007479E-01  0.34911272703E-01  0.00000000000E+00 0. -1.
       22    1    1    2    0    0 -0.38619558862E-03  0.37532374536E-03 -0.63891394461E-03  0.83559917132E-03  0.00000000000E+00 0.  1.
</event>
<event>
 5   0  0.4146200E+04  0.9118800E+02  0.7546771E-02  0.1180000E+00
      -11   -1    0    0    0    0  0.00000000000E+00  0.00000000000E+00  0.34996269501E-01  0.35000000000E-01  0.51099999109E-03 0.  1.
       11   -1    0    0    0    0 -0.00000000000E+00 -0.00000000000E+00 -0.34996269501E-01  0.35000000000E-01  0.51099999109E-03 0. -1.
       22    1    1    2    0    0  0.13685502139E-01 -0.27311057120E-03  0.25284032101E-01  0.28751518872E-01  0.00000000000E+00 0.  1.
       22    1    1    2    0    0 -0.96753853209E-04  0.29173702929E-02  0.62013953379E-02  0.68540290976E-02  0.00000000000E+00 0.  1.
       22    1    1    2    0    0 -0.13588748285E-01 -0.26442597217E-02 -0.31485427439E-01  0.34394452030E-01  0.00000000000E+00 0. -1.
</event>
<event>
 5   0  0.4146200E+04  0.9118800E+02  0.7546771E-02  0.1180000E+00
      -11   -1    0    0    0    0  0.00000000000E+00  0.00000000000E+00  0.34996269501E-01  0.35000000000E-01  0.51099999109E-03 0. -1.
       11   -1    0    0    0    0 -0.00000000000E+00 -0.00000000000E+00 -0.34996269501E-01  0.35000000000E-01  0.51099999109E-03 0.  1.
       22    1    1    2    0    0 -0.75190754408E-02 -0.18701383949E-01  0.28544820769E-01  0.34944027385E-01  0.00000000000E+00 0. -1.
       22    1    1    2    0    0 -0.62998869269E-04 -0.49228003188E-04 -0.33728358288E-03  0.34663016186E-03  0.00000000000E+00 0.  1.
       22    1    1    2    0    0  0.75820743101E-02  0.18750611953E-01 -0.28207537186E-01  0.34709342454E-01  0.00000000000E+00 0.  1.
</event>
<event>
 5   0  0.4146200E+04  0.9118800E+02  0.7546771E-02  0.1180000E+00
      -11   -1    0    0    0    0  0.00000000000E+00  0.00000000000E+00  0.34996269501E-01  0.35000000000E-01  0.51099999109E-03 0.  1.
       11   -1    0    0    0    0 -0.00000000000E+00 -0.00000000000E+00 -0.34996269501E-01  0.35000000000E-01  0.51099999109E-03 0. -1.
       22    1    1    2    0    0 -0.12075932120E-02 -0.43028481887E-02 -0.16791722734E-02  0.47741390245E-02  0.00000000000E+00 0.  1.
       22    1    1    2    0    0 -0.36443552872E-02 -0.15420226176E-01 -0.26268389590E-01  0.30677238996E-01  0.00000000000E+00 0. -1.
       22    1    1    2    0    0  0.48519484992E-02  0.19723074364E-01  0.27947561863E-01  0.34548621980E-01  0.00000000000E+00 0.  1.
</event>
<event>
 5   0  0.4146200E+04  0.9118800E+02  0.7546771E-02  0.1180000E+00
      -11   -1    0    0    0    0  0.00000000000E+00  0.00000000000E+00  0.34996269501E-01  0.35000000000E-01  0.51099999109E-03 0.  1.
       11   -1    0    0    0    0 -0.00000000000E+00 -0.00000000000E+00 -0.34996269501E-01  0.35000000000E-01  0.51099999109E-03 0. -1.
       22    1    1    2    0    0  0.37932262732E-03 -0.38221942333E-03 -0.14628365751E-02  0.15588034477E-02  0.00000000000E+00 0. -1.
       22    1    1    2    0    0  0.31716355455E-02 -0.21435661576E-02 -0.33243089093E-01  0.33462772156E-01  0.00000000000E+00 0. -1.
       22    1    1    2    0    0 -0.35509581728E-02  0.25257855809E-02  0.34705925668E-01  0.34978424396E-01  0.00000000000E+00 0.  1.
</event>
<event>
 5   0  0.4146200E+04  0.9118800E+02  0.7546771E-02  0.1180000E+00
      -11   -1    0    0    0    0  0.00000000000E+00  0.00000000000E+00  0.34996269501E-01  0.35000000000E-01  0.51099999109E-03 0. -1.
       11   -1    0    0    0    0 -0.00000000000E+00 -0.00000000000E+00 -0.34996269501E-01  0.35000000000E-01  0.51099999109E-03 0.  1.
       22    1    1    2    0    0  0.47573829830E-02  0.11660051473E-01 -0.32106636907E-01  0.34488050492E-01  0.00000000000E+00 0.  1.
       22    1    1    2    0    0 -0.45458452543E-02 -0.11498262203E-01  0.32646793056E-01  0.34909709819E-01  0.00000000000E+00 0. -1.
       22    1    1    2    0    0 -0.21153772867E-03 -0.16178927040E-03 -0.54015614895E-03  0.60223968975E-03  0.00000000000E+00 0.  1.
</event>
<event>
 5   0  0.4146200E+04  0.9118800E+02  0.7546771E-02  0.1180000E+00
      -11   -1    0    0    0    0  0.00000000000E+00  0.00000000000E+00  0.34996269501E-01  0.35000000000E-01  0.51099999109E-03 0. -1.
       11   -1    0    0    0    0 -0.00000000000E+00 -0.00000000000E+00 -0.34996269501E-01  0.35000000000E-01  0.51099999109E-03 0.  1.
       22    1    1    2    0    0 -0.10688308159E-03 -0.82318556673E-04 -0.46368190014E-02  0.46387811750E-02  0.00000000000E+00 0.  1.
       22    1    1    2    0    0  0.29855098568E-02  0.13433904602E-01  0.31969654490E-01  0.34805773518E-01  0.00000000000E+00 0. -1.
       22    1    1    2    0    0 -0.28786267752E-02 -0.13351586046E-01 -0.27332835489E-01  0.30555445307E-01  0.00000000000E+00 0.  1.
</event>
<event>
 5   0  0.4146200E+04  0.9118800E+02  0.7546771E-02  0.1180000E+00
      -11   -1    0    0    0    0  0.00000000000E+00  0.00000000000E+00  0.34996269501E-01  0.35000000000E-01  0.51099999109E-03 0. -1.
       11   -1    0    0    0    0 -0.00000000000E+00 -0.00000000000E+00 -0.34996269501E-01  0.35000000000E-01  0.51099999109E-03 0.  1.
       22    1    1    2    0    0 -0.12509300804E-01  0.41436838945E-02  0.32395175043E-01  0.34972847880E-01  0.00000000000E+00 0. -1.
       22    1    1    2    0    0  0.34410251037E-03 -0.80149811763E-04 -0.29787340352E-03  0.46212454435E-03  0.00000000000E+00 0. -1.
       22    1    1    2    0    0  0.12165198293E-01 -0.40635340827E-02 -0.32097301639E-01  0.34565027575E-01  0.00000000000E+00 0.  1.
</event>
<event>
 5   0  0.4146200E+04  0.9118800E+02  0.7546771E-02  0.1180000E+00
      -11   -1    0    0    0    0  0.00000000000E+00  0.00000000000E+00  0.34996269501E-01  0.35000000000E-01  0.51099999109E-03 0.  1.
       11   -1    0    0    0    0 -0.00000000000E+00 -0.00000000000E+00 -0.34996269501E-01  0.35000000000E-01  0.51099999109E-03 0. -1.
       22    1    1    2    0    0  0.26594875917E-02  0.11198192646E-01  0.26825836392E-01  0.29190715834E-01  0.00000000000E+00 0.  1.
       22    1    1    2    0    0 -0.57473081162E-02 -0.15431986702E-01 -0.30325320831E-01  0.34508011355E-01  0.00000000000E+00 0. -1.
       22    1    1    2    0    0  0.30878205245E-02  0.42337940568E-02  0.34994844386E-02  0.63012728114E-02  0.00000000000E+00 0.  1.
</event>
<event>
 5   0  0.4146200E+04  0.9118800E+02  0.7546771E-02  0.1180000E+00
      -11   -1    0    0    0    0  0.00000000000E+00  0.00000000000E+00  0.34996269501E-01  0.35000000000E-01  0.51099999109E-03 0. -1.
       11   -1    0    0    0    0 -0.00000000000E+00 -0.00000000000E+00 -0.34996269501E-01  0.35000000000E-01  0.51099999109E-03 0.  1.
       22    1    1    2    0    0  0.14288918835E-01 -0.69093201688E-02 -0.30865737809E-01  0.34707429711E-01  0.00000000000E+00 0.  1.
       22    1    1    2    0    0 -0.39412976072E-03  0.10912802522E-03 -0.29429690395E-03  0.50384309249E-03  0.00000000000E+00 0. -1.
       22    1    1    2    0    0 -0.13894789074E-01  0.68001921436E-02  0.31160034713E-01  0.34788727196E-01  0.00000000000E+00 0. -1.
</event>
<event>
 5   0  0.4146200E+04  0.9118800E+02  0.7546771E-02  0.1180000E+00
      -11   -1    0    0    0    0  0.00000000000E+00  0.00000000000E+00  0.34996269501E-01  0.35000000000E-01  0.51099999109E-03 0.  1.
       11   -1    0    0    0    0 -0.00000000000E+00 -0.00000000000E+00 -0.34996269501E-01  0.35000000000E-01  0.51099999109E-03 0.  1.
       22    1    1    2    0    0  0.15458376409E-02 -0.19327025512E-02 -0.60778721302E-02  0.65624296411E-02  0.00000000000E+00 0. -1.
       22    1    1    2    0    0 -0.15534779650E-02  0.16065181753E-02  0.34720869689E-01  0.34792714559E-01  0.00000000000E+00 0.  1.
       22    1    1    2    0    0  0.76403240392E-05  0.32618437598E-03 -0.28642997559E-01  0.28644855800E-01  0.00000000000E+00 0.  1.
</event>
<event>
 5   0  0.4146200E+04  0.9118800E+02  0.7546771E-02  0.1180000E+00
      -11   -1    0    0    0    0  0.00000000000E+00  0.00000000000E+00  0.34996269501E-01  0.35000000000E-01  0.51099999109E-03 0. -1.
       11   -1    0    0    0    0 -0.00000000000E+00 -0.00000000000E+00 -0.34996269501E-01  0.35000000000E-01  0.51099999109E-03 0.  1.
       22    1    1    2    0    0 -0.23468040949E-02 -0.14066368116E-01  0.55108558115E-02  0.15288549088E-01  0.00000000000E+00 0. -1.
       22    1    1    2    0    0 -0.21617974419E-02 -0.90641488939E-03  0.22505232798E-01  0.22626985204E-01  0.00000000000E+00 0. -1.
       22    1    1    2    0    0  0.45086015368E-02  0.14972783006E-01 -0.28016088610E-01  0.32084465708E-01  0.00000000000E+00 0.  1.
</event>
<event>
 5   0  0.4146200E+04  0.9118800E+02  0.7546771E-02  0.1180000E+00
      -11   -1    0    0    0    0  0.00000000000E+00  0.00000000000E+00  0.34996269501E-01  0.35000000000E-01  0.51099999109E-03 0. -1.
       11   -1    0    0    0    0 -0.00000000000E+00 -0.00000000000E+00 -0.34996269501E-01  0.35000000000E-01  0.51099999109E-03 0.  1.
       22    1    1    2    0    0 -0.28824658069E-02 -0.24276767744E-01 -0.24903715122E-01  0.34897923837E-01  0.00000000000E+00 0.  1.
       22    1    1    2    0    0  0.14836849286E-04  0.31942862496E-03  0.13352601002E-02  0.13730165016E-02  0.00000000000E+00 0. -1.
       22    1    1    2    0    0  0.28676289576E-02  0.23957339119E-01  0.23568455022E-01  0.33729059661E-01  0.00000000000E+00 0. -1.
</event>
<event>
 5   0  0.4146200E+04  0.9118800E+02  0.7546771E-02  0.1180000E+00
      -11   -1    0    0    0    0  0.00000000000E+00  0.00000000000E+00  0.34996269501E-01  0.35000000000E-01  0.51099999109E-03 0.  1.
       11   -1    0    0    0    0 -0.00000000000E+00 -0.00000000000E+00 -0.34996269501E-01  0.35000000000E-01  0.51099999109E-03 0. -1.
       22    1    1    2    0    0  0.12195668671E-02  0.17883156469E-01  0.29843300449E-01  0.34812601315E-01  0.00000000000E+00 0.  1.
       22    1    1    2    0    0  0.59502612957E-03 -0.12969599669E-01 -0.24363054640E-01  0.27606575359E-01  0.00000000000E+00 0. -1.
       22    1    1    2    0    0 -0.18145929967E-02 -0.49135568000E-02 -0.54802458086E-02  0.75808233255E-02  0.00000000000E+00 0.  1.
</event>
<event>
 5   0  0.4146200E+04  0.9118800E+02  0.7546771E-02  0.1180000E+00
      -11   -1    0    0    0    0  0.00000000000E+00  0.00000000000E+00  0.34996269501E-01  0.35000000000E-01  0.51099999109E-03 0.  1.
       11   -1    0    0    0    0 -0.00000000000E+00 -0.00000000000E+00 -0.34996269501E-01  0.35000000000E-01  0.51099999109E-03 0. -1.
       22    1    1    2    0    0  0.45187663641E-02 -0.12352563423E-02 -0.24369361085E-01  0.24815536814E-01  0.00000000000E+00 0. -1.
       22    1    1    2    0    0 -0.21670036045E-02  0.69776149658E-02 -0.88010657033E-02  0.11438608864E-01  0.00000000000E+00 0.  1.
       22    1    1    2    0    0 -0.23517627596E-02 -0.57423586234E-02  0.33170426788E-01  0.33745854322E-01  0.00000000000E+00 0.  1.
</event>
<event>
 5   0  0.4146200E+04  0.9118800E+02  0.7546771E-02  0.1180000E+00
      -11   -1    0    0    0    0  0.00000000000E+00  0.00000000000E+00  0.34996269501E-01  0.35000000000E-01  0.51099999109E-03 0.  1.
       11   -1    0    0    0    0 -0.00000000000E+00 -0.00000000000E+00 -0.34996269501E-01  0.35000000000E-01  0.51099999109E-03 0. -1.
       22    1    1    2    0    0 -0.10580187174E-03  0.89758252357E-04  0.52852170116E-03  0.54643002162E-03  0.00000000000E+00 0.  1.
       22    1    1    2    0    0  0.19407446430E-01  0.14241725997E-01  0.24779733895E-01  0.34547227793E-01  0.00000000000E+00 0.  1.
       22    1    1    2    0    0 -0.19301644558E-01 -0.14331484250E-01 -0.25308255596E-01  0.34906342185E-01  0.00000000000E+00 0. -1.
</event>
<event>
 5   0  0.4146200E+04  0.9118800E+02  0.7546771E-02  0.1180000E+00
      -11   -1    0    0    0    0  0.00000000000E+00  0.00000000000E+00  0.34996269501E-01  0.35000000000E-01  0.51099999109E-03 0.  1.
       11   -1    0    0    0    0 -0.00000000000E+00 -0.00000000000E+00 -0.34996269501E-01  0.35000000000E-01  0.51099999109E-03 0. -1.
       22    1    1    2    0    0  0.98298245311E-03  0.71297222918E-02 -0.10727672960E-01  0.12918287874E-01  0.00000000000E+00 0.  1.
       22    1    1    2    0    0  0.35163813796E-02 -0.17340339673E-01 -0.18619240142E-01  0.25685179023E-01  0.00000000000E+00 0. -1.
       22    1    1    2    0    0 -0.44993638327E-02  0.10210617382E-01  0.29346913102E-01  0.31396533102E-01  0.00000000000E+00 0.  1.
</event>
<event>
 5   0  0.4146200E+04  0.9118800E+02  0.7546771E-02  0.1180000E+00
      -11   -1    0    0    0    0  0.00000000000E+00  0.00000000000E+00  0.34996269501E-01  0.35000000000E-01  0.51099999109E-03 0. -1.
       11   -1    0    0    0    0 -0.00000000000E+00 -0.00000000000E+00 -0.34996269501E-01  0.35000000000E-01  0.51099999109E-03 0.  1.
       22    1    1    2    0    0  0.90117163385E-03 -0.14114735203E-01 -0.30761312117E-01  0.33856996076E-01  0.00000000000E+00 0.  1.
       22    1    1    2    0    0  0.35682550953E-03  0.12848212609E-01  0.31641687396E-01  0.34152602726E-01  0.00000000000E+00 0. -1.
       22    1    1    2    0    0 -0.12579971434E-02  0.12665225943E-02 -0.88037527952E-03  0.19904011976E-02  0.00000000000E+00 0. -1.
</event>
<event>
 5   0  0.4146200E+04  0.9118800E+02  0.7546771E-02  0.1180000E+00
      -11   -1    0    0    0    0  0.00000000000E+00  0.00000000000E+00  0.34996269501E-01  0.35000000000E-01  0.51099999109E-03 0.  1.
       11   -1    0    0    0    0 -0.00000000000E+00 -0.00000000000E+00 -0.34996269501E-01  0.35000000000E-01  0.51099999109E-03 0. -1.
       22    1    1    2    0    0 -0.12549896891E-01  0.54524782780E-02 -0.31530216416E-01  0.34371266759E-01  0.00000000000E+00 0. -1.
       22    1    1    2    0    0 -0.59734318985E-04 -0.23058194077E-03  0.10839452168E-01  0.10842068969E-01  0.00000000000E+00 0.  1.
       22    1    1    2    0    0  0.12609631210E-01 -0.52218963372E-02  0.20690764248E-01  0.24786664273E-01  0.00000000000E+00 0.  1.
</event>
<event>
 5   0  0.4146200E+04  0.9118800E+02  0.7546771E-02  0.1180000E+00
      -11   -1    0    0    0    0  0.00000000000E+00  0.00000000000E+00  0.34996269501E-01  0.35000000000E-01  0.51099999109E-03 0.  1.
       11   -1    0    0    0    0 -0.00000000000E+00 -0.00000000000E+00 -0.34996269501E-01  0.35000000000E-01  0.51099999109E-03 0. -1.
       22    1    1    2    0    0 -0.16005008749E-01  0.10157475097E-02  0.30780846870E-01  0.34708105423E-01  0.00000000000E+00 0.  1.
       22    1    1    2    0    0  0.16370664551E-01 -0.81563335634E-03 -0.30783202119E-01  0.34875054814E-01  0.00000000000E+00 0. -1.
       22    1    1    2    0    0 -0.36565580262E-03 -0.20011415332E-03  0.23552490091E-05  0.41683976243E-03  0.00000000000E+00 0. -1.
</event>
<event>
 5   0  0.4146200E+04  0.9118800E+02  0.7546771E-02  0.1180000E+00
      -11   -1    0    0    0    0  0.00000000000E+00  0.00000000000E+00  0.34996269501E-01  0.35000000000E-01  0.51099999109E-03 0. -1.
       11   -1    0    0    0    0 -0.00000000000E+00 -0.00000000000E+00 -0.34996269501E-01  0.35000000000E-01  0.51099999109E-03 0.  1.
       22    1    1    2    0    0 -0.75046467739E-04  0.29073122764E-03  0.82412248105E-04  0.31136537650E-03  0.00000000000E+00 0. -1.
       22    1    1    2    0    0 -0.10733445416E-01  0.78667346347E-02  0.32113134065E-01  0.34761267868E-01  0.00000000000E+00 0. -1.
       22    1    1    2    0    0  0.10808491883E-01 -0.81574658623E-02 -0.32195546313E-01  0.34927366756E-01  0.00000000000E+00 0.  1.
</event>
<event>
 5   0  0.4146200E+04  0.9118800E+02  0.7546771E-02  0.1180000E+00
      -11   -1    0    0    0    0  0.00000000000E+00  0.00000000000E+00  0.34996269501E-01  0.35000000000E-01  0.51099999109E-03 0.  1.
       11   -1    0    0    0    0 -0.00000000000E+00 -0.00000000000E+00 -0.34996269501E-01  0.35000000000E-01  0.51099999109E-03 0. -1.
       22    1    1    2    0    0 -0.26322226413E-03 -0.61163254092E-03 -0.17306914647E-01  0.17319719251E-01  0.00000000000E+00 0.  1.
       22    1    1    2    0    0 -0.21776199791E-02  0.77993545391E-02  0.33676471681E-01  0.34636349474E-01  0.00000000000E+00 0.  1.
       22    1    1    2    0    0  0.24408422432E-02 -0.71877219982E-02 -0.16369557034E-01  0.18043931275E-01  0.00000000000E+00 0. -1.
</event>
<event>
 5   0  0.4146200E+04  0.9118800E+02  0.7546771E-02  0.1180000E+00
      -11   -1    0    0    0    0  0.00000000000E+00  0.00000000000E+00  0.34996269501E-01  0.35000000000E-01  0.51099999109E-03 0. -1.
       11   -1    0    0    0    0 -0.00000000000E+00 -0.00000000000E+00 -0.34996269501E-01  0.35000000000E-01  0.51099999109E-03 0.  1.
       22    1    1    2    0    0  0.23017135288E-01 -0.15025779631E-02 -0.25004922768E-01  0.34019000867E-01  0.00000000000E+00 0.  1.
       22    1    1    2    0    0 -0.23307756263E-01  0.11461662753E-02  0.25968592813E-01  0.34913221161E-01  0.00000000000E+00 0. -1.
       22    1    1    2    0    0  0.29062097516E-03  0.35641168778E-03 -0.96367004478E-03  0.10677779721E-02  0.00000000000E+00 0.  1.
</event>
<event>
 5   0  0.4146200E+04  0.9118800E+02  0.7546771E-02  0.1180000E+00
      -11   -1    0    0    0    0  0.00000000000E+00  0.00000000000E+00  0.34996269501E-01  0.35000000000E-01  0.51099999109E-03 0. -1.
       11   -1    0    0    0    0 -0.00000000000E+00 -0.00000000000E+00 -0.34996269501E-01  0.35000000000E-01  0.51099999109E-03 0.  1.
       22    1    1    2    0    0 -0.87808870912E-02 -0.14291901225E-01  0.26873417172E-01  0.31678746334E-01  0.00000000000E+00 0. -1.
       22    1    1    2    0    0  0.69962347372E-03  0.51262192718E-02  0.30452357501E-02  0.60034205085E-02  0.00000000000E+00 0.  1.
       22    1    1    2    0    0  0.80812636175E-02  0.91656819536E-02 -0.29918652922E-01  0.32317833158E-01  0.00000000000E+00 0.  1.
</event>
<event>
 5   0  0.4146200E+04  0.9118800E+02  0.7546771E-02  0.1180000E+00
      -11   -1    0    0    0    0  0.00000000000E+00  0.00000000000E+00  0.34996269501E-01  0.35000000000E-01  0.51099999109E-03 0.  1.
       11   -1    0    0    0    0 -0.00000000000E+00 -0.00000000000E+00 -0.34996269501E-01  0.35000000000E-01  0.51099999109E-03 0. -1.
       22    1    1    2    0    0 -0.11938281332E-01 -0.93494943743E-02 -0.28551166592E-01  0.32328079435E-01  0.00000000000E+00 0. -1.
       22    1    1    2    0    0  0.11467454006E-01  0.93933374859E-02  0.31432235051E-01  0.34752304827E-01  0.00000000000E+00 0.  1.
       22    1    1    2    0    0  0.47082732530E-03 -0.43843111541E-04 -0.28810684589E-02  0.29196157373E-02  0.00000000000E+00 0.  1.
</event>
<event>
 5   0  0.4146200E+04  0.9118800E+02  0.7546771E-02  0.1180000E+00
      -11   -1    0    0    0    0  0.00000000000E+00  0.00000000000E+00  0.34996269501E-01  0.35000000000E-01  0.51099999109E-03 0.  1.
       11   -1    0    0    0    0 -0.00000000000E+00 -0.00000000000E+00 -0.34996269501E-01  0.35000000000E-01  0.51099999109E-03 0. -1.
       22    1    1    2    0    0 -0.19227335940E-01 -0.14584834633E-01  0.22937154536E-01  0.33294457599E-01  0.00000000000E+00 0.  1.
       22    1    1    2    0    0  0.20286919972E-01  0.16674650023E-01 -0.20408725629E-01  0.33258369731E-01  0.00000000000E+00 0. -1.
       22    1    1    2    0    0 -0.10595840325E-02 -0.20898153899E-02 -0.25284289064E-02  0.34471726706E-02  0.00000000000E+00 0. -1.
</event>
<event>
 5   0  0.4146200E+04  0.9118800E+02  0.7546771E-02  0.1180000E+00
      -11   -1    0    0    0    0  0.00000000000E+00  0.00000000000E+00  0.34996269501E-01  0.35000000000E-01  0.51099999109E-03 0.  1.
       11   -1    0    0    0    0 -0.00000000000E+00 -0.00000000000E+00 -0.34996269501E-01  0.35000000000E-01  0.51099999109E-03 0. -1.
       22    1    1    2    0    0  0.53901405735E-03 -0.40671425394E-03  0.14345380348E-03  0.69031270603E-03  0.00000000000E+00 0. -1.
       22    1    1    2    0    0  0.10674609832E-01  0.44983003214E-02 -0.32669562437E-01  0.34662404860E-01  0.00000000000E+00 0. -1.
       22    1    1    2    0    0 -0.11213623889E-01 -0.40915860674E-02  0.32526108633E-01  0.34647282434E-01  0.00000000000E+00 0.  1.
</event>
<event>
 5   0  0.4146200E+04  0.9118800E+02  0.7546771E-02  0.1180000E+00
      -11   -1    0    0    0    0  0.00000000000E+00  0.00000000000E+00  0.34996269501E-01  0.35000000000E-01  0.51099999109E-03 0.  1.
       11   -1    0    0    0    0 -0.00000000000E+00 -0.00000000000E+00 -0.34996269501E-01  0.35000000000E-01  0.51099999109E-03 0. -1.
       22    1    1    2    0    0  0.27037375970E-03  0.18553739438E-06 -0.18472082724E-03  0.32745043651E-03  0.00000000000E+00 0. -1.
       22    1    1    2    0    0  0.51991850186E-02  0.17324707569E-01 -0.29655663520E-01  0.34736657813E-01  0.00000000000E+00 0. -1.
       22    1    1    2    0    0 -0.54695587783E-02 -0.17324893106E-01  0.29840384347E-01  0.34935891750E-01  0.00000000000E+00 0.  1.
</event>
<event>
 5   0  0.4146200E+04  0.9118800E+02  0.7546771E-02  0.1180000E+00
      -11   -1    0    0    0    0  0.00000000000E+00  0.00000000000E+00  0.34996269501E-01  0.35000000000E-01  0.51099999109E-03 0. -1.
       11   -1    0    0    0    0 -0.00000000000E+00 -0.00000000000E+00 -0.34996269501E-01  0.35000000000E-01  0.51099999109E-03 0. -1.
       22    1    1    2    0    0  0.44194547140E-03 -0.72680373850E-03 -0.10140556894E-02  0.13235816617E-02  0.00000000000E+00 0.  1.
       22    1    1    2    0    0 -0.21145599205E-03  0.22741887681E-03 -0.33828298243E-01  0.33829723543E-01  0.00000000000E+00 0. -1.
       22    1    1    2    0    0 -0.23048947935E-03  0.49938486169E-03  0.34842353932E-01  0.34846694796E-01  0.00000000000E+00 0. -1.
</event>
<event>
 5   0  0.4146200E+04  0.9118800E+02  0.7546771E-02  0.1180000E+00
      -11   -1    0    0    0    0  0.00000000000E+00  0.00000000000E+00  0.34996269501E-01  0.35000000000E-01  0.51099999109E-03 0. -1.
       11   -1    0    0    0    0 -0.00000000000E+00 -0.00000000000E+00 -0.34996269501E-01  0.35000000000E-01  0.51099999109E-03 0.  1.
       22    1    1    2    0    0  0.15857431452E-02 -0.11253966325E-01 -0.38343435124E-02  0.11994520813E-01  0.00000000000E+00 0. -1.
       22    1    1    2    0    0  0.29610664320E-02  0.10689670372E-02  0.29684856180E-01  0.29851319760E-01  0.00000000000E+00 0. -1.
       22    1    1    2    0    0 -0.45468095771E-02  0.10184999288E-01 -0.25850512668E-01  0.28154159427E-01  0.00000000000E+00 0.  1.
</event>
<event>
 5   0  0.4146200E+04  0.9118800E+02  0.7546771E-02  0.1180000E+00
      -11   -1    0    0    0    0  0.00000000000E+00  0.00000000000E+00  0.34996269501E-01  0.35000000000E-01  0.51099999109E-03 0. -1.
       11   -1    0    0    0    0 -0.00000000000E+00 -0.00000000000E+00 -0.34996269501E-01  0.35000000000E-01  0.51099999109E-03 0.  1.
       22    1    1    2    0    0  0.82584972053E-02 -0.26689155816E-02  0.12353133626E-01  0.15097211558E-01  0.00000000000E+00 0. -1.
       22    1    1    2    0    0 -0.10667376671E-01  0.37967423694E-02 -0.32585306398E-01  0.34496526936E-01  0.00000000000E+00 0.  1.
       22    1    1    2    0    0  0.24088794654E-02 -0.11278267878E-02  0.20232172772E-01  0.20406261505E-01  0.00000000000E+00 0. -1.
</event>
<event>
 5   0  0.4146200E+04  0.9118800E+02  0.7546771E-02  0.1180000E+00
      -11   -1    0    0    0    0  0.00000000000E+00  0.00000000000E+00  0.34996269501E-01  0.35000000000E-01  0.51099999109E-03 0.  1.
       11   -1    0    0    0    0 -0.00000000000E+00 -0.00000000000E+00 -0.34996269501E-01  0.35000000000E-01  0.51099999109E-03 0. -1.
       22    1    1    2    0    0 -0.21584828580E-01  0.19110966623E-02 -0.27129996967E-01  0.34721662557E-01  0.00000000000E+00 0. -1.
       22    1    1    2    0    0 -0.62963729483E-04 -0.23694876838E-03  0.22215023735E-02  0.22349903681E-02  0.00000000000E+00 0. -1.
       22    1    1    2    0    0  0.21647792310E-01 -0.16741478939E-02  0.24908494593E-01  0.33043347075E-01  0.00000000000E+00 0.  1.
</event>
<event>
 5   0  0.4146200E+04  0.9118800E+02  0.7546771E-02  0.1180000E+00
      -11   -1    0    0    0    0  0.00000000000E+00  0.00000000000E+00  0.34996269501E-01  0.35000000000E-01  0.51099999109E-03 0. -1.
       11   -1    0    0    0    0 -0.00000000000E+00 -0.00000000000E+00 -0.34996269501E-01  0.35000000000E-01  0.51099999109E-03 0.  1.
       22    1    1    2    0    0  0.77500766520E-02  0.22510698153E-01 -0.14690754356E-01  0.27975229812E-01  0.00000000000E+00 0.  1.
       22    1    1    2    0    0 -0.20062763121E-02 -0.80247353365E-02 -0.99070730609E-02  0.12906262763E-01  0.00000000000E+00 0.  1.
       22    1    1    2    0    0 -0.57438003398E-02 -0.14485962817E-01  0.24597827417E-01  0.29118507426E-01  0.00000000000E+00 0. -1.
</event>
<event>
 5   0  0.4146200E+04  0.9118800E+02  0.7546771E-02  0.1180000E+00
      -11   -1    0    0    0    0  0.00000000000E+00  0.00000000000E+00  0.34996269501E-01  0.35000000000E-01  0.51099999109E-03 0.  1.
       11   -1    0    0    0    0 -0.00000000000E+00 -0.00000000000E+00 -0.34996269501E-01  0.35000000000E-01  0.51099999109E-03 0. -1.
       22    1    1    2    0    0  0.39331349691E-02  0.14122845004E-01  0.31659662581E-01  0.34889232385E-01  0.00000000000E+00 0.  1.
       22    1    1    2    0    0  0.10021376332E-03 -0.34593821224E-04 -0.22486838351E-02  0.22511815833E-02  0.00000000000E+00 0. -1.
       22    1    1    2    0    0 -0.40333487324E-02 -0.14088251182E-01 -0.29410978746E-01  0.32859586032E-01  0.00000000000E+00 0. -1.
</event>
<event>
 5   0  0.4146200E+04  0.9118800E+02  0.7546771E-02  0.1180000E+00
      -11   -1    0    0    0    0  0.00000000000E+00  0.00000000000E+00  0.34996269501E-01  0.35000000000E-01  0.51099999109E-03 0. -1.
       11   -1    0    0    0    0 -0.00000000000E+00 -0.00000000000E+00 -0.34996269501E-01  0.35000000000E-01  0.51099999109E-03 0.  1.
       22    1    1    2    0    0 -0.93241270443E-04  0.55803247053E-04  0.11124105026E-01  0.11124635750E-01  0.00000000000E+00 0. -1.
       22    1    1    2    0    0 -0.19363833459E-01  0.53223661325E-02 -0.26677921016E-01  0.33391572249E-01  0.00000000000E+00 0.  1.
       22    1    1    2    0    0  0.19457074729E-01 -0.53781693796E-02  0.15553815990E-01  0.25483792001E-01  0.00000000000E+00 0. -1.
</event>
<event>
 5   0  0.4146200E+04  0.9118800E+02  0.7546771E-02  0.1180000E+00
      -11   -1    0    0    0    0  0.00000000000E+00  0.00000000000E+00  0.34996269501E-01  0.35000000000E-01  0.51099999109E-03 0. -1.
       11   -1    0    0    0    0 -0.00000000000E+00 -0.00000000000E+00 -0.34996269501E-01  0.35000000000E-01  0.51099999109E-03 0.  1.
       22    1    1    2    0    0  0.19616356499E-03 -0.12909459077E-03  0.64855830787E-02  0.64898330817E-02  0.00000000000E+00 0. -1.
       22    1    1    2    0    0  0.17044466740E-01 -0.56641890723E-02 -0.29279313215E-01  0.34349309551E-01  0.00000000000E+00 0.  1.
       22    1    1    2    0    0 -0.17240630305E-01  0.57932836630E-02  0.22793730136E-01  0.29160857368E-01  0.00000000000E+00 0. -1.
</event>
<event>
 5   0  0.4146200E+04  0.9118800E+02  0.7546771E-02  0.1180000E+00
      -11   -1    0    0    0    0  0.00000000000E+00  0.00000000000E+00  0.34996269501E-01  0.35000000000E-01  0.51099999109E-03 0.  1.
       11   -1    0    0    0    0 -0.00000000000E+00 -0.00000000000E+00 -0.34996269501E-01  0.35000000000E-01  0.51099999109E-03 0. -1.
       22    1    1    2    0    0  0.41963118726E-03 -0.49498539862E-03  0.65723492041E-03  0.92361172512E-03  0.00000000000E+00 0. -1.
       22    1    1    2    0    0  0.13890336554E-01  0.52930980384E-02 -0.31448739162E-01  0.34784788792E-01  0.00000000000E+00 0. -1.
       22    1    1    2    0    0 -0.14309967741E-01 -0.47981126397E-02  0.30791504242E-01  0.34291599483E-01  0.00000000000E+00 0.  1.
</event>
<event>
 5   0  0.4146200E+04  0.9118800E+02  0.7546771E-02  0.1180000E+00
      -11   -1    0    0    0    0  0.00000000000E+00  0.00000000000E+00  0.34996269501E-01  0.35000000000E-01  0.51099999109E-03 0. -1.
       11   -1    0    0    0    0 -0.00000000000E+00 -0.00000000000E+00 -0.34996269501E-01  0.35000000000E-01  0.51099999109E-03 0.  1.
       22    1    1    2    0    0  0.18590972727E-02 -0.22946383673E-04 -0.31586489570E-01  0.31641161365E-01  0.00000000000E+00 0.  1.
       22    1    1    2    0    0 -0.13976912703E-02  0.48316402679E-03 -0.32215144264E-02  0.35447346253E-02  0.00000000000E+00 0. -1.
       22    1    1    2    0    0 -0.46140600237E-03 -0.46021764311E-03  0.34808003996E-01  0.34814104009E-01  0.00000000000E+00 0. -1.
</event>
<event>
 5   0  0.4146200E+04  0.9118800E+02  0.7546771E-02  0.1180000E+00
      -11   -1    0    0    0    0  0.00000000000E+00  0.00000000000E+00  0.34996269501E-01  0.35000000000E-01  0.51099999109E-03 0.  1.
       11   -1    0    0    0    0 -0.00000000000E+00 -0.00000000000E+00 -0.34996269501E-01  0.35000000000E-01  0.51099999109E-03 0. -1.
       22    1    1    2    0    0  0.47213672108E-03 -0.19634496774E-02  0.33547271500E-01  0.33607997156E-01  0.00000000000E+00 0.  1.
       22    1    1    2    0    0  0.58826857417E-02  0.37163053362E-03 -0.75304023238E-02  0.95630047552E-02  0.00000000000E+00 0.  1.
       22    1    1    2    0    0 -0.63548224628E-02  0.15918191438E-02 -0.26016869176E-01  0.26828998089E-01  0.00000000000E+00 0. -1.
</event>
<event>
 5   0  0.4146200E+04  0.9118800E+02  0.7546771E-02  0.1180000E+00
      -11   -1    0    0    0    0  0.00000000000E+00  0.00000000000E+00  0.34996269501E-01  0.35000000000E-01  0.51099999109E-03 0. -1.
       11   -1    0    0    0    0 -0.00000000000E+00 -0.00000000000E+00 -0.34996269501E-01  0.35000000000E-01  0.51099999109E-03 0.  1.
       22    1    1    2    0    0 -0.35956613179E-03  0.78799614257E-04  0.19516474323E-03  0.41663708349E-03  0.00000000000E+00 0.  1.
       22    1    1    2    0    0  0.17117100695E-01  0.13140945416E-01  0.27285322717E-01  0.34787475022E-01  0.00000000000E+00 0. -1.
       22    1    1    2    0    0 -0.16757534563E-01 -0.13219745030E-01 -0.27480487460E-01  0.34795887894E-01  0.00000000000E+00 0.  1.
</event>
<event>
 5   0  0.4146200E+04  0.9118800E+02  0.7546771E-02  0.1180000E+00
      -11   -1    0    0    0    0  0.00000000000E+00  0.00000000000E+00  0.34996269501E-01  0.35000000000E-01  0.51099999109E-03 0. -1.
       11   -1    0    0    0    0 -0.00000000000E+00 -0.00000000000E+00 -0.34996269501E-01  0.35000000000E-01  0.51099999109E-03 0.  1.
       22    1    1    2    0    0  0.13614732920E-02  0.78760725200E-03 -0.34143700055E-01  0.34179909130E-01  0.00000000000E+00 0.  1.
       22    1    1    2    0    0 -0.16292343587E-04 -0.68742849083E-03 -0.68188267353E-03  0.96839421256E-03  0.00000000000E+00 0. -1.
       22    1    1    2    0    0 -0.13451809484E-02 -0.10017876117E-03  0.34825582728E-01  0.34851696658E-01  0.00000000000E+00 0. -1.
</event>
<event>
 5   0  0.4146200E+04  0.9118800E+02  0.7546771E-02  0.1180000E+00
      -11   -1    0    0    0    0  0.00000000000E+00  0.00000000000E+00  0.34996269501E-01  0.35000000000E-01  0.51099999109E-03 0.  1.
       11   -1    0    0    0    0 -0.00000000000E+00 -0.00000000000E+00 -0.34996269501E-01  0.35000000000E-01  0.51099999109E-03 0. -1.
       22    1    1    2    0    0  0.79867115872E-02  0.32513740509E-02  0.26821442203E-01  0.28173547115E-01  0.00000000000E+00 0.  1.
       22    1    1    2    0    0 -0.11317214674E-01  0.51053701163E-02 -0.29854293773E-01  0.32333001851E-01  0.00000000000E+00 0. -1.
       22    1    1    2    0    0  0.33305030870E-02 -0.83567441672E-02  0.30328515694E-02  0.94934510338E-02  0.00000000000E+00 0. -1.
</event>
<event>
 5   0  0.4146200E+04  0.9118800E+02  0.7546771E-02  0.1180000E+00
      -11   -1    0    0    0    0  0.00000000000E+00  0.00000000000E+00  0.34996269501E-01  0.35000000000E-01  0.51099999109E-03 0. -1.
       11   -1    0    0    0    0 -0.00000000000E+00 -0.00000000000E+00 -0.34996269501E-01  0.35000000000E-01  0.51099999109E-03 0.  1.
       22    1    1    2    0    0 -0.19608379490E-03  0.28520180725E-03 -0.53821568502E-03  0.63989456091E-03  0.00000000000E+00 0.  1.
       22    1    1    2    0    0  0.29114528401E-04 -0.26771185810E-02 -0.34317620891E-01  0.34421895868E-01  0.00000000000E+00 0.  1.
       22    1    1    2    0    0  0.16696926650E-03  0.23919167737E-02  0.34855836576E-01  0.34938209571E-01  0.00000000000E+00 0. -1.
</event>
<event>
 5   0  0.4146200E+04  0.9118800E+02  0.7546771E-02  0.1180000E+00
      -11   -1    0    0    0    0  0.00000000000E+00  0.00000000000E+00  0.34996269501E-01  0.35000000000E-01  0.51099999109E-03 0.  1.
       11   -1    0    0    0    0 -0.00000000000E+00 -0.00000000000E+00 -0.34996269501E-01  0.35000000000E-01  0.51099999109E-03 0. -1.
       22    1    1    2    0    0  0.95755842451E-02  0.11885392051E-01 -0.68918198908E-02  0.16746687411E-01  0.00000000000E+00 0.  1.
       22    1    1    2    0    0  0.48215687882E-03 -0.26240436136E-02  0.27987582327E-01  0.28114459708E-01  0.00000000000E+00 0.  1.
       22    1    1    2    0    0 -0.10057741124E-01 -0.92613484369E-02 -0.21095762437E-01  0.25138852881E-01  0.00000000000E+00 0. -1.
</event>
<event>
 5   0  0.4146200E+04  0.9118800E+02  0.7546771E-02  0.1180000E+00
      -11   -1    0    0    0    0  0.00000000000E+00  0.00000000000E+00  0.34996269501E-01  0.35000000000E-01  0.51099999109E-03 0. -1.
       11   -1    0    0    0    0 -0.00000000000E+00 -0.00000000000E+00 -0.34996269501E-01  0.35000000000E-01  0.51099999109E-03 0.  1.
       22    1    1    2    0    0  0.60679369249E-02  0.17369607436E-01 -0.29736982344E-01  0.34968718019E-01  0.00000000000E+00 0.  1.
       22    1    1    2    0    0 -0.58486788654E-02 -0.17335128267E-01  0.29407632343E-01  0.34634124163E-01  0.00000000000E+00 0. -1.
       22    1    1    2    0    0 -0.21925805950E-03 -0.34479168292E-04  0.32935000063E-03  0.39715781827E-03  0.00000000000E+00 0. -1.
</event>
<event>
 5   0  0.4146200E+04  0.9118800E+02  0.7546771E-02  0.1180000E+00
      -11   -1    0    0    0    0  0.00000000000E+00  0.00000000000E+00  0.34996269501E-01  0.35000000000E-01  0.51099999109E-03 0. -1.
       11   -1    0    0    0    0 -0.00000000000E+00 -0.00000000000E+00 -0.34996269501E-01  0.35000000000E-01  0.51099999109E-03 0.  1.
       22    1    1    2    0    0  0.85218947505E-04 -0.48012101623E-04  0.28984869754E-03  0.30590799006E-03  0.00000000000E+00 0. -1.
       22    1    1    2    0    0  0.18044576852E-02 -0.11718975015E-01 -0.32901600086E-01  0.34972928547E-01  0.00000000000E+00 0.  1.
       22    1    1    2    0    0 -0.18896766327E-02  0.11766987117E-01  0.32611751388E-01  0.34721163463E-01  0.00000000000E+00 0. -1.
</event>
<event>
 5   0  0.4146200E+04  0.9118800E+02  0.7546771E-02  0.1180000E+00
      -11   -1    0    0    0    0  0.00000000000E+00  0.00000000000E+00  0.34996269501E-01  0.35000000000E-01  0.51099999109E-03 0.  1.
       11   -1    0    0    0    0 -0.00000000000E+00 -0.00000000000E+00 -0.34996269501E-01  0.35000000000E-01  0.51099999109E-03 0. -1.
       22    1    1    2    0    0  0.81843460735E-02 -0.24720308663E-02 -0.36112443436E-02  0.92809236051E-02  0.00000000000E+00 0.  1.
       22    1    1    2    0    0  0.12696881548E-01 -0.15542403862E-02  0.26530726464E-01  0.29453453294E-01  0.00000000000E+00 0.  1.
       22    1    1    2    0    0 -0.20881227622E-01  0.40262712525E-02 -0.22919482121E-01  0.31265623101E-01  0.00000000000E+00 0. -1.
</event>
<event>
 5   0  0.4146200E+04  0.9118800E+02  0.7546771E-02  0.1180000E+00
      -11   -1    0    0    0    0  0.00000000000E+00  0.00000000000E+00  0.34996269501E-01  0.35000000000E-01  0.51099999109E-03 0. -1.
       11   -1    0    0    0    0 -0.00000000000E+00 -0.00000000000E+00 -0.34996269501E-01  0.35000000000E-01  0.51099999109E-03 0.  1.
       22    1    1    2    0    0 -0.22748258958E-03 -0.99933543236E-04 -0.95519285164E-02  0.95551595185E-02  0.00000000000E+00 0.  1.
       22    1    1    2    0    0  0.12018869397E-01  0.55993054272E-02 -0.22352639265E-01  0.25989342527E-01  0.00000000000E+00 0.  1.
       22    1    1    2    0    0 -0.11791386807E-01 -0.54993718840E-02  0.31904567782E-01  0.34455497955E-01  0.00000000000E+00 0. -1.
</event>
<event>
 5   0  0.4146200E+04  0.9118800E+02  0.7546771E-02  0.1180000E+00
      -11   -1    0    0    0    0  0.00000000000E+00  0.00000000000E+00  0.34996269501E-01  0.35000000000E-01  0.51099999109E-03 0.  1.
       11   -1    0    0    0    0 -0.00000000000E+00 -0.00000000000E+00 -0.34996269501E-01  0.35000000000E-01  0.51099999109E-03 0. -1.
       22    1    1    2    0    0 -0.39673347033E-02 -0.26760271583E-02 -0.13783765930E-01  0.14590855671E-01  0.00000000000E+00 0. -1.
       22    1    1    2    0    0 -0.83582676755E-02 -0.26362129018E-03  0.32080819972E-01  0.33152815036E-01  0.00000000000E+00 0.  1.
       22    1    1    2    0    0  0.12325602379E-01  0.29396484485E-02 -0.18297054042E-01  0.22256329294E-01  0.00000000000E+00 0. -1.
</event>
<event>
 5   0  0.4146200E+04  0.9118800E+02  0.7546771E-02  0.1180000E+00
      -11   -1    0    0    0    0  0.00000000000E+00  0.00000000000E+00  0.34996269501E-01  0.35000000000E-01  0.51099999109E-03 0.  1.
       11   -1    0    0    0    0 -0.00000000000E+00 -0.00000000000E+00 -0.34996269501E-01  0.35000000000E-01  0.51099999109E-03 0. -1.
       22    1    1    2    0    0 -0.59848801660E-02  0.17401574727E-01 -0.28522086976E-01  0.33943232596E-01  0.00000000000E+00 0. -1.
       22    1    1    2    0    0  0.17859706382E-03  0.23040883250E-03  0.94058761078E-02  0.94103926856E-02  0.00000000000E+00 0.  1.
       22    1    1    2    0    0  0.58062831022E-02 -0.17631983560E-01  0.19116210868E-01  0.26646374719E-01  0.00000000000E+00 0.  1.
</event>
<event>
 5   0  0.4146200E+04  0.9118800E+02  0.7546771E-02  0.1180000E+00
      -11   -1    0    0    0    0  0.00000000000E+00  0.00000000000E+00  0.34996269501E-01  0.35000000000E-01  0.51099999109E-03 0.  1.
       11   -1    0    0    0    0 -0.00000000000E+00 -0.00000000000E+00 -0.34996269501E-01  0.35000000000E-01  0.51099999109E-03 0. -1.
       22    1    1    2    0    0 -0.23192387969E-03  0.21387364336E-03  0.47325699943E-03  0.56877307321E-03  0.00000000000E+00 0. -1.
       22    1    1    2    0    0 -0.12470886313E-01 -0.15809111386E-01 -0.28523472815E-01  0.34914746307E-01  0.00000000000E+00 0. -1.
       22    1    1    2    0    0  0.12702810192E-01  0.15595237743E-01  0.28050215816E-01  0.34516480620E-01  0.00000000000E+00 0.  1.
</event>
<event>
 5   0  0.4146200E+04  0.9118800E+02  0.7546771E-02  0.1180000E+00
      -11   -1    0    0    0    0  0.00000000000E+00  0.00000000000E+00  0.34996269501E-01  0.35000000000E-01  0.51099999109E-03 0.  1.
       11   -1    0    0    0    0 -0.00000000000E+00 -0.00000000000E+00 -0.34996269501E-01  0.35000000000E-01  0.51099999109E-03 0. -1.
       22    1    1    2    0    0 -0.10958491056E-01 -0.63887060245E-02 -0.29428675845E-01  0.32046077028E-01  0.00000000000E+00 0. -1.
       22    1    1    2    0    0  0.22370647386E-03 -0.98687162209E-03 -0.29153746760E-02  0.30859957367E-02  0.00000000000E+00 0.  1.
       22    1    1    2    0    0  0.10734784582E-01  0.73755776465E-02  0.32344050521E-01  0.34867927236E-01  0.00000000000E+00 0.  1.
</event>
<event>
 5   0  0.4146200E+04  0.9118800E+02  0.7546771E-02  0.1180000E+00
      -11   -1    0    0    0    0  0.00000000000E+00  0.00000000000E+00  0.34996269501E-01  0.35000000000E-01  0.51099999109E-03 0.  1.
       11   -1    0    0    0    0 -0.00000000000E+00 -0.00000000000E+00 -0.34996269501E-01  0.35000000000E-01  0.51099999109E-03 0. -1.
       22    1    1    2    0    0  0.49678153694E-02 -0.67293020371E-02  0.14857409845E-01  0.17050082779E-01  0.00000000000E+00 0.  1.
       22    1    1    2    0    0 -0.13109624461E-01  0.11288085235E-01 -0.30309378847E-01  0.34899019583E-01  0.00000000000E+00 0. -1.
       22    1    1    2    0    0  0.81418090915E-02 -0.45587831977E-02  0.15451969001E-01  0.18050897638E-01  0.00000000000E+00 0.  1.
</event>
<event>
 5   0  0.4146200E+04  0.9118800E+02  0.7546771E-02  0.1180000E+00
      -11   -1    0    0    0    0  0.00000000000E+00  0.00000000000E+00  0.34996269501E-01  0.35000000000E-01  0.51099999109E-03 0.  1.
       11   -1    0    0    0    0 -0.00000000000E+00 -0.00000000000E+00 -0.34996269501E-01  0.35000000000E-01  0.51099999109E-03 0. -1.
       22    1    1    2    0    0 -0.35938676606E-02 -0.79734318343E-02 -0.33270576615E-01  0.34400912317E-01  0.00000000000E+00 0. -1.
       22    1    1    2    0    0  0.32595937327E-02  0.79543541178E-02  0.33852944387E-01  0.34927332340E-01  0.00000000000E+00 0.  1.
       22    1    1    2    0    0  0.33427392787E-03  0.19077716444E-04 -0.58236777231E-03  0.67175534262E-03  0.00000000000E+00 0.  1.
</event>
<event>
 5   0  0.4146200E+04  0.9118800E+02  0.7546771E-02  0.1180000E+00
      -11   -1    0    0    0    0  0.00000000000E+00  0.00000000000E+00  0.34996269501E-01  0.35000000000E-01  0.51099999109E-03 0.  1.
       11   -1    0    0    0    0 -0.00000000000E+00 -0.00000000000E+00 -0.34996269501E-01  0.35000000000E-01  0.51099999109E-03 0. -1.
       22    1    1    2    0    0  0.45733701821E-02  0.93213847716E-02 -0.13025057340E-01  0.16657011964E-01  0.00000000000E+00 0. -1.
       22    1    1    2    0    0 -0.48303310965E-02 -0.89113708197E-02  0.32406880675E-01  0.33955125437E-01  0.00000000000E+00 0.  1.
       22    1    1    2    0    0  0.25696091447E-03 -0.41001395188E-03 -0.19381823335E-01  0.19387862598E-01  0.00000000000E+00 0. -1.
</event>
<event>
 5   0  0.4146200E+04  0.9118800E+02  0.7546771E-02  0.1180000E+00
      -11   -1    0    0    0    0  0.00000000000E+00  0.00000000000E+00  0.34996269501E-01  0.35000000000E-01  0.51099999109E-03 0. -1.
       11   -1    0    0    0    0 -0.00000000000E+00 -0.00000000000E+00 -0.34996269501E-01  0.35000000000E-01  0.51099999109E-03 0.  1.
       22    1    1    2    0    0  0.15084969566E-01 -0.15438724151E-02  0.14005174312E-01  0.20641820568E-01  0.00000000000E+00 0. -1.
       22    1    1    2    0    0 -0.15684170130E-01 -0.93756767169E-03 -0.29623594710E-01  0.33532515404E-01  0.00000000000E+00 0.  1.
       22    1    1    2    0    0  0.59920056410E-03  0.24814400868E-02  0.15618420397E-01  0.15825664028E-01  0.00000000000E+00 0.  1.
</event>
<event>
 5   0  0.4146200E+04  0.9118800E+02  0.7546771E-02  0.1180000E+00
      -11   -1    0    0    0    0  0.00000000000E+00  0.00000000000E+00  0.34996269501E-01  0.35000000000E-01  0.51099999109E-03 0. -1.
       11   -1    0    0    0    0 -0.00000000000E+00 -0.00000000000E+00 -0.34996269501E-01  0.35000000000E-01  0.51099999109E-03 0.  1.
       22    1    1    2    0    0 -0.39121919659E-02 -0.10034916980E-01  0.31857360659E-01  0.33628800646E-01  0.00000000000E+00 0. -1.
       22    1    1    2    0    0  0.57724003762E-02  0.10034722571E-01 -0.32422338244E-01  0.34427086435E-01  0.00000000000E+00 0.  1.
       22    1    1    2    0    0 -0.18602084104E-02  0.19440918985E-06  0.56497758568E-03  0.19441129186E-02  0.00000000000E+00 0.  1.
</event>
<event>
 5   0  0.4146200E+04  0.9118800E+02  0.7546771E-02  0.1180000E+00
      -11   -1    0    0    0    0  0.00000000000E+00  0.00000000000E+00  0.34996269501E-01  0.35000000000E-01  0.51099999109E-03 0.  1.
       11   -1    0    0    0    0 -0.00000000000E+00 -0.00000000000E+00 -0.34996269501E-01  0.35000000000E-01  0.51099999109E-03 0. -1.
       22    1    1    2    0    0  0.84665847543E-03 -0.20575787365E-03 -0.11777764555E-02  0.14650338753E-02  0.00000000000E+00 0.  1.
       22    1    1    2    0    0  0.24220219997E-02  0.45647670929E-03  0.34732821952E-01  0.34820159137E-01  0.00000000000E+00 0.  1.
       22    1    1    2    0    0 -0.32686804751E-02 -0.25071883564E-03 -0.33555045496E-01  0.33714806988E-01  0.00000000000E+00 0. -1.
</event>
<event>
 5   0  0.4146200E+04  0.9118800E+02  0.7546771E-02  0.1180000E+00
      -11   -1    0    0    0    0  0.00000000000E+00  0.00000000000E+00  0.34996269501E-01  0.35000000000E-01  0.51099999109E-03 0.  1.
       11   -1    0    0    0    0 -0.00000000000E+00 -0.00000000000E+00 -0.34996269501E-01  0.35000000000E-01  0.51099999109E-03 0.  1.
       22    1    1    2    0    0 -0.25124427255E-03 -0.34770148678E-04 -0.34526037242E-01  0.34526968883E-01  0.00000000000E+00 0.  1.
       22    1    1    2    0    0  0.25443454457E-03 -0.12489180841E-03  0.34985479011E-01  0.34986627110E-01  0.00000000000E+00 0.  1.
       22    1    1    2    0    0 -0.31902720225E-05  0.15966195709E-03 -0.45944176913E-03  0.48640400656E-03  0.00000000000E+00 0. -1.
</event>
<event>
 5   0  0.4146200E+04  0.9118800E+02  0.7546771E-02  0.1180000E+00
      -11   -1    0    0    0    0  0.00000000000E+00  0.00000000000E+00  0.34996269501E-01  0.35000000000E-01  0.51099999109E-03 0. -1.
       11   -1    0    0    0    0 -0.00000000000E+00 -0.00000000000E+00 -0.34996269501E-01  0.35000000000E-01  0.51099999109E-03 0.  1.
       22    1    1    2    0    0  0.11040800821E-01 -0.23384334511E-02  0.32881739502E-01  0.34764584658E-01  0.00000000000E+00 0. -1.
       22    1    1    2    0    0 -0.30075924758E-02 -0.31523926360E-03 -0.33376579408E-02  0.45038815286E-02  0.00000000000E+00 0.  1.
       22    1    1    2    0    0 -0.80332083456E-02  0.26536727147E-02 -0.29544081561E-01  0.30731533813E-01  0.00000000000E+00 0.  1.
</event>
<event>
 5   0  0.4146200E+04  0.9118800E+02  0.7546771E-02  0.1180000E+00
      -11   -1    0    0    0    0  0.00000000000E+00  0.00000000000E+00  0.34996269501E-01  0.35000000000E-01  0.51099999109E-03 0. -1.
       11   -1    0    0    0    0 -0.00000000000E+00 -0.00000000000E+00 -0.34996269501E-01  0.35000000000E-01  0.51099999109E-03 0.  1.
       22    1    1    2    0    0 -0.43241058810E-02  0.18896366676E-01  0.27217219740E-01  0.33414781394E-01  0.00000000000E+00 0. -1.
       22    1    1    2    0    0  0.16254264306E-04  0.64992432570E-04  0.17203066672E-02  0.17216106548E-02  0.00000000000E+00 0. -1.
       22    1    1    2    0    0  0.43078516167E-02 -0.18961359109E-01 -0.28937526407E-01  0.34863607951E-01  0.00000000000E+00 0.  1.
</event>
<event>
 5   0  0.4146200E+04  0.9118800E+02  0.7546771E-02  0.1180000E+00
      -11   -1    0    0    0    0  0.00000000000E+00  0.00000000000E+00  0.34996269501E-01  0.35000000000E-01  0.51099999109E-03 0. -1.
       11   -1    0    0    0    0 -0.00000000000E+00 -0.00000000000E+00 -0.34996269501E-01  0.35000000000E-01  0.51099999109E-03 0.  1.
       22    1    1    2    0    0  0.67786068827E-02 -0.14908197701E-01 -0.19258768158E-01  0.25280506738E-01  0.00000000000E+00 0.  1.
       22    1    1    2    0    0  0.25317787946E-03 -0.18496926007E-03 -0.10561129087E-01  0.10565782520E-01  0.00000000000E+00 0.  1.
       22    1    1    2    0    0 -0.70317847621E-02  0.15093166961E-01  0.29819897244E-01  0.34153710743E-01  0.00000000000E+00 0. -1.
</event>
<event>
 5   0  0.4146200E+04  0.9118800E+02  0.7546771E-02  0.1180000E+00
      -11   -1    0    0    0    0  0.00000000000E+00  0.00000000000E+00  0.34996269501E-01  0.35000000000E-01  0.51099999109E-03 0.  1.
       11   -1    0    0    0    0 -0.00000000000E+00 -0.00000000000E+00 -0.34996269501E-01  0.35000000000E-01  0.51099999109E-03 0. -1.
       22    1    1    2    0    0 -0.13336224325E-02  0.60250797800E-02 -0.32888451671E-01  0.33462372726E-01  0.00000000000E+00 0. -1.
       22    1    1    2    0    0  0.22177576571E-02 -0.57724080003E-02  0.34300013265E-01  0.34852977679E-01  0.00000000000E+00 0.  1.
       22    1    1    2    0    0 -0.88413522468E-03 -0.25267177976E-03 -0.14115615936E-02  0.16846495945E-02  0.00000000000E+00 0. -1.
</event>
<event>
 5   0  0.4146200E+04  0.9118800E+02  0.7546771E-02  0.1180000E+00
      -11   -1    0    0    0    0  0.00000000000E+00  0.00000000000E+00  0.34996269501E-01  0.35000000000E-01  0.51099999109E-03 0. -1.
       11   -1    0    0    0    0 -0.00000000000E+00 -0.00000000000E+00 -0.34996269501E-01  0.35000000000E-01  0.51099999109E-03 0.  1.
       22    1    1    2    0    0  0.96977271602E-02 -0.20056967048E-01  0.26507956339E-01  0.34626573445E-01  0.00000000000E+00 0. -1.
       22    1    1    2    0    0  0.48474588329E-04 -0.17045186119E-03 -0.24846691246E-02  0.24909805863E-02  0.00000000000E+00 0.  1.
       22    1    1    2    0    0 -0.97462017485E-02  0.20227418910E-01 -0.24023287215E-01  0.32882445969E-01  0.00000000000E+00 0.  1.
</event>
<event>
 5   0  0.4146200E+04  0.9118800E+02  0.7546771E-02  0.1180000E+00
      -11   -1    0    0    0    0  0.00000000000E+00  0.00000000000E+00  0.34996269501E-01  0.35000000000E-01  0.51099999109E-03 0.  1.
       11   -1    0    0    0    0 -0.00000000000E+00 -0.00000000000E+00 -0.34996269501E-01  0.35000000000E-01  0.51099999109E-03 0. -1.
       22    1    1    2    0    0 -0.64519670022E-02 -0.10491698021E-01  0.31383702687E-01  0.33714097940E-01  0.00000000000E+00 0.  1.
       22    1    1    2    0    0  0.64457403083E-02  0.10513826475E-01 -0.32710944524E-01  0.34958461164E-01  0.00000000000E+00 0. -1.
       22    1    1    2    0    0  0.62266939503E-05 -0.22128454492E-04  0.13272418370E-02  0.13274408966E-02  0.00000000000E+00 0.  1.
</event>
<event>
 5   0  0.4146200E+04  0.9118800E+02  0.7546771E-02  0.1180000E+00
      -11   -1    0    0    0    0  0.00000000000E+00  0.00000000000E+00  0.34996269501E-01  0.35000000000E-01  0.51099999109E-03 0. -1.
       11   -1    0    0    0    0 -0.00000000000E+00 -0.00000000000E+00 -0.34996269501E-01  0.35000000000E-01  0.51099999109E-03 0.  1.
       22    1    1    2    0    0  0.11119850210E-01  0.13807702309E-01 -0.28642998048E-01  0.33685680176E-01  0.00000000000E+00 0.  1.
       22    1    1    2    0    0 -0.11831119037E-01 -0.12496071401E-01  0.15726769596E-01  0.23312195522E-01  0.00000000000E+00 0. -1.
       22    1    1    2    0    0  0.71126882628E-03 -0.13116309080E-02  0.12916228451E-01  0.13002124303E-01  0.00000000000E+00 0. -1.
</event>
<event>
 5   0  0.4146200E+04  0.9118800E+02  0.7546771E-02  0.1180000E+00
      -11   -1    0    0    0    0  0.00000000000E+00  0.00000000000E+00  0.34996269501E-01  0.35000000000E-01  0.51099999109E-03 0. -1.
       11   -1    0    0    0    0 -0.00000000000E+00 -0.00000000000E+00 -0.34996269501E-01  0.35000000000E-01  0.51099999109E-03 0.  1.
       22    1    1    2    0    0 -0.62889026276E-03  0.55675623818E-03 -0.23953895846E-01  0.23968617121E-01  0.00000000000E+00 0.  1.
       22    1    1    2    0    0 -0.67084549463E-02  0.46312233273E-02 -0.88421835491E-02  0.12026462788E-01  0.00000000000E+00 0.  1.
       22    1    1    2    0    0  0.73373452090E-02 -0.51879795655E-02  0.32796079395E-01  0.34004920091E-01  0.00000000000E+00 0. -1.
</event>
<event>
 5   0  0.4146200E+04  0.9118800E+02  0.7546771E-02  0.1180000E+00
      -11   -1    0    0    0    0  0.00000000000E+00  0.00000000000E+00  0.34996269501E-01  0.35000000000E-01  0.51099999109E-03 0.  1.
       11   -1    0    0    0    0 -0.00000000000E+00 -0.00000000000E+00 -0.34996269501E-01  0.35000000000E-01  0.51099999109E-03 0. -1.
       22    1    1    2    0    0 -0.30007303663E-03 -0.15157123996E-04 -0.93269873162E-04  0.31459948340E-03  0.00000000000E+00 0.  1.
       22    1    1    2    0    0 -0.14022730234E-01 -0.15809082503E-01  0.27668287488E-01  0.34815200492E-01  0.00000000000E+00 0.  1.
       22    1    1    2    0    0  0.14322803271E-01  0.15824239627E-01 -0.27575017614E-01  0.34870200024E-01  0.00000000000E+00 0. -1.
</event>
<event>
 5   0  0.4146200E+04  0.9118800E+02  0.7546771E-02  0.1180000E+00
      -11   -1    0    0    0    0  0.00000000000E+00  0.00000000000E+00  0.34996269501E-01  0.35000000000E-01  0.51099999109E-03 0.  1.
       11   -1    0    0    0    0 -0.00000000000E+00 -0.00000000000E+00 -0.34996269501E-01  0.35000000000E-01  0.51099999109E-03 0.  1.
       22    1    1    2    0    0 -0.26542267141E-03  0.13964789187E-04 -0.62862996862E-03  0.68250996131E-03  0.00000000000E+00 0.  1.
       22    1    1    2    0    0  0.00000000000E+00 -0.00000000000E+00  0.34974329341E-01  0.34970762253E-01  0.00000000000E+00 0.  1.
       22    1    1    2    0    0  0.26542267141E-03 -0.13964789187E-04 -0.34345699373E-01  0.34346727786E-01  0.00000000000E+00 0.  1.
</event>
<event>
 5   0  0.4146200E+04  0.9118800E+02  0.7546771E-02  0.1180000E+00
      -11   -1    0    0    0    0  0.00000000000E+00  0.00000000000E+00  0.34996269501E-01  0.35000000000E-01  0.51099999109E-03 0. -1.
       11   -1    0    0    0    0 -0.00000000000E+00 -0.00000000000E+00 -0.34996269501E-01  0.35000000000E-01  0.51099999109E-03 0.  1.
       22    1    1    2    0    0 -0.66344446896E-02 -0.12790938829E-01 -0.31840366439E-01  0.34949004384E-01  0.00000000000E+00 0.  1.
       22    1    1    2    0    0  0.54019922071E-02  0.11636172558E-01  0.29462063162E-01  0.32134019315E-01  0.00000000000E+00 0. -1.
       22    1    1    2    0    0  0.12324524825E-02  0.11547662714E-02  0.23783032766E-02  0.29169763007E-02  0.00000000000E+00 0.  1.
</event>
<event>
 5   0  0.4146200E+04  0.9118800E+02  0.7546771E-02  0.1180000E+00
      -11   -1    0    0    0    0  0.00000000000E+00  0.00000000000E+00  0.34996269501E-01  0.35000000000E-01  0.51099999109E-03 0. -1.
       11   -1    0    0    0    0 -0.00000000000E+00 -0.00000000000E+00 -0.34996269501E-01  0.35000000000E-01  0.51099999109E-03 0.  1.
       22    1    1    2    0    0 -0.10294169961E-02  0.10442741935E-02  0.35994769191E-02  0.38867006618E-02  0.00000000000E+00 0. -1.
       22    1    1    2    0    0  0.78576698246E-02  0.95269163549E-02 -0.32405186552E-01  0.34678541287E-01  0.00000000000E+00 0.  1.
       22    1    1    2    0    0 -0.68282528285E-02 -0.10571190548E-01  0.28805709633E-01  0.31434758051E-01  0.00000000000E+00 0. -1.
</event>
<event>
 5   0  0.4146200E+04  0.9118800E+02  0.7546771E-02  0.1180000E+00
      -11   -1    0    0    0    0  0.00000000000E+00  0.00000000000E+00  0.34996269501E-01  0.35000000000E-01  0.51099999109E-03 0. -1.
       11   -1    0    0    0    0 -0.00000000000E+00 -0.00000000000E+00 -0.34996269501E-01  0.35000000000E-01  0.51099999109E-03 0.  1.
       22    1    1    2    0    0  0.25082475515E-02  0.15711257839E-01  0.17435770069E-01  0.23603834573E-01  0.00000000000E+00 0. -1.
       22    1    1    2    0    0 -0.18840934701E-02 -0.19711009306E-01 -0.28449572920E-01  0.34661966121E-01  0.00000000000E+00 0.  1.
       22    1    1    2    0    0 -0.62415408141E-03  0.39997514663E-02  0.11013802851E-01  0.11734199306E-01  0.00000000000E+00 0. -1.
</event>
<event>
 5   0  0.4146200E+04  0.9118800E+02  0.7546771E-02  0.1180000E+00
      -11   -1    0    0    0    0  0.00000000000E+00  0.00000000000E+00  0.34996269501E-01  0.35000000000E-01  0.51099999109E-03 0. -1.
       11   -1    0    0    0    0 -0.00000000000E+00 -0.00000000000E+00 -0.34996269501E-01  0.35000000000E-01  0.51099999109E-03 0. -1.
       22    1    1    2    0    0 -0.82927137602E-04  0.26259059143E-03 -0.58523666687E-03  0.64678642928E-03  0.00000000000E+00 0.  1.
       22    1    1    2    0    0  0.00000000000E+00  0.00000000000E+00  0.34969582781E-01  0.34967764781E-01  0.00000000000E+00 0. -1.
       22    1    1    2    0    0  0.82927137602E-04 -0.26259059143E-03 -0.34384346115E-01  0.34385448790E-01  0.00000000000E+00 0. -1.
</event>
<event>
 5   0  0.4146200E+04  0.9118800E+02  0.7546771E-02  0.1180000E+00
      -11   -1    0    0    0    0  0.00000000000E+00  0.00000000000E+00  0.34996269501E-01  0.35000000000E-01  0.51099999109E-03 0. -1.
       11   -1    0    0    0    0 -0.00000000000E+00 -0.00000000000E+00 -0.34996269501E-01  0.35000000000E-01  0.51099999109E-03 0.  1.
       22    1    1    2    0    0  0.64355166659E-05  0.23797880918E-03  0.20597330120E-02  0.20734452996E-02  0.00000000000E+00 0.  1.
       22    1    1    2    0    0  0.12113556757E-01 -0.93154040057E-02  0.29331795292E-01  0.33073693839E-01  0.00000000000E+00 0. -1.
       22    1    1    2    0    0 -0.12119992274E-01  0.90774251965E-02 -0.31391528304E-01  0.34852860861E-01  0.00000000000E+00 0.  1.
</event>
<event>
 5   0  0.4146200E+04  0.9118800E+02  0.7546771E-02  0.1180000E+00
      -11   -1    0    0    0    0  0.00000000000E+00  0.00000000000E+00  0.34996269501E-01  0.35000000000E-01  0.51099999109E-03 0. -1.
       11   -1    0    0    0    0 -0.00000000000E+00 -0.00000000000E+00 -0.34996269501E-01  0.35000000000E-01  0.51099999109E-03 0.  1.
       22    1    1    2    0    0  0.41063705225E-02 -0.17539471073E-01  0.28213632770E-01  0.33473936107E-01  0.00000000000E+00 0. -1.
       22    1    1    2    0    0  0.66285222162E-04 -0.33394666812E-04  0.16358600739E-02  0.16375430119E-02  0.00000000000E+00 0. -1.
       22    1    1    2    0    0 -0.41726557446E-02  0.17572865740E-01 -0.29849492844E-01  0.34888520882E-01  0.00000000000E+00 0.  1.
</event>
<event>
 5   0  0.4146200E+04  0.9118800E+02  0.7546771E-02  0.1180000E+00
      -11   -1    0    0    0    0  0.00000000000E+00  0.00000000000E+00  0.34996269501E-01  0.35000000000E-01  0.51099999109E-03 0. -1.
       11   -1    0    0    0    0 -0.00000000000E+00 -0.00000000000E+00 -0.34996269501E-01  0.35000000000E-01  0.51099999109E-03 0.  1.
       22    1    1    2    0    0  0.88414142661E-02 -0.74561568999E-02 -0.31804107923E-01  0.33841781317E-01  0.00000000000E+00 0.  1.
       22    1    1    2    0    0 -0.86364035261E-02  0.74709427025E-02  0.33012869639E-01  0.34932105756E-01  0.00000000000E+00 0. -1.
       22    1    1    2    0    0 -0.20501073991E-03 -0.14785802639E-04 -0.12087617163E-02  0.12261129272E-02  0.00000000000E+00 0. -1.
</event>
<event>
 5   0  0.4146200E+04  0.9118800E+02  0.7546771E-02  0.1180000E+00
      -11   -1    0    0    0    0  0.00000000000E+00  0.00000000000E+00  0.34996269501E-01  0.35000000000E-01  0.51099999109E-03 0. -1.
       11   -1    0    0    0    0 -0.00000000000E+00 -0.00000000000E+00 -0.34996269501E-01  0.35000000000E-01  0.51099999109E-03 0.  1.
       22    1    1    2    0    0 -0.51904179043E-02 -0.34095090849E-01 -0.84832778463E-03  0.34498337903E-01  0.00000000000E+00 0.  1.
       22    1    1    2    0    0  0.51429058423E-02  0.33384565365E-01  0.23290783147E-02  0.33858577804E-01  0.00000000000E+00 0. -1.
       22    1    1    2    0    0  0.47512061956E-04  0.71052548409E-03 -0.14807505301E-02  0.16430842924E-02  0.00000000000E+00 0. -1.
</event>
<event>
 5   0  0.4146200E+04  0.9118800E+02  0.7546771E-02  0.1180000E+00
      -11   -1    0    0    0    0  0.00000000000E+00  0.00000000000E+00  0.34996269501E-01  0.35000000000E-01  0.51099999109E-03 0. -1.
       11   -1    0    0    0    0 -0.00000000000E+00 -0.00000000000E+00 -0.34996269501E-01  0.35000000000E-01  0.51099999109E-03 0.  1.
       22    1    1    2    0    0  0.23265311071E-05  0.29768187769E-05  0.64203051750E-03  0.64204163385E-03  0.00000000000E+00 0.  1.
       22    1    1    2    0    0  0.18873454881E-01 -0.79229993239E-02 -0.28313764142E-01  0.34937808422E-01  0.00000000000E+00 0.  1.
       22    1    1    2    0    0 -0.18875781413E-01  0.79200225051E-02  0.27671733624E-01  0.34420149944E-01  0.00000000000E+00 0. -1.
</event>
<event>
 5   0  0.4146200E+04  0.9118800E+02  0.7546771E-02  0.1180000E+00
      -11   -1    0    0    0    0  0.00000000000E+00  0.00000000000E+00  0.34996269501E-01  0.35000000000E-01  0.51099999109E-03 0.  1.
       11   -1    0    0    0    0 -0.00000000000E+00 -0.00000000000E+00 -0.34996269501E-01  0.35000000000E-01  0.51099999109E-03 0. -1.
       22    1    1    2    0    0 -0.56221580732E-02 -0.11525146989E-01 -0.32466174761E-01  0.34906878665E-01  0.00000000000E+00 0. -1.
       22    1    1    2    0    0  0.54097163532E-02  0.11775951861E-01  0.31184539265E-01  0.33770009808E-01  0.00000000000E+00 0.  1.
       22    1    1    2    0    0  0.21244172005E-03 -0.25080487182E-03  0.12816354959E-02  0.13231115268E-02  0.00000000000E+00 0. -1.
</event>
<event>
 5   0  0.4146200E+04  0.9118800E+02  0.7546771E-02  0.1180000E+00
      -11   -1    0    0    0    0  0.00000000000E+00  0.00000000000E+00  0.34996269501E-01  0.35000000000E-01  0.51099999109E-03 0. -1.
       11   -1    0    0    0    0 -0.00000000000E+00 -0.00000000000E+00 -0.34996269501E-01  0.35000000000E-01  0.51099999109E-03 0.  1.
       22    1    1    2    0    0 -0.14493942455E-01 -0.45819276889E-02 -0.21109002907E-01  0.26012659091E-01  0.00000000000E+00 0.  1.
       22    1    1    2    0    0  0.69727600125E-03 -0.64150932189E-03  0.27780438907E-01  0.27796591768E-01  0.00000000000E+00 0. -1.
       22    1    1    2    0    0  0.13796666454E-01  0.52234370107E-02 -0.66714359999E-02  0.16190749141E-01  0.00000000000E+00 0. -1.
</event>
<event>
 5   0  0.4146200E+04  0.9118800E+02  0.7546771E-02  0.1180000E+00
      -11   -1    0    0    0    0  0.00000000000E+00  0.00000000000E+00  0.34996269501E-01  0.35000000000E-01  0.51099999109E-03 0.  1.
       11   -1    0    0    0    0 -0.00000000000E+00 -0.00000000000E+00 -0.34996269501E-01  0.35000000000E-01  0.51099999109E-03 0.  1.
       22    1    1    2    0    0 -0.23660304682E-03  0.58346912732E-03  0.34743062922E-01  0.34748767438E-01  0.00000000000E+00 0.  1.
       22    1    1    2    0    0 -0.31253571241E-04  0.13972492815E-02 -0.30788974545E-01  0.30820678706E-01  0.00000000000E+00 0.  1.
       22    1    1    2    0    0  0.26785661806E-03 -0.19807184088E-02 -0.39540883768E-02  0.44305538564E-02  0.00000000000E+00 0. -1.
</event>
<event>
 5   0  0.4146200E+04  0.9118800E+02  0.7546771E-02  0.1180000E+00
      -11   -1    0    0    0    0  0.00000000000E+00  0.00000000000E+00  0.34996269501E-01  0.35000000000E-01  0.51099999109E-03 0. -1.
       11   -1    0    0    0    0 -0.00000000000E+00 -0.00000000000E+00 -0.34996269501E-01  0.35000000000E-01  0.51099999109E-03 0.  1.
       22    1    1    2    0    0  0.44480606112E-02  0.98354408351E-02 -0.34080087864E-02  0.11319702448E-01  0.00000000000E+00 0. -1.
       22    1    1    2    0    0 -0.49010483563E-02 -0.10345006402E-01 -0.26446686268E-01  0.28817818221E-01  0.00000000000E+00 0.  1.
       22    1    1    2    0    0  0.45298774513E-03  0.50956556715E-03  0.29854695055E-01  0.29862479331E-01  0.00000000000E+00 0. -1.
</event>
<event>
 5   0  0.4146200E+04  0.9118800E+02  0.7546771E-02  0.1180000E+00
      -11   -1    0    0    0    0  0.00000000000E+00  0.00000000000E+00  0.34996269501E-01  0.35000000000E-01  0.51099999109E-03 0.  1.
       11   -1    0    0    0    0 -0.00000000000E+00 -0.00000000000E+00 -0.34996269501E-01  0.35000000000E-01  0.51099999109E-03 0. -1.
       22    1    1    2    0    0 -0.19424915781E-02  0.12595715149E-02  0.16918982222E-01  0.17076643504E-01  0.00000000000E+00 0. -1.
       22    1    1    2    0    0  0.12827375793E-01  0.15808997004E-02  0.14575322148E-01  0.19480267691E-01  0.00000000000E+00 0.  1.
       22    1    1    2    0    0 -0.10884884215E-01 -0.28404712153E-02 -0.31494304370E-01  0.33443088805E-01  0.00000000000E+00 0. -1.
</event>
<event>
 5   0  0.4146200E+04  0.9118800E+02  0.7546771E-02  0.1180000E+00
      -11   -1    0    0    0    0  0.00000000000E+00  0.00000000000E+00  0.34996269501E-01  0.35000000000E-01  0.51099999109E-03 0. -1.
       11   -1    0    0    0    0 -0.00000000000E+00 -0.00000000000E+00 -0.34996269501E-01  0.35000000000E-01  0.51099999109E-03 0.  1.
       22    1    1    2    0    0  0.88383353673E-02  0.14078498213E-01 -0.29758137344E-01  0.34086170542E-01  0.00000000000E+00 0.  1.
       22    1    1    2    0    0  0.45527182947E-03  0.22083733689E-03 -0.78388591135E-03  0.93301591095E-03  0.00000000000E+00 0.  1.
       22    1    1    2    0    0 -0.92936071968E-02 -0.14299335550E-01  0.30542023256E-01  0.34980813547E-01  0.00000000000E+00 0. -1.
</event>
<event>
 5   0  0.4146200E+04  0.9118800E+02  0.7546771E-02  0.1180000E+00
      -11   -1    0    0    0    0  0.00000000000E+00  0.00000000000E+00  0.34996269501E-01  0.35000000000E-01  0.51099999109E-03 0. -1.
       11   -1    0    0    0    0 -0.00000000000E+00 -0.00000000000E+00 -0.34996269501E-01  0.35000000000E-01  0.51099999109E-03 0.  1.
       22    1    1    2    0    0 -0.90549647792E-03 -0.86095093087E-03  0.75208480354E-03  0.14583524706E-02  0.00000000000E+00 0.  1.
       22    1    1    2    0    0  0.71963552953E-02 -0.13239145653E-01 -0.31062968837E-01  0.34524926359E-01  0.00000000000E+00 0.  1.
       22    1    1    2    0    0 -0.62908588174E-02  0.14100096584E-01  0.30310884033E-01  0.34016721170E-01  0.00000000000E+00 0. -1.
</event>
<event>
 5   0  0.4146200E+04  0.9118800E+02  0.7546771E-02  0.1180000E+00
      -11   -1    0    0    0    0  0.00000000000E+00  0.00000000000E+00  0.34996269501E-01  0.35000000000E-01  0.51099999109E-03 0. -1.
       11   -1    0    0    0    0 -0.00000000000E+00 -0.00000000000E+00 -0.34996269501E-01  0.35000000000E-01  0.51099999109E-03 0.  1.
       22    1    1    2    0    0  0.27285269532E-02  0.12027131467E-01 -0.32717897496E-01  0.34965090694E-01  0.00000000000E+00 0.  1.
       22    1    1    2    0    0 -0.26188201004E-02 -0.11762113196E-01  0.30429089973E-01  0.32728199494E-01  0.00000000000E+00 0. -1.
       22    1    1    2    0    0 -0.10970685284E-03 -0.26501827163E-03  0.22888075230E-02  0.23067098116E-02  0.00000000000E+00 0.  1.
</event>
<event>
 5   0  0.4146200E+04  0.9118800E+02  0.7546771E-02  0.1180000E+00
      -11   -1    0    0    0    0  0.00000000000E+00  0.00000000000E+00  0.34996269501E-01  0.35000000000E-01  0.51099999109E-03 0.  1.
       11   -1    0    0    0    0 -0.00000000000E+00 -0.00000000000E+00 -0.34996269501E-01  0.35000000000E-01  0.51099999109E-03 0. -1.
       22    1    1    2    0    0 -0.70378409384E-03  0.71629967114E-03 -0.13886913838E-03  0.10137464709E-02  0.00000000000E+00 0.  1.
       22    1    1    2    0    0  0.39324823272E-02 -0.17260919127E-01 -0.29780485441E-01  0.34645072658E-01  0.00000000000E+00 0. -1.
       22    1    1    2    0    0 -0.32286982333E-02  0.16544619456E-01  0.29919354579E-01  0.34341180872E-01  0.00000000000E+00 0.  1.
</event>
<event>
 5   0  0.4146200E+04  0.9118800E+02  0.7546771E-02  0.1180000E+00
      -11   -1    0    0    0    0  0.00000000000E+00  0.00000000000E+00  0.34996269501E-01  0.35000000000E-01  0.51099999109E-03 0. -1.
       11   -1    0    0    0    0 -0.00000000000E+00 -0.00000000000E+00 -0.34996269501E-01  0.35000000000E-01  0.51099999109E-03 0.  1.
       22    1    1    2    0    0 -0.60084933808E-02  0.27754865350E-02 -0.73584405531E-02  0.98970685350E-02  0.00000000000E+00 0.  1.
       22    1    1    2    0    0  0.18275067237E-02  0.60258952963E-02 -0.25274086702E-01  0.26046701395E-01  0.00000000000E+00 0.  1.
       22    1    1    2    0    0  0.41809866571E-02 -0.88013818313E-02  0.32632527255E-01  0.34056230070E-01  0.00000000000E+00 0. -1.
</event>
<event>
 5   0  0.4146200E+04  0.9118800E+02  0.7546771E-02  0.1180000E+00
      -11   -1    0    0    0    0  0.00000000000E+00  0.00000000000E+00  0.34996269501E-01  0.35000000000E-01  0.51099999109E-03 0.  1.
       11   -1    0    0    0    0 -0.00000000000E+00 -0.00000000000E+00 -0.34996269501E-01  0.35000000000E-01  0.51099999109E-03 0. -1.
       22    1    1    2    0    0  0.84995538971E-02 -0.13321890479E-01 -0.21220934966E-01  0.26458330696E-01  0.00000000000E+00 0. -1.
       22    1    1    2    0    0 -0.79525105398E-02  0.12590129840E-01  0.30645992722E-01  0.34072432599E-01  0.00000000000E+00 0.  1.
       22    1    1    2    0    0 -0.54704335731E-03  0.73176063878E-03 -0.94250577560E-02  0.94692367048E-02  0.00000000000E+00 0.  1.
</event>
<event>
 5   0  0.4146200E+04  0.9118800E+02  0.7546771E-02  0.1180000E+00
      -11   -1    0    0    0    0  0.00000000000E+00  0.00000000000E+00  0.34996269501E-01  0.35000000000E-01  0.51099999109E-03 0. -1.
       11   -1    0    0    0    0 -0.00000000000E+00 -0.00000000000E+00 -0.34996269501E-01  0.35000000000E-01  0.51099999109E-03 0.  1.
       22    1    1    2    0    0 -0.38811242060E-02  0.16510328222E-01 -0.30601597897E-01  0.34987309942E-01  0.00000000000E+00 0.  1.
       22    1    1    2    0    0  0.16257645535E-03 -0.11101978252E-03  0.33719717126E-03  0.39045925300E-03  0.00000000000E+00 0.  1.
       22    1    1    2    0    0  0.37185477506E-02 -0.16399308440E-01  0.30264400726E-01  0.34622230805E-01  0.00000000000E+00 0. -1.
</event>
<event>
 5   0  0.4146200E+04  0.9118800E+02  0.7546771E-02  0.1180000E+00
      -11   -1    0    0    0    0  0.00000000000E+00  0.00000000000E+00  0.34996269501E-01  0.35000000000E-01  0.51099999109E-03 0.  1.
       11   -1    0    0    0    0 -0.00000000000E+00 -0.00000000000E+00 -0.34996269501E-01  0.35000000000E-01  0.51099999109E-03 0. -1.
       22    1    1    2    0    0  0.14658159359E-01 -0.28359513414E-01  0.99157596901E-02  0.33428220519E-01  0.00000000000E+00 0. -1.
       22    1    1    2    0    0 -0.23231210969E-02 -0.77691482780E-03 -0.35255285516E-02  0.42929989341E-02  0.00000000000E+00 0. -1.
       22    1    1    2    0    0 -0.12335038262E-01  0.29136428241E-01 -0.63902311386E-02  0.32278780547E-01  0.00000000000E+00 0.  1.
</event>
<event>
 5   0  0.4146200E+04  0.9118800E+02  0.7546771E-02  0.1180000E+00
      -11   -1    0    0    0    0  0.00000000000E+00  0.00000000000E+00  0.34996269501E-01  0.35000000000E-01  0.51099999109E-03 0. -1.
       11   -1    0    0    0    0 -0.00000000000E+00 -0.00000000000E+00 -0.34996269501E-01  0.35000000000E-01  0.51099999109E-03 0.  1.
       22    1    1    2    0    0 -0.10990589816E-02 -0.15984731820E-02 -0.33313707885E-02  0.38550069376E-02  0.00000000000E+00 0.  1.
       22    1    1    2    0    0  0.23985816889E-01  0.10000792167E-01 -0.19696945323E-01  0.32608356457E-01  0.00000000000E+00 0.  1.
       22    1    1    2    0    0 -0.22886757907E-01 -0.84023189854E-02  0.23028316111E-01  0.33536636605E-01  0.00000000000E+00 0. -1.
</event>
<event>
 5   0  0.4146200E+04  0.9118800E+02  0.7546771E-02  0.1180000E+00
      -11   -1    0    0    0    0  0.00000000000E+00  0.00000000000E+00  0.34996269501E-01  0.35000000000E-01  0.51099999109E-03 0. -1.
       11   -1    0    0    0    0 -0.00000000000E+00 -0.00000000000E+00 -0.34996269501E-01  0.35000000000E-01  0.51099999109E-03 0. -1.
       22    1    1    2    0    0 -0.12094657957E-03 -0.31859259216E-03 -0.84565040820E-03  0.91173128046E-03  0.00000000000E+00 0.  1.
       22    1    1    2    0    0  0.46994463202E-03  0.69235975341E-03  0.34960036813E-01  0.34970049814E-01  0.00000000000E+00 0. -1.
       22    1    1    2    0    0 -0.34899805245E-03 -0.37376716125E-03 -0.34114386405E-01  0.34118218906E-01  0.00000000000E+00 0. -1.
</event>
<event>
 5   0  0.4146200E+04  0.9118800E+02  0.7546771E-02  0.1180000E+00
      -11   -1    0    0    0    0  0.00000000000E+00  0.00000000000E+00  0.34996269501E-01  0.35000000000E-01  0.51099999109E-03 0. -1.
       11   -1    0    0    0    0 -0.00000000000E+00 -0.00000000000E+00 -0.34996269501E-01  0.35000000000E-01  0.51099999109E-03 0.  1.
       22    1    1    2    0    0 -0.51047770202E-02  0.35567153885E-02  0.24944829905E-01  0.25709016157E-01  0.00000000000E+00 0. -1.
       22    1    1    2    0    0  0.35692045840E-02 -0.13487597800E-01 -0.29967994857E-01  0.33056545971E-01  0.00000000000E+00 0.  1.
       22    1    1    2    0    0  0.15355724362E-02  0.99308824111E-02  0.50231649516E-02  0.11234437872E-01  0.00000000000E+00 0.  1.
</event>
<event>
 5   0  0.4146200E+04  0.9118800E+02  0.7546771E-02  0.1180000E+00
      -11   -1    0    0    0    0  0.00000000000E+00  0.00000000000E+00  0.34996269501E-01  0.35000000000E-01  0.51099999109E-03 0.  1.
       11   -1    0    0    0    0 -0.00000000000E+00 -0.00000000000E+00 -0.34996269501E-01  0.35000000000E-01  0.51099999109E-03 0. -1.
       22    1    1    2    0    0  0.13991262931E-02  0.20020675816E-02 -0.21230102917E-02  0.32362017372E-02  0.00000000000E+00 0. -1.
       22    1    1    2    0    0 -0.66185476437E-02 -0.14188259038E-01  0.31144299001E-01  0.34857986570E-01  0.00000000000E+00 0.  1.
       22    1    1    2    0    0  0.52194213507E-02  0.12186191456E-01 -0.29021288709E-01  0.31905811693E-01  0.00000000000E+00 0. -1.
</event>
<event>
 5   0  0.4146200E+04  0.9118800E+02  0.7546771E-02  0.1180000E+00
      -11   -1    0    0    0    0  0.00000000000E+00  0.00000000000E+00  0.34996269501E-01  0.35000000000E-01  0.51099999109E-03 0. -1.
       11   -1    0    0    0    0 -0.00000000000E+00 -0.00000000000E+00 -0.34996269501E-01  0.35000000000E-01  0.51099999109E-03 0.  1.
       22    1    1    2    0    0 -0.74067095738E-02  0.38824109255E-02  0.33539472194E-01  0.34566293645E-01  0.00000000000E+00 0. -1.
       22    1    1    2    0    0 -0.67330246640E-03 -0.13744822116E-02 -0.14728091282E-01  0.14807403904E-01  0.00000000000E+00 0.  1.
       22    1    1    2    0    0  0.80800120402E-02 -0.25079287139E-02 -0.18811380912E-01  0.20626302451E-01  0.00000000000E+00 0.  1.
</event>
<event>
 5   0  0.4146200E+04  0.9118800E+02  0.7546771E-02  0.1180000E+00
      -11   -1    0    0    0    0  0.00000000000E+00  0.00000000000E+00  0.34996269501E-01  0.35000000000E-01  0.51099999109E-03 0. -1.
       11   -1    0    0    0    0 -0.00000000000E+00 -0.00000000000E+00 -0.34996269501E-01  0.35000000000E-01  0.51099999109E-03 0.  1.
       22    1    1    2    0    0 -0.12965019946E-01 -0.28570518177E-03 -0.30290203343E-01  0.32949503611E-01  0.00000000000E+00 0.  1.
       22    1    1    2    0    0  0.13136284364E-01  0.32298259312E-03  0.32384514528E-01  0.34948863584E-01  0.00000000000E+00 0. -1.
       22    1    1    2    0    0 -0.17126441776E-03 -0.37277411351E-04 -0.20943111847E-02  0.21016328044E-02  0.00000000000E+00 0.  1.
</event>
<event>
 5   0  0.4146200E+04  0.9118800E+02  0.7546771E-02  0.1180000E+00
      -11   -1    0    0    0    0  0.00000000000E+00  0.00000000000E+00  0.34996269501E-01  0.35000000000E-01  0.51099999109E-03 0. -1.
       11   -1    0    0    0    0 -0.00000000000E+00 -0.00000000000E+00 -0.34996269501E-01  0.35000000000E-01  0.51099999109E-03 0. -1.
       22    1    1    2    0    0  0.23006808929E-03  0.86552452233E-03 -0.34251516816E-01  0.34263223261E-01  0.00000000000E+00 0. -1.
       22    1    1    2    0    0 -0.27130708775E-03 -0.12457335049E-02  0.34932497497E-01  0.34955755476E-01  0.00000000000E+00 0. -1.
       22    1    1    2    0    0  0.41238998456E-04  0.38020898255E-03 -0.68098068079E-03  0.78102126284E-03  0.00000000000E+00 0. -1.
</event>
<event>
 5   0  0.4146200E+04  0.9118800E+02  0.7546771E-02  0.1180000E+00
      -11   -1    0    0    0    0  0.00000000000E+00  0.00000000000E+00  0.34996269501E-01  0.35000000000E-01  0.51099999109E-03 0.  1.
       11   -1    0    0    0    0 -0.00000000000E+00 -0.00000000000E+00 -0.34996269501E-01  0.35000000000E-01  0.51099999109E-03 0.  1.
       22    1    1    2    0    0  0.48642051335E-03 -0.49761757711E-04 -0.34019660079E-01  0.34023173765E-01  0.00000000000E+00 0.  1.
       22    1    1    2    0    0 -0.20535290051E-04  0.15084155153E-03  0.34940007491E-01  0.34940339127E-01  0.00000000000E+00 0.  1.
       22    1    1    2    0    0 -0.46588522330E-03 -0.10107979382E-03 -0.92034741140E-03  0.10364871073E-02  0.00000000000E+00 0. -1.
</event>
<event>
 5   0  0.4146200E+04  0.9118800E+02  0.7546771E-02  0.1180000E+00
      -11   -1    0    0    0    0  0.00000000000E+00  0.00000000000E+00  0.34996269501E-01  0.35000000000E-01  0.51099999109E-03 0.  1.
       11   -1    0    0    0    0 -0.00000000000E+00 -0.00000000000E+00 -0.34996269501E-01  0.35000000000E-01  0.51099999109E-03 0. -1.
       22    1    1    2    0    0  0.28568145837E-03  0.18258121516E-01 -0.28215908671E-01  0.33609196916E-01  0.00000000000E+00 0. -1.
       22    1    1    2    0    0  0.35048559049E-03  0.37717357495E-03  0.11000921906E-01  0.11012964308E-01  0.00000000000E+00 0.  1.
       22    1    1    2    0    0 -0.63616704887E-03 -0.18635295091E-01  0.17214986765E-01  0.25377838776E-01  0.00000000000E+00 0.  1.
</event>
<event>
 5   0  0.4146200E+04  0.9118800E+02  0.7546771E-02  0.1180000E+00
      -11   -1    0    0    0    0  0.00000000000E+00  0.00000000000E+00  0.34996269501E-01  0.35000000000E-01  0.51099999109E-03 0.  1.
       11   -1    0    0    0    0 -0.00000000000E+00 -0.00000000000E+00 -0.34996269501E-01  0.35000000000E-01  0.51099999109E-03 0. -1.
       22    1    1    2    0    0 -0.17700983410E-04 -0.65984069772E-05  0.84185276555E-03  0.84206469031E-03  0.00000000000E+00 0.  1.
       22    1    1    2    0    0 -0.70620241954E-02  0.11253216287E-01 -0.32344589606E-01  0.34966834848E-01  0.00000000000E+00 0. -1.
       22    1    1    2    0    0  0.70797251788E-02 -0.11246617880E-01  0.31502736840E-01  0.34191100461E-01  0.00000000000E+00 0.  1.
</event>
<event>
 5   0  0.4146200E+04  0.9118800E+02  0.7546771E-02  0.1180000E+00
      -11   -1    0    0    0    0  0.00000000000E+00  0.00000000000E+00  0.34996269501E-01  0.35000000000E-01  0.51099999109E-03 0. -1.
       11   -1    0    0    0    0 -0.00000000000E+00 -0.00000000000E+00 -0.34996269501E-01  0.35000000000E-01  0.51099999109E-03 0. -1.
       22    1    1    2    0    0  0.53162346622E-03 -0.64105728585E-03 -0.31384032885E-01  0.31395080794E-01  0.00000000000E+00 0. -1.
       22    1    1    2    0    0  0.11999532055E-03  0.17974866193E-02 -0.33722628374E-02  0.38232857163E-02  0.00000000000E+00 0.  1.
       22    1    1    2    0    0 -0.65161878676E-03 -0.11564293334E-02  0.34756295722E-01  0.34781633489E-01  0.00000000000E+00 0. -1.
</event>
<event>
 5   0  0.4146200E+04  0.9118800E+02  0.7546771E-02  0.1180000E+00
      -11   -1    0    0    0    0  0.00000000000E+00  0.00000000000E+00  0.34996269501E-01  0.35000000000E-01  0.51099999109E-03 0.  1.
       11   -1    0    0    0    0 -0.00000000000E+00 -0.00000000000E+00 -0.34996269501E-01  0.35000000000E-01  0.51099999109E-03 0.  1.
       22    1    1    2    0    0  0.16486377618E-02  0.20560173410E-02 -0.31173012633E-01  0.31284212158E-01  0.00000000000E+00 0.  1.
       22    1    1    2    0    0 -0.16486377618E-02 -0.20560173410E-02 -0.33110312768E-02  0.42318012586E-02  0.00000000000E+00 0. -1.
       22    1    1    2    0    0  0.00000000000E+00 -0.00000000000E+00  0.34484043910E-01  0.34483986583E-01  0.00000000000E+00 0.  1.
</event>
<event>
 5   0  0.4146200E+04  0.9118800E+02  0.7546771E-02  0.1180000E+00
      -11   -1    0    0    0    0  0.00000000000E+00  0.00000000000E+00  0.34996269501E-01  0.35000000000E-01  0.51099999109E-03 0.  1.
       11   -1    0    0    0    0 -0.00000000000E+00 -0.00000000000E+00 -0.34996269501E-01  0.35000000000E-01  0.51099999109E-03 0. -1.
       22    1    1    2    0    0 -0.67066794717E-04  0.17080620100E-03 -0.27624020018E-03  0.33163437918E-03  0.00000000000E+00 0. -1.
       22    1    1    2    0    0  0.15992830269E-03 -0.11508957156E-02 -0.34679402185E-01  0.34698862718E-01  0.00000000000E+00 0. -1.
       22    1    1    2    0    0 -0.92861507970E-04  0.98008951457E-03  0.34955642385E-01  0.34969502903E-01  0.00000000000E+00 0.  1.
</event>
<event>
 5   0  0.4146200E+04  0.9118800E+02  0.7546771E-02  0.1180000E+00
      -11   -1    0    0    0    0  0.00000000000E+00  0.00000000000E+00  0.34996269501E-01  0.35000000000E-01  0.51099999109E-03 0.  1.
       11   -1    0    0    0    0 -0.00000000000E+00 -0.00000000000E+00 -0.34996269501E-01  0.35000000000E-01  0.51099999109E-03 0. -1.
       22    1    1    2    0    0 -0.71078537837E-03 -0.14082354636E-02 -0.26388207057E-01  0.26435313780E-01  0.00000000000E+00 0. -1.
       22    1    1    2    0    0 -0.27636583470E-02  0.40332176343E-02  0.34239410920E-01  0.34586730289E-01  0.00000000000E+00 0.  1.
       22    1    1    2    0    0  0.34744437253E-02 -0.26249821707E-02 -0.78512038633E-02  0.89779559311E-02  0.00000000000E+00 0. -1.
</event>
<event>
 5   0  0.4146200E+04  0.9118800E+02  0.7546771E-02  0.1180000E+00
      -11   -1    0    0    0    0  0.00000000000E+00  0.00000000000E+00  0.34996269501E-01  0.35000000000E-01  0.51099999109E-03 0.  1.
       11   -1    0    0    0    0 -0.00000000000E+00 -0.00000000000E+00 -0.34996269501E-01  0.35000000000E-01  0.51099999109E-03 0. -1.
       22    1    1    2    0    0 -0.34010908174E-01  0.63890168240E-02  0.31297740887E-02  0.34747041552E-01  0.00000000000E+00 0.  1.
       22    1    1    2    0    0  0.33731178503E-01 -0.63315090803E-02 -0.23248955232E-02  0.34398917855E-01  0.00000000000E+00 0. -1.
       22    1    1    2    0    0  0.27972967099E-03 -0.57507743648E-04 -0.80487856543E-03  0.85404059301E-03  0.00000000000E+00 0. -1.
</event>
<event>
 5   0  0.4146200E+04  0.9118800E+02  0.7546771E-02  0.1180000E+00
      -11   -1    0    0    0    0  0.00000000000E+00  0.00000000000E+00  0.34996269501E-01  0.35000000000E-01  0.51099999109E-03 0.  1.
       11   -1    0    0    0    0 -0.00000000000E+00 -0.00000000000E+00 -0.34996269501E-01  0.35000000000E-01  0.51099999109E-03 0. -1.
       22    1    1    2    0    0  0.10777287157E-02 -0.10068638961E-02 -0.17917496194E-02  0.23206983407E-02  0.00000000000E+00 0.  1.
       22    1    1    2    0    0 -0.16680879515E-02  0.80443026624E-03 -0.32914941997E-01  0.32966999138E-01  0.00000000000E+00 0. -1.
       22    1    1    2    0    0  0.59035923585E-03  0.20243362986E-03  0.34706691616E-01  0.34712302522E-01  0.00000000000E+00 0.  1.
</event>
<event>
 5   0  0.4146200E+04  0.9118800E+02  0.7546771E-02  0.1180000E+00
      -11   -1    0    0    0    0  0.00000000000E+00  0.00000000000E+00  0.34996269501E-01  0.35000000000E-01  0.51099999109E-03 0. -1.
       11   -1    0    0    0    0 -0.00000000000E+00 -0.00000000000E+00 -0.34996269501E-01  0.35000000000E-01  0.51099999109E-03 0.  1.
       22    1    1    2    0    0  0.19177254074E-01  0.50895345299E-03 -0.29103225508E-01  0.34857192119E-01  0.00000000000E+00 0.  1.
       22    1    1    2    0    0 -0.15223775372E-03 -0.48211740105E-04  0.21074767829E-02  0.21135181797E-02  0.00000000000E+00 0. -1.
       22    1    1    2    0    0 -0.19025016321E-01 -0.46074171289E-03  0.26995748725E-01  0.33029289701E-01  0.00000000000E+00 0. -1.
</event>
<event>
 5   0  0.4146200E+04  0.9118800E+02  0.7546771E-02  0.1180000E+00
      -11   -1    0    0    0    0  0.00000000000E+00  0.00000000000E+00  0.34996269501E-01  0.35000000000E-01  0.51099999109E-03 0.  1.
       11   -1    0    0    0    0 -0.00000000000E+00 -0.00000000000E+00 -0.34996269501E-01  0.35000000000E-01  0.51099999109E-03 0. -1.
       22    1    1    2    0    0  0.10203168371E-01 -0.18424516490E-01  0.27704735583E-01  0.34801146912E-01  0.00000000000E+00 0.  1.
       22    1    1    2    0    0 -0.19655972589E-02  0.27921139462E-02 -0.18522339330E-02  0.38846162507E-02  0.00000000000E+00 0. -1.
       22    1    1    2    0    0 -0.82375711119E-02  0.15632402544E-01 -0.25852501650E-01  0.31314236837E-01  0.00000000000E+00 0. -1.
</event>
<event>
 5   0  0.4146200E+04  0.9118800E+02  0.7546771E-02  0.1180000E+00
      -11   -1    0    0    0    0  0.00000000000E+00  0.00000000000E+00  0.34996269501E-01  0.35000000000E-01  0.51099999109E-03 0. -1.
       11   -1    0    0    0    0 -0.00000000000E+00 -0.00000000000E+00 -0.34996269501E-01  0.35000000000E-01  0.51099999109E-03 0.  1.
       22    1    1    2    0    0  0.13344064388E-01 -0.19079537302E-01  0.17632556376E-01  0.29206161035E-01  0.00000000000E+00 0. -1.
       22    1    1    2    0    0 -0.69999720157E-03  0.97909376802E-03  0.73528109218E-02  0.74506676977E-02  0.00000000000E+00 0. -1.
       22    1    1    2    0    0 -0.12644067186E-01  0.18100443534E-01 -0.24985367298E-01  0.33343171267E-01  0.00000000000E+00 0.  1.
</event>
<event>
 5   0  0.4146200E+04  0.9118800E+02  0.7546771E-02  0.1180000E+00
      -11   -1    0    0    0    0  0.00000000000E+00  0.00000000000E+00  0.34996269501E-01  0.35000000000E-01  0.51099999109E-03 0.  1.
       11   -1    0    0    0    0 -0.00000000000E+00 -0.00000000000E+00 -0.34996269501E-01  0.35000000000E-01  0.51099999109E-03 0. -1.
       22    1    1    2    0    0  0.17771850081E-01  0.57751174126E-02 -0.28552625906E-01  0.34123937091E-01  0.00000000000E+00 0. -1.
       22    1    1    2    0    0 -0.17979019061E-01 -0.58119215142E-02  0.20724519304E-01  0.28045128962E-01  0.00000000000E+00 0.  1.
       22    1    1    2    0    0  0.20716897925E-03  0.36804101642E-04  0.78281066016E-02  0.78309339477E-02  0.00000000000E+00 0.  1.
</event>
<event>
 5   0  0.4146200E+04  0.9118800E+02  0.7546771E-02  0.1180000E+00
      -11   -1    0    0    0    0  0.00000000000E+00  0.00000000000E+00  0.34996269501E-01  0.35000000000E-01  0.51099999109E-03 0.  1.
       11   -1    0    0    0    0 -0.00000000000E+00 -0.00000000000E+00 -0.34996269501E-01  0.35000000000E-01  0.51099999109E-03 0. -1.
       22    1    1    2    0    0 -0.16116856009E-02 -0.10009177334E-01 -0.28679252707E-01  0.30418426935E-01  0.00000000000E+00 0. -1.
       22    1    1    2    0    0  0.37152188194E-04 -0.14672136032E-03 -0.46762473953E-02  0.46786960945E-02  0.00000000000E+00 0. -1.
       22    1    1    2    0    0  0.15745334127E-02  0.10155898694E-01  0.33355500102E-01  0.34902876970E-01  0.00000000000E+00 0.  1.
</event>
<event>
 5   0  0.4146200E+04  0.9118800E+02  0.7546771E-02  0.1180000E+00
      -11   -1    0    0    0    0  0.00000000000E+00  0.00000000000E+00  0.34996269501E-01  0.35000000000E-01  0.51099999109E-03 0.  1.
       11   -1    0    0    0    0 -0.00000000000E+00 -0.00000000000E+00 -0.34996269501E-01  0.35000000000E-01  0.51099999109E-03 0. -1.
       22    1    1    2    0    0  0.23511492484E-03 -0.17041956336E-03 -0.60478280100E-03  0.67088306868E-03  0.00000000000E+00 0.  1.
       22    1    1    2    0    0 -0.24675814712E-02  0.29886818362E-03 -0.34281373451E-01  0.34371366661E-01  0.00000000000E+00 0. -1.
       22    1    1    2    0    0  0.22324665464E-02 -0.12844862026E-03  0.34886156252E-01  0.34957750270E-01  0.00000000000E+00 0.  1.
</event>
<event>
 5   0  0.4146200E+04  0.9118800E+02  0.7546771E-02  0.1180000E+00
      -11   -1    0    0    0    0  0.00000000000E+00  0.00000000000E+00  0.34996269501E-01  0.35000000000E-01  0.51099999109E-03 0.  1.
       11   -1    0    0    0    0 -0.00000000000E+00 -0.00000000000E+00 -0.34996269501E-01  0.35000000000E-01  0.51099999109E-03 0. -1.
       22    1    1    2    0    0  0.10969433169E-04 -0.30131136727E-03 -0.38483032399E-03  0.48887958310E-03  0.00000000000E+00 0. -1.
       22    1    1    2    0    0  0.31509904332E-04  0.13590865893E-02 -0.34541754381E-01  0.34568495844E-01  0.00000000000E+00 0. -1.
       22    1    1    2    0    0 -0.42479337501E-04 -0.10577752220E-02  0.34926584705E-01  0.34942624573E-01  0.00000000000E+00 0.  1.
</event>
<event>
 5   0  0.4146200E+04  0.9118800E+02  0.7546771E-02  0.1180000E+00
      -11   -1    0    0    0    0  0.00000000000E+00  0.00000000000E+00  0.34996269501E-01  0.35000000000E-01  0.51099999109E-03 0. -1.
       11   -1    0    0    0    0 -0.00000000000E+00 -0.00000000000E+00 -0.34996269501E-01  0.35000000000E-01  0.51099999109E-03 0.  1.
       22    1    1    2    0    0  0.14731176185E-01 -0.33105131663E-02 -0.31531737178E-01  0.34960227383E-01  0.00000000000E+00 0.  1.
       22    1    1    2    0    0 -0.14809842656E-01  0.32959995950E-02  0.31134380371E-01  0.34634443751E-01  0.00000000000E+00 0. -1.
       22    1    1    2    0    0  0.78666471976E-04  0.14513571340E-04  0.39735680724E-03  0.40532886626E-03  0.00000000000E+00 0. -1.
</event>
<event>
 5   0  0.4146200E+04  0.9118800E+02  0.7546771E-02  0.1180000E+00
      -11   -1    0    0    0    0  0.00000000000E+00  0.00000000000E+00  0.34996269501E-01  0.35000000000E-01  0.51099999109E-03 0.  1.
       11   -1    0    0    0    0 -0.00000000000E+00 -0.00000000000E+00 -0.34996269501E-01  0.35000000000E-01  0.51099999109E-03 0. -1.
       22    1    1    2    0    0 -0.16675070305E-01 -0.76984322028E-02 -0.29748445902E-01  0.34961319507E-01  0.00000000000E+00 0. -1.
       22    1    1    2    0    0 -0.55282184135E-05 -0.21379191225E-04  0.45977064991E-03  0.46030064256E-03  0.00000000000E+00 0. -1.
       22    1    1    2    0    0  0.16680598523E-01  0.77198113940E-02  0.29288675253E-01  0.34578379851E-01  0.00000000000E+00 0.  1.
</event>
<event>
 5   0  0.4146200E+04  0.9118800E+02  0.7546771E-02  0.1180000E+00
      -11   -1    0    0    0    0  0.00000000000E+00  0.00000000000E+00  0.34996269501E-01  0.35000000000E-01  0.51099999109E-03 0.  1.
       11   -1    0    0    0    0 -0.00000000000E+00 -0.00000000000E+00 -0.34996269501E-01  0.35000000000E-01  0.51099999109E-03 0. -1.
       22    1    1    2    0    0  0.63327766120E-02 -0.84319107089E-02  0.31095280444E-01  0.32834701822E-01  0.00000000000E+00 0.  1.
       22    1    1    2    0    0  0.51330981644E-03 -0.79850280614E-03  0.19553975344E-02  0.21736313433E-02  0.00000000000E+00 0. -1.
       22    1    1    2    0    0 -0.68460864285E-02  0.92304135151E-02 -0.33050677979E-01  0.34991666835E-01  0.00000000000E+00 0. -1.
</event>
<event>
 5   0  0.4146200E+04  0.9118800E+02  0.7546771E-02  0.1180000E+00
      -11   -1    0    0    0    0  0.00000000000E+00  0.00000000000E+00  0.34996269501E-01  0.35000000000E-01  0.51099999109E-03 0. -1.
       11   -1    0    0    0    0 -0.00000000000E+00 -0.00000000000E+00 -0.34996269501E-01  0.35000000000E-01  0.51099999109E-03 0.  1.
       22    1    1    2    0    0  0.10721170286E-03 -0.35167483850E-03  0.34555828943E-01  0.34557784702E-01  0.00000000000E+00 0. -1.
       22    1    1    2    0    0  0.28235380656E-03 -0.21399656644E-02 -0.25660195815E-02  0.33531527269E-02  0.00000000000E+00 0. -1.
       22    1    1    2    0    0 -0.38956550942E-03  0.24916405029E-02 -0.31989809362E-01  0.32089062571E-01  0.00000000000E+00 0.  1.
</event>
<event>
 5   0  0.4146200E+04  0.9118800E+02  0.7546771E-02  0.1180000E+00
      -11   -1    0    0    0    0  0.00000000000E+00  0.00000000000E+00  0.34996269501E-01  0.35000000000E-01  0.51099999109E-03 0.  1.
       11   -1    0    0    0    0 -0.00000000000E+00 -0.00000000000E+00 -0.34996269501E-01  0.35000000000E-01  0.51099999109E-03 0. -1.
       22    1    1    2    0    0  0.10060708702E-01 -0.66563751252E-03  0.33446106319E-01  0.34932834995E-01  0.00000000000E+00 0.  1.
       22    1    1    2    0    0 -0.10266714557E-01  0.65625538269E-03 -0.33123101548E-01  0.34683943765E-01  0.00000000000E+00 0. -1.
       22    1    1    2    0    0  0.20600585502E-03  0.93821298276E-05 -0.32300477094E-03  0.38322123991E-03  0.00000000000E+00 0. -1.
</event>
<event>
 5   0  0.4146200E+04  0.9118800E+02  0.7546771E-02  0.1180000E+00
      -11   -1    0    0    0    0  0.00000000000E+00  0.00000000000E+00  0.34996269501E-01  0.35000000000E-01  0.51099999109E-03 0.  1.
       11   -1    0    0    0    0 -0.00000000000E+00 -0.00000000000E+00 -0.34996269501E-01  0.35000000000E-01  0.51099999109E-03 0. -1.
       22    1    1    2    0    0  0.11576578184E-01  0.43713048448E-02  0.23557283120E-01  0.26609604591E-01  0.00000000000E+00 0.  1.
       22    1    1    2    0    0 -0.15511171109E-01  0.49305985527E-02 -0.27976136723E-01  0.32366208570E-01  0.00000000000E+00 0. -1.
       22    1    1    2    0    0  0.39345929247E-02 -0.93019033975E-02  0.44188536035E-02  0.11024186839E-01  0.00000000000E+00 0.  1.
</event>
<event>
 5   0  0.4146200E+04  0.9118800E+02  0.7546771E-02  0.1180000E+00
      -11   -1    0    0    0    0  0.00000000000E+00  0.00000000000E+00  0.34996269501E-01  0.35000000000E-01  0.51099999109E-03 0. -1.
       11   -1    0    0    0    0 -0.00000000000E+00 -0.00000000000E+00 -0.34996269501E-01  0.35000000000E-01  0.51099999109E-03 0.  1.
       22    1    1    2    0    0 -0.15500213836E-01 -0.16839112201E-03  0.31318152746E-01  0.34944408364E-01  0.00000000000E+00 0. -1.
       22    1    1    2    0    0  0.17053508758E-03  0.36021239506E-03 -0.54660836429E-03  0.67647312552E-03  0.00000000000E+00 0. -1.
       22    1    1    2    0    0  0.15329678748E-01 -0.19182127305E-03 -0.30771544381E-01  0.34379118510E-01  0.00000000000E+00 0.  1.
</event>
<event>
 5   0  0.4146200E+04  0.9118800E+02  0.7546771E-02  0.1180000E+00
      -11   -1    0    0    0    0  0.00000000000E+00  0.00000000000E+00  0.34996269501E-01  0.35000000000E-01  0.51099999109E-03 0.  1.
       11   -1    0    0    0    0 -0.00000000000E+00 -0.00000000000E+00 -0.34996269501E-01  0.35000000000E-01  0.51099999109E-03 0. -1.
       22    1    1    2    0    0 -0.18553079356E-03 -0.30332149052E-03 -0.27120579856E-02  0.27352667364E-02  0.00000000000E+00 0. -1.
       22    1    1    2    0    0 -0.13071616363E-01  0.15172578771E-02 -0.29558847777E-01  0.32355752313E-01  0.00000000000E+00 0. -1.
       22    1    1    2    0    0  0.13257147156E-01 -0.12139363865E-02  0.32270905763E-01  0.34908980951E-01  0.00000000000E+00 0.  1.
</event>
<event>
 5   0  0.4146200E+04  0.9118800E+02  0.7546771E-02  0.1180000E+00
      -11   -1    0    0    0    0  0.00000000000E+00  0.00000000000E+00  0.34996269501E-01  0.35000000000E-01  0.51099999109E-03 0. -1.
       11   -1    0    0    0    0 -0.00000000000E+00 -0.00000000000E+00 -0.34996269501E-01  0.35000000000E-01  0.51099999109E-03 0.  1.
       22    1    1    2    0    0 -0.13834155308E-02 -0.60682169116E-03  0.34928229611E-01  0.34960882352E-01  0.00000000000E+00 0. -1.
       22    1    1    2    0    0  0.16398546784E-02  0.66682220606E-03 -0.34430729180E-01  0.34476207551E-01  0.00000000000E+00 0.  1.
       22    1    1    2    0    0 -0.25643914764E-03 -0.60000514895E-04 -0.49750043096E-03  0.56291009676E-03  0.00000000000E+00 0.  1.
</event>
<event>
 5   0  0.4146200E+04  0.9118800E+02  0.7546771E-02  0.1180000E+00
      -11   -1    0    0    0    0  0.00000000000E+00  0.00000000000E+00  0.34996269501E-01  0.35000000000E-01  0.51099999109E-03 0. -1.
       11   -1    0    0    0    0 -0.00000000000E+00 -0.00000000000E+00 -0.34996269501E-01  0.35000000000E-01  0.51099999109E-03 0.  1.
       22    1    1    2    0    0  0.19064133064E-04 -0.50512415005E-03 -0.55632734087E-03  0.75167410380E-03  0.00000000000E+00 0.  1.
       22    1    1    2    0    0 -0.18876642792E-02 -0.10277954184E-02 -0.34270450244E-01  0.34337783851E-01  0.00000000000E+00 0.  1.
       22    1    1    2    0    0  0.18686001461E-02  0.15329195685E-02  0.34826777585E-01  0.34910542045E-01  0.00000000000E+00 0. -1.
</event>
<event>
 5   0  0.4146200E+04  0.9118800E+02  0.7546771E-02  0.1180000E+00
      -11   -1    0    0    0    0  0.00000000000E+00  0.00000000000E+00  0.34996269501E-01  0.35000000000E-01  0.51099999109E-03 0.  1.
       11   -1    0    0    0    0 -0.00000000000E+00 -0.00000000000E+00 -0.34996269501E-01  0.35000000000E-01  0.51099999109E-03 0. -1.
       22    1    1    2    0    0 -0.48537416145E-02 -0.12185800279E-01  0.31420328323E-02  0.13487954123E-01  0.00000000000E+00 0.  1.
       22    1    1    2    0    0  0.10751438996E-01 -0.88568765676E-02  0.20199583235E-01  0.24536928616E-01  0.00000000000E+00 0.  1.
       22    1    1    2    0    0 -0.58976973816E-02  0.21042676846E-01 -0.23341616067E-01  0.31975117262E-01  0.00000000000E+00 0. -1.
</event>
<event>
 5   0  0.4146200E+04  0.9118800E+02  0.7546771E-02  0.1180000E+00
      -11   -1    0    0    0    0  0.00000000000E+00  0.00000000000E+00  0.34996269501E-01  0.35000000000E-01  0.51099999109E-03 0. -1.
       11   -1    0    0    0    0 -0.00000000000E+00 -0.00000000000E+00 -0.34996269501E-01  0.35000000000E-01  0.51099999109E-03 0.  1.
       22    1    1    2    0    0  0.26858198301E-01  0.57995040055E-02  0.20343954891E-01  0.34188792949E-01  0.00000000000E+00 0. -1.
       22    1    1    2    0    0  0.91767259163E-03 -0.66503140589E-03 -0.13962578338E-02  0.17983119014E-02  0.00000000000E+00 0. -1.
       22    1    1    2    0    0 -0.27775870892E-01 -0.51344725997E-02 -0.18947697058E-01  0.34012895150E-01  0.00000000000E+00 0.  1.
</event>
<event>
 5   0  0.4146200E+04  0.9118800E+02  0.7546771E-02  0.1180000E+00
      -11   -1    0    0    0    0  0.00000000000E+00  0.00000000000E+00  0.34996269501E-01  0.35000000000E-01  0.51099999109E-03 0.  1.
       11   -1    0    0    0    0 -0.00000000000E+00 -0.00000000000E+00 -0.34996269501E-01  0.35000000000E-01  0.51099999109E-03 0.  1.
       22    1    1    2    0    0 -0.27038986104E-03  0.17357887465E-02 -0.32301821031E-01  0.32349555100E-01  0.00000000000E+00 0.  1.
       22    1    1    2    0    0 -0.00000000000E+00 -0.00000000000E+00  0.34688950072E-01  0.34686586215E-01  0.00000000000E+00 0.  1.
       22    1    1    2    0    0  0.27038986104E-03 -0.17357887465E-02 -0.23871290413E-02  0.29638586858E-02  0.00000000000E+00 0. -1.
</event>
<event>
 5   0  0.4146200E+04  0.9118800E+02  0.7546771E-02  0.1180000E+00
      -11   -1    0    0    0    0  0.00000000000E+00  0.00000000000E+00  0.34996269501E-01  0.35000000000E-01  0.51099999109E-03 0. -1.
       11   -1    0    0    0    0 -0.00000000000E+00 -0.00000000000E+00 -0.34996269501E-01  0.35000000000E-01  0.51099999109E-03 0.  1.
       22    1    1    2    0    0  0.37998450056E-02 -0.41793781197E-03 -0.11033413027E-01  0.11676887303E-01  0.00000000000E+00 0.  1.
       22    1    1    2    0    0 -0.34526150022E-02 -0.71834510591E-04  0.34588454470E-01  0.34760421361E-01  0.00000000000E+00 0. -1.
       22    1    1    2    0    0 -0.34723000334E-03  0.48977232256E-03 -0.23555041443E-01  0.23562691336E-01  0.00000000000E+00 0.  1.
</event>
<event>
 5   0  0.4146200E+04  0.9118800E+02  0.7546771E-02  0.1180000E+00
      -11   -1    0    0    0    0  0.00000000000E+00  0.00000000000E+00  0.34996269501E-01  0.35000000000E-01  0.51099999109E-03 0.  1.
       11   -1    0    0    0    0 -0.00000000000E+00 -0.00000000000E+00 -0.34996269501E-01  0.35000000000E-01  0.51099999109E-03 0. -1.
       22    1    1    2    0    0  0.10279311046E-03  0.94494127578E-04  0.98819726444E-03  0.99801272395E-03  0.00000000000E+00 0. -1.
       22    1    1    2    0    0  0.42106189430E-02  0.19640772063E-01 -0.28501632498E-01  0.34868786818E-01  0.00000000000E+00 0. -1.
       22    1    1    2    0    0 -0.43134120534E-02 -0.19735266191E-01  0.27513435233E-01  0.34133200458E-01  0.00000000000E+00 0.  1.
</event>
<event>
 5   0  0.4146200E+04  0.9118800E+02  0.7546771E-02  0.1180000E+00
      -11   -1    0    0    0    0  0.00000000000E+00  0.00000000000E+00  0.34996269501E-01  0.35000000000E-01  0.51099999109E-03 0. -1.
       11   -1    0    0    0    0 -0.00000000000E+00 -0.00000000000E+00 -0.34996269501E-01  0.35000000000E-01  0.51099999109E-03 0.  1.
       22    1    1    2    0    0  0.16220835658E-01  0.69719112003E-02  0.27242496656E-01  0.32463466840E-01  0.00000000000E+00 0. -1.
       22    1    1    2    0    0 -0.16236193502E-01 -0.69654511590E-02 -0.29980286038E-01  0.34798693082E-01  0.00000000000E+00 0.  1.
       22    1    1    2    0    0  0.15357844152E-04 -0.64600412791E-05  0.27377893817E-02  0.27378400783E-02  0.00000000000E+00 0. -1.
</event>
<event>
 5   0  0.4146200E+04  0.9118800E+02  0.7546771E-02  0.1180000E+00
      -11   -1    0    0    0    0  0.00000000000E+00  0.00000000000E+00  0.34996269501E-01  0.35000000000E-01  0.51099999109E-03 0. -1.
       11   -1    0    0    0    0 -0.00000000000E+00 -0.00000000000E+00 -0.34996269501E-01  0.35000000000E-01  0.51099999109E-03 0.  1.
       22    1    1    2    0    0 -0.41799332216E-02 -0.17499735171E-01 -0.29155518503E-01  0.34260134733E-01  0.00000000000E+00 0.  1.
       22    1    1    2    0    0  0.33976491059E-02  0.18826065295E-01  0.27076193534E-01  0.33152451044E-01  0.00000000000E+00 0. -1.
       22    1    1    2    0    0  0.78228411566E-03 -0.13263301235E-02  0.20793249688E-02  0.25874142227E-02  0.00000000000E+00 0. -1.
</event>
<event>
 5   0  0.4146200E+04  0.9118800E+02  0.7546771E-02  0.1180000E+00
      -11   -1    0    0    0    0  0.00000000000E+00  0.00000000000E+00  0.34996269501E-01  0.35000000000E-01  0.51099999109E-03 0. -1.
       11   -1    0    0    0    0 -0.00000000000E+00 -0.00000000000E+00 -0.34996269501E-01  0.35000000000E-01  0.51099999109E-03 0.  1.
       22    1    1    2    0    0  0.44978576896E-04 -0.88167683045E-04  0.27484513230E-02  0.27502329515E-02  0.00000000000E+00 0.  1.
       22    1    1    2    0    0  0.54445853248E-02 -0.14823517592E-01 -0.31025875905E-01  0.34813577220E-01  0.00000000000E+00 0.  1.
       22    1    1    2    0    0 -0.54895639017E-02  0.14911685275E-01  0.28277424582E-01  0.32436189828E-01  0.00000000000E+00 0. -1.
</event>
<event>
 5   0  0.4146200E+04  0.9118800E+02  0.7546771E-02  0.1180000E+00
      -11   -1    0    0    0    0  0.00000000000E+00  0.00000000000E+00  0.34996269501E-01  0.35000000000E-01  0.51099999109E-03 0.  1.
       11   -1    0    0    0    0 -0.00000000000E+00 -0.00000000000E+00 -0.34996269501E-01  0.35000000000E-01  0.51099999109E-03 0. -1.
       22    1    1    2    0    0  0.85412427232E-04 -0.89029735043E-06  0.66009833703E-03  0.66560190046E-03  0.00000000000E+00 0.  1.
       22    1    1    2    0    0  0.11480883509E-01 -0.74603375810E-02  0.31503082176E-01  0.34349840022E-01  0.00000000000E+00 0.  1.
       22    1    1    2    0    0 -0.11566295936E-01  0.74612278783E-02 -0.32163180513E-01  0.34984558077E-01  0.00000000000E+00 0. -1.
</event>
<event>
 5   0  0.4146200E+04  0.9118800E+02  0.7546771E-02  0.1180000E+00
      -11   -1    0    0    0    0  0.00000000000E+00  0.00000000000E+00  0.34996269501E-01  0.35000000000E-01  0.51099999109E-03 0.  1.
       11   -1    0    0    0    0 -0.00000000000E+00 -0.00000000000E+00 -0.34996269501E-01  0.35000000000E-01  0.51099999109E-03 0. -1.
       22    1    1    2    0    0  0.95827917738E-02 -0.16229714422E-01  0.29106021814E-01  0.34675553842E-01  0.00000000000E+00 0.  1.
       22    1    1    2    0    0 -0.95957946904E-02  0.16257250659E-01 -0.29448903820E-01  0.34980214564E-01  0.00000000000E+00 0. -1.
       22    1    1    2    0    0  0.13002916611E-04 -0.27536237083E-04  0.34288200600E-03  0.34423159389E-03  0.00000000000E+00 0. -1.
</event>
<event>
 5   0  0.4146200E+04  0.9118800E+02  0.7546771E-02  0.1180000E+00
      -11   -1    0    0    0    0  0.00000000000E+00  0.00000000000E+00  0.34996269501E-01  0.35000000000E-01  0.51099999109E-03 0.  1.
       11   -1    0    0    0    0 -0.00000000000E+00 -0.00000000000E+00 -0.34996269501E-01  0.35000000000E-01  0.51099999109E-03 0. -1.
       22    1    1    2    0    0  0.15465077889E-01 -0.95907249212E-02  0.28389047993E-01  0.33720745611E-01  0.00000000000E+00 0.  1.
       22    1    1    2    0    0  0.81318239642E-03 -0.19011025571E-02 -0.58006881639E-02  0.61582010130E-02  0.00000000000E+00 0.  1.
       22    1    1    2    0    0 -0.16278260285E-01  0.11491827478E-01 -0.22588359829E-01  0.30121053376E-01  0.00000000000E+00 0. -1.
</event>
<event>
 5   0  0.4146200E+04  0.9118800E+02  0.7546771E-02  0.1180000E+00
      -11   -1    0    0    0    0  0.00000000000E+00  0.00000000000E+00  0.34996269501E-01  0.35000000000E-01  0.51099999109E-03 0.  1.
       11   -1    0    0    0    0 -0.00000000000E+00 -0.00000000000E+00 -0.34996269501E-01  0.35000000000E-01  0.51099999109E-03 0.  1.
       22    1    1    2    0    0  0.75932461230E-04  0.40207258455E-03 -0.34192546737E-01  0.34194994962E-01  0.00000000000E+00 0.  1.
       22    1    1    2    0    0  0.00000000000E+00 -0.00000000000E+00  0.34947231553E-01  0.34946531233E-01  0.00000000000E+00 0.  1.
       22    1    1    2    0    0 -0.75932461230E-04 -0.40207258455E-03 -0.75468481638E-03  0.85847380507E-03  0.00000000000E+00 0. -1.
</event>
<event>
 5   0  0.4146200E+04  0.9118800E+02  0.7546771E-02  0.1180000E+00
      -11   -1    0    0    0    0  0.00000000000E+00  0.00000000000E+00  0.34996269501E-01  0.35000000000E-01  0.51099999109E-03 0. -1.
       11   -1    0    0    0    0 -0.00000000000E+00 -0.00000000000E+00 -0.34996269501E-01  0.35000000000E-01  0.51099999109E-03 0.  1.
       22    1    1    2    0    0  0.65918973228E-03  0.36512283356E-03 -0.19494636136E-01  0.19509194854E-01  0.00000000000E+00 0.  1.
       22    1    1    2    0    0 -0.37545050354E-02 -0.58327991167E-02 -0.14418612881E-01  0.16000445338E-01  0.00000000000E+00 0.  1.
       22    1    1    2    0    0  0.30953153031E-02  0.54676762831E-02  0.33913249017E-01  0.34490359808E-01  0.00000000000E+00 0. -1.
</event>
<event>
 5   0  0.4146200E+04  0.9118800E+02  0.7546771E-02  0.1180000E+00
      -11   -1    0    0    0    0  0.00000000000E+00  0.00000000000E+00  0.34996269501E-01  0.35000000000E-01  0.51099999109E-03 0. -1.
       11   -1    0    0    0    0 -0.00000000000E+00 -0.00000000000E+00 -0.34996269501E-01  0.35000000000E-01  0.51099999109E-03 0.  1.
       22    1    1    2    0    0 -0.45188078704E-03  0.23186705941E-01 -0.24408710122E-01  0.33669164803E-01  0.00000000000E+00 0.  1.
       22    1    1    2    0    0  0.45847768458E-04  0.76485617414E-04 -0.15032994656E-02  0.15059420144E-02  0.00000000000E+00 0.  1.
       22    1    1    2    0    0  0.40603301858E-03 -0.23263191559E-01  0.25912009588E-01  0.34824893183E-01  0.00000000000E+00 0. -1.
</event>
<event>
 5   0  0.4146200E+04  0.9118800E+02  0.7546771E-02  0.1180000E+00
      -11   -1    0    0    0    0  0.00000000000E+00  0.00000000000E+00  0.34996269501E-01  0.35000000000E-01  0.51099999109E-03 0.  1.
       11   -1    0    0    0    0 -0.00000000000E+00 -0.00000000000E+00 -0.34996269501E-01  0.35000000000E-01  0.51099999109E-03 0. -1.
       22    1    1    2    0    0  0.40027313676E-04 -0.22234873743E-03  0.46004380265E-03  0.51252458208E-03  0.00000000000E+00 0.  1.
       22    1    1    2    0    0  0.48424230227E-02  0.11284947727E-01 -0.32766567846E-01  0.34992100171E-01  0.00000000000E+00 0. -1.
       22    1    1    2    0    0 -0.48824503364E-02 -0.11062598990E-01  0.32306524043E-01  0.34495375247E-01  0.00000000000E+00 0.  1.
</event>
<event>
 5   0  0.4146200E+04  0.9118800E+02  0.7546771E-02  0.1180000E+00
      -11   -1    0    0    0    0  0.00000000000E+00  0.00000000000E+00  0.34996269501E-01  0.35000000000E-01  0.51099999109E-03 0. -1.
       11   -1    0    0    0    0 -0.00000000000E+00 -0.00000000000E+00 -0.34996269501E-01  0.35000000000E-01  0.51099999109E-03 0.  1.
       22    1    1    2    0    0 -0.56727643007E-03  0.58939193495E-03 -0.10612339012E-02  0.13399264137E-02  0.00000000000E+00 0.  1.
       22    1    1    2    0    0 -0.31656010731E-03 -0.15944515160E-02  0.34828439177E-01  0.34866354289E-01  0.00000000000E+00 0. -1.
       22    1    1    2    0    0  0.88383653737E-03  0.10050595810E-02 -0.33767205276E-01  0.33793719297E-01  0.00000000000E+00 0.  1.
</event>
<event>
 5   0  0.4146200E+04  0.9118800E+02  0.7546771E-02  0.1180000E+00
      -11   -1    0    0    0    0  0.00000000000E+00  0.00000000000E+00  0.34996269501E-01  0.35000000000E-01  0.51099999109E-03 0. -1.
       11   -1    0    0    0    0 -0.00000000000E+00 -0.00000000000E+00 -0.34996269501E-01  0.35000000000E-01  0.51099999109E-03 0.  1.
       22    1    1    2    0    0 -0.51575062518E-03  0.42850090312E-03 -0.49731698353E-03  0.83482687634E-03  0.00000000000E+00 0. -1.
       22    1    1    2    0    0  0.12705886292E-01  0.18964207116E-01 -0.25694741794E-01  0.34370051700E-01  0.00000000000E+00 0.  1.
       22    1    1    2    0    0 -0.12190135667E-01 -0.19392708019E-01  0.26192058777E-01  0.34795121424E-01  0.00000000000E+00 0. -1.
</event>
<event>
 5   0  0.4146200E+04  0.9118800E+02  0.7546771E-02  0.1180000E+00
      -11   -1    0    0    0    0  0.00000000000E+00  0.00000000000E+00  0.34996269501E-01  0.35000000000E-01  0.51099999109E-03 0. -1.
       11   -1    0    0    0    0 -0.00000000000E+00 -0.00000000000E+00 -0.34996269501E-01  0.35000000000E-01  0.51099999109E-03 0.  1.
       22    1    1    2    0    0 -0.96562154234E-04  0.29413038081E-04 -0.70710986604E-03  0.71427847447E-03  0.00000000000E+00 0.  1.
       22    1    1    2    0    0 -0.65891692842E-02  0.17492726455E-01  0.29499963502E-01  0.34923637802E-01  0.00000000000E+00 0. -1.
       22    1    1    2    0    0  0.66857314384E-02 -0.17522139493E-01 -0.28792853636E-01  0.34362083723E-01  0.00000000000E+00 0.  1.
</event>
<event>
 5   0  0.4146200E+04  0.9118800E+02  0.7546771E-02  0.1180000E+00
      -11   -1    0    0    0    0  0.00000000000E+00  0.00000000000E+00  0.34996269501E-01  0.35000000000E-01  0.51099999109E-03 0. -1.
       11   -1    0    0    0    0 -0.00000000000E+00 -0.00000000000E+00 -0.34996269501E-01  0.35000000000E-01  0.51099999109E-03 0. -1.
       22    1    1    2    0    0  0.00000000000E+00  0.00000000000E+00  0.18382168843E-01  0.18380448169E-01  0.00000000000E+00 0. -1.
       22    1    1    2    0    0  0.18423669715E-01 -0.76541992895E-02  0.53113890021E-02  0.20645319703E-01  0.00000000000E+00 0.  1.
       22    1    1    2    0    0 -0.18423669715E-01  0.76541992895E-02 -0.23693557845E-01  0.30974232127E-01  0.00000000000E+00 0. -1.
</event>
<event>
 5   0  0.4146200E+04  0.9118800E+02  0.7546771E-02  0.1180000E+00
      -11   -1    0    0    0    0  0.00000000000E+00  0.00000000000E+00  0.34996269501E-01  0.35000000000E-01  0.51099999109E-03 0.  1.
       11   -1    0    0    0    0 -0.00000000000E+00 -0.00000000000E+00 -0.34996269501E-01  0.35000000000E-01  0.51099999109E-03 0.  1.
       22    1    1    2    0    0  0.12181385670E-01 -0.90122720663E-02  0.64357032060E-02  0.16462851527E-01  0.00000000000E+00 0. -1.
       22    1    1    2    0    0  0.10020428021E-02 -0.93848568373E-03  0.21252360021E-01  0.21296658226E-01  0.00000000000E+00 0.  1.
       22    1    1    2    0    0 -0.13183428472E-01  0.99507577500E-02 -0.27688063227E-01  0.32240490247E-01  0.00000000000E+00 0.  1.
</event>
<event>
 5   0  0.4146200E+04  0.9118800E+02  0.7546771E-02  0.1180000E+00
      -11   -1    0    0    0    0  0.00000000000E+00  0.00000000000E+00  0.34996269501E-01  0.35000000000E-01  0.51099999109E-03 0. -1.
       11   -1    0    0    0    0 -0.00000000000E+00 -0.00000000000E+00 -0.34996269501E-01  0.35000000000E-01  0.51099999109E-03 0.  1.
       22    1    1    2    0    0  0.72892803881E-02  0.11892622137E-01 -0.31537621528E-01  0.34484629062E-01  0.00000000000E+00 0.  1.
       22    1    1    2    0    0 -0.70289795346E-02 -0.11845352438E-01  0.32079969405E-01  0.34911937281E-01  0.00000000000E+00 0. -1.
       22    1    1    2    0    0 -0.26030085356E-03 -0.47269698323E-04 -0.54234787683E-03  0.60343365688E-03  0.00000000000E+00 0. -1.
</event>
<event>
 5   0  0.4146200E+04  0.9118800E+02  0.7546771E-02  0.1180000E+00
      -11   -1    0    0    0    0  0.00000000000E+00  0.00000000000E+00  0.34996269501E-01  0.35000000000E-01  0.51099999109E-03 0.  1.
       11   -1    0    0    0    0 -0.00000000000E+00 -0.00000000000E+00 -0.34996269501E-01  0.35000000000E-01  0.51099999109E-03 0. -1.
       22    1    1    2    0    0  0.76262871321E-02 -0.38187952691E-02  0.33879402277E-01  0.34936475944E-01  0.00000000000E+00 0.  1.
       22    1    1    2    0    0  0.38084263786E-04  0.69587606062E-03 -0.17096935612E-02  0.18462789541E-02  0.00000000000E+00 0.  1.
       22    1    1    2    0    0 -0.76643713959E-02  0.31229192085E-02 -0.32169708716E-01  0.33217245102E-01  0.00000000000E+00 0. -1.
</event>
<event>
 5   0  0.4146200E+04  0.9118800E+02  0.7546771E-02  0.1180000E+00
      -11   -1    0    0    0    0  0.00000000000E+00  0.00000000000E+00  0.34996269501E-01  0.35000000000E-01  0.51099999109E-03 0.  1.
       11   -1    0    0    0    0 -0.00000000000E+00 -0.00000000000E+00 -0.34996269501E-01  0.35000000000E-01  0.51099999109E-03 0. -1.
       22    1    1    2    0    0  0.62704716784E-04  0.22037594180E-03 -0.31212353903E-02  0.31296338123E-02  0.00000000000E+00 0.  1.
       22    1    1    2    0    0 -0.11060644110E-01  0.88709877106E-02 -0.28691732250E-01  0.32003871181E-01  0.00000000000E+00 0. -1.
       22    1    1    2    0    0  0.10997939394E-01 -0.90913636524E-02  0.31812967640E-01  0.34866495006E-01  0.00000000000E+00 0.  1.
</event>
<event>
 5   0  0.4146200E+04  0.9118800E+02  0.7546771E-02  0.1180000E+00
      -11   -1    0    0    0    0  0.00000000000E+00  0.00000000000E+00  0.34996269501E-01  0.35000000000E-01  0.51099999109E-03 0.  1.
       11   -1    0    0    0    0 -0.00000000000E+00 -0.00000000000E+00 -0.34996269501E-01  0.35000000000E-01  0.51099999109E-03 0.  1.
       22    1    1    2    0    0  0.76323200191E-03  0.19256503311E-02 -0.31022828300E-01  0.31091904541E-01  0.00000000000E+00 0.  1.
       22    1    1    2    0    0 -0.53745555442E-03 -0.11685966994E-03  0.34752479152E-01  0.34756831297E-01  0.00000000000E+00 0.  1.
       22    1    1    2    0    0 -0.22577644749E-03 -0.18087906612E-02 -0.37296508518E-02  0.41512641613E-02  0.00000000000E+00 0.  1.
</event>
<event>
 5   0  0.4146200E+04  0.9118800E+02  0.7546771E-02  0.1180000E+00
      -11   -1    0    0    0    0  0.00000000000E+00  0.00000000000E+00  0.34996269501E-01  0.35000000000E-01  0.51099999109E-03 0. -1.
       11   -1    0    0    0    0 -0.00000000000E+00 -0.00000000000E+00 -0.34996269501E-01  0.35000000000E-01  0.51099999109E-03 0.  1.
       22    1    1    2    0    0  0.47932103508E-02  0.99803159175E-02  0.14770739610E-01  0.18459586125E-01  0.00000000000E+00 0. -1.
       22    1    1    2    0    0 -0.45181649354E-02 -0.10706727889E-01 -0.32128335641E-01  0.34165447276E-01  0.00000000000E+00 0.  1.
       22    1    1    2    0    0 -0.27504541548E-03  0.72641197118E-03  0.17357596032E-01  0.17374966599E-01  0.00000000000E+00 0. -1.
</event>
<event>
 5   0  0.4146200E+04  0.9118800E+02  0.7546771E-02  0.1180000E+00
      -11   -1    0    0    0    0  0.00000000000E+00  0.00000000000E+00  0.34996269501E-01  0.35000000000E-01  0.51099999109E-03 0. -1.
       11   -1    0    0    0    0 -0.00000000000E+00 -0.00000000000E+00 -0.34996269501E-01  0.35000000000E-01  0.51099999109E-03 0.  1.
       22    1    1    2    0    0 -0.12768801938E-01 -0.80047196436E-02  0.28243597020E-01  0.32012788259E-01  0.00000000000E+00 0. -1.
       22    1    1    2    0    0  0.12454383763E-01  0.11617727745E-01 -0.29571071847E-01  0.34125233524E-01  0.00000000000E+00 0.  1.
       22    1    1    2    0    0  0.31441817597E-03 -0.36130081017E-02  0.13274748269E-02  0.38619782170E-02  0.00000000000E+00 0. -1.
</event>
<event>
 5   0  0.4146200E+04  0.9118800E+02  0.7546771E-02  0.1180000E+00
      -11   -1    0    0    0    0  0.00000000000E+00  0.00000000000E+00  0.34996269501E-01  0.35000000000E-01  0.51099999109E-03 0.  1.
       11   -1    0    0    0    0 -0.00000000000E+00 -0.00000000000E+00 -0.34996269501E-01  0.35000000000E-01  0.51099999109E-03 0. -1.
       22    1    1    2    0    0 -0.24939677042E-02 -0.79960337364E-03  0.14961440282E-01  0.15188941233E-01  0.00000000000E+00 0.  1.
       22    1    1    2    0    0  0.12296262316E-01  0.66247463022E-02  0.16340805198E-01  0.21496679861E-01  0.00000000000E+00 0.  1.
       22    1    1    2    0    0 -0.98022946116E-02 -0.58251429285E-02 -0.31302245480E-01  0.33314378906E-01  0.00000000000E+00 0. -1.
</event>
<event>
 5   0  0.4146200E+04  0.9118800E+02  0.7546771E-02  0.1180000E+00
      -11   -1    0    0    0    0  0.00000000000E+00  0.00000000000E+00  0.34996269501E-01  0.35000000000E-01  0.51099999109E-03 0.  1.
       11   -1    0    0    0    0 -0.00000000000E+00 -0.00000000000E+00 -0.34996269501E-01  0.35000000000E-01  0.51099999109E-03 0. -1.
       22    1    1    2    0    0  0.11062214679E-01  0.15473591432E-01 -0.28381926805E-01  0.34166334228E-01  0.00000000000E+00 0. -1.
       22    1    1    2    0    0 -0.67027397868E-03 -0.73160642902E-02  0.16514443947E-01  0.18074869925E-01  0.00000000000E+00 0.  1.
       22    1    1    2    0    0 -0.10391940700E-01 -0.81575271417E-02  0.11867482858E-01  0.17758795847E-01  0.00000000000E+00 0.  1.
</event>
<event>
 5   0  0.4146200E+04  0.9118800E+02  0.7546771E-02  0.1180000E+00
      -11   -1    0    0    0    0  0.00000000000E+00  0.00000000000E+00  0.34996269501E-01  0.35000000000E-01  0.51099999109E-03 0.  1.
       11   -1    0    0    0    0 -0.00000000000E+00 -0.00000000000E+00 -0.34996269501E-01  0.35000000000E-01  0.51099999109E-03 0. -1.
       22    1    1    2    0    0  0.22256343939E-03 -0.65033989720E-03  0.34647060797E-02  0.35322322525E-02  0.00000000000E+00 0.  1.
       22    1    1    2    0    0  0.49880896170E-02  0.12451299459E-01  0.28772416602E-01  0.31745359556E-01  0.00000000000E+00 0.  1.
       22    1    1    2    0    0 -0.52106530564E-02 -0.11800959562E-01 -0.32237122681E-01  0.34722408192E-01  0.00000000000E+00 0. -1.
</event>
<event>
 5   0  0.4146200E+04  0.9118800E+02  0.7546771E-02  0.1180000E+00
      -11   -1    0    0    0    0  0.00000000000E+00  0.00000000000E+00  0.34996269501E-01  0.35000000000E-01  0.51099999109E-03 0. -1.
       11   -1    0    0    0    0 -0.00000000000E+00 -0.00000000000E+00 -0.34996269501E-01  0.35000000000E-01  0.51099999109E-03 0.  1.
       22    1    1    2    0    0 -0.73267137056E-03 -0.74905433878E-02 -0.13865790701E-01  0.15776729678E-01  0.00000000000E+00 0. -1.
       22    1    1    2    0    0  0.20299736324E-01  0.76089313686E-02 -0.95660444750E-02  0.23695660748E-01  0.00000000000E+00 0.  1.
       22    1    1    2    0    0 -0.19567064953E-01 -0.11838798077E-03  0.23431835176E-01  0.30527609574E-01  0.00000000000E+00 0. -1.
</event>
<event>
 5   0  0.4146200E+04  0.9118800E+02  0.7546771E-02  0.1180000E+00
      -11   -1    0    0    0    0  0.00000000000E+00  0.00000000000E+00  0.34996269501E-01  0.35000000000E-01  0.51099999109E-03 0. -1.
       11   -1    0    0    0    0 -0.00000000000E+00 -0.00000000000E+00 -0.34996269501E-01  0.35000000000E-01  0.51099999109E-03 0.  1.
       22    1    1    2    0    0  0.43787038252E-02  0.10715701905E-01 -0.27163901286E-01  0.29527560813E-01  0.00000000000E+00 0.  1.
       22    1    1    2    0    0 -0.11771978727E-01 -0.98576553582E-02  0.28993317619E-01  0.32808006933E-01  0.00000000000E+00 0. -1.
       22    1    1    2    0    0  0.73932749022E-02 -0.85804654671E-03 -0.18294163333E-02  0.76644322540E-02  0.00000000000E+00 0.  1.
</event>
<event>
 5   0  0.4146200E+04  0.9118800E+02  0.7546771E-02  0.1180000E+00
      -11   -1    0    0    0    0  0.00000000000E+00  0.00000000000E+00  0.34996269501E-01  0.35000000000E-01  0.51099999109E-03 0. -1.
       11   -1    0    0    0    0 -0.00000000000E+00 -0.00000000000E+00 -0.34996269501E-01  0.35000000000E-01  0.51099999109E-03 0.  1.
       22    1    1    2    0    0 -0.56737478673E-02 -0.14078755602E-01 -0.32912218361E-02  0.15531738967E-01  0.00000000000E+00 0.  1.
       22    1    1    2    0    0  0.29259398092E-02  0.14381538759E-01 -0.23406904584E-01  0.27627395155E-01  0.00000000000E+00 0.  1.
       22    1    1    2    0    0  0.27478080581E-02 -0.30278315728E-03  0.26698126420E-01  0.26840865878E-01  0.00000000000E+00 0. -1.
</event>
<event>
 5   0  0.4146200E+04  0.9118800E+02  0.7546771E-02  0.1180000E+00
      -11   -1    0    0    0    0  0.00000000000E+00  0.00000000000E+00  0.34996269501E-01  0.35000000000E-01  0.51099999109E-03 0. -1.
       11   -1    0    0    0    0 -0.00000000000E+00 -0.00000000000E+00 -0.34996269501E-01  0.35000000000E-01  0.51099999109E-03 0.  1.
       22    1    1    2    0    0  0.47079683119E-03 -0.53506506225E-04 -0.66539309541E-03  0.81686019238E-03  0.00000000000E+00 0. -1.
       22    1    1    2    0    0 -0.13553249779E-01 -0.23351815343E-01  0.22071292920E-01  0.34873196449E-01  0.00000000000E+00 0. -1.
       22    1    1    2    0    0  0.13082452947E-01  0.23405321850E-01 -0.21405899824E-01  0.34309943359E-01  0.00000000000E+00 0.  1.
</event>
<event>
 5   0  0.4146200E+04  0.9118800E+02  0.7546771E-02  0.1180000E+00
      -11   -1    0    0    0    0  0.00000000000E+00  0.00000000000E+00  0.34996269501E-01  0.35000000000E-01  0.51099999109E-03 0.  1.
       11   -1    0    0    0    0 -0.00000000000E+00 -0.00000000000E+00 -0.34996269501E-01  0.35000000000E-01  0.51099999109E-03 0. -1.
       22    1    1    2    0    0  0.82527822320E-03  0.58936945856E-03 -0.26906593373E-02  0.28754283461E-02  0.00000000000E+00 0. -1.
       22    1    1    2    0    0  0.35971312678E-02 -0.31970783530E-02 -0.31846415805E-01  0.32207993775E-01  0.00000000000E+00 0. -1.
       22    1    1    2    0    0 -0.44224094910E-02  0.26077088945E-02  0.34537075143E-01  0.34916577879E-01  0.00000000000E+00 0.  1.
</event>
<event>
 5   0  0.4146200E+04  0.9118800E+02  0.7546771E-02  0.1180000E+00
      -11   -1    0    0    0    0  0.00000000000E+00  0.00000000000E+00  0.34996269501E-01  0.35000000000E-01  0.51099999109E-03 0.  1.
       11   -1    0    0    0    0 -0.00000000000E+00 -0.00000000000E+00 -0.34996269501E-01  0.35000000000E-01  0.51099999109E-03 0. -1.
       22    1    1    2    0    0 -0.17460328063E-03 -0.10438252903E-03  0.40728786034E-02  0.40779556319E-02  0.00000000000E+00 0.  1.
       22    1    1    2    0    0  0.11793127642E-01 -0.15873316589E-01 -0.28385870047E-01  0.34594763440E-01  0.00000000000E+00 0. -1.
       22    1    1    2    0    0 -0.11618524361E-01  0.15977699118E-01  0.24312991444E-01  0.31327280929E-01  0.00000000000E+00 0.  1.
</event>
<event>
 5   0  0.4146200E+04  0.9118800E+02  0.7546771E-02  0.1180000E+00
      -11   -1    0    0    0    0  0.00000000000E+00  0.00000000000E+00  0.34996269501E-01  0.35000000000E-01  0.51099999109E-03 0.  1.
       11   -1    0    0    0    0 -0.00000000000E+00 -0.00000000000E+00 -0.34996269501E-01  0.35000000000E-01  0.51099999109E-03 0. -1.
       22    1    1    2    0    0 -0.28928622456E-03 -0.17332216588E-03 -0.83540342533E-03  0.90090286710E-03  0.00000000000E+00 0.  1.
       22    1    1    2    0    0  0.11343845871E-01 -0.11043262462E-01 -0.30311687298E-01  0.34197000918E-01  0.00000000000E+00 0. -1.
       22    1    1    2    0    0 -0.11054559646E-01  0.11216584628E-01  0.31147090723E-01  0.34902096215E-01  0.00000000000E+00 0.  1.
</event>
<event>
 5   0  0.4146200E+04  0.9118800E+02  0.7546771E-02  0.1180000E+00
      -11   -1    0    0    0    0  0.00000000000E+00  0.00000000000E+00  0.34996269501E-01  0.35000000000E-01  0.51099999109E-03 0. -1.
       11   -1    0    0    0    0 -0.00000000000E+00 -0.00000000000E+00 -0.34996269501E-01  0.35000000000E-01  0.51099999109E-03 0.  1.
       22    1    1    2    0    0 -0.22493793685E-02  0.22263341915E-01  0.26548065146E-01  0.34720539508E-01  0.00000000000E+00 0. -1.
       22    1    1    2    0    0 -0.14290398587E-03  0.11008247458E-04  0.28801189787E-03  0.32170418711E-03  0.00000000000E+00 0. -1.
       22    1    1    2    0    0  0.23922833544E-02 -0.22274350162E-01 -0.26836077043E-01  0.34957756305E-01  0.00000000000E+00 0.  1.
</event>
<event>
 5   0  0.4146200E+04  0.9118800E+02  0.7546771E-02  0.1180000E+00
      -11   -1    0    0    0    0  0.00000000000E+00  0.00000000000E+00  0.34996269501E-01  0.35000000000E-01  0.51099999109E-03 0.  1.
       11   -1    0    0    0    0 -0.00000000000E+00 -0.00000000000E+00 -0.34996269501E-01  0.35000000000E-01  0.51099999109E-03 0. -1.
       22    1    1    2    0    0 -0.14580420619E-01  0.17276910601E-01 -0.26641666027E-01  0.34940788114E-01  0.00000000000E+00 0. -1.
       22    1    1    2    0    0  0.14408653027E-01 -0.17191097641E-01  0.25761856929E-01  0.34158694246E-01  0.00000000000E+00 0.  1.
       22    1    1    2    0    0  0.17176759252E-03 -0.85812959289E-04  0.87980909838E-03  0.90051763970E-03  0.00000000000E+00 0. -1.
</event>
<event>
 5   0  0.4146200E+04  0.9118800E+02  0.7546771E-02  0.1180000E+00
      -11   -1    0    0    0    0  0.00000000000E+00  0.00000000000E+00  0.34996269501E-01  0.35000000000E-01  0.51099999109E-03 0.  1.
       11   -1    0    0    0    0 -0.00000000000E+00 -0.00000000000E+00 -0.34996269501E-01  0.35000000000E-01  0.51099999109E-03 0. -1.
       22    1    1    2    0    0 -0.12412571037E-01  0.16947935060E-01 -0.21964362256E-01  0.30393052361E-01  0.00000000000E+00 0. -1.
       22    1    1    2    0    0 -0.19469809102E-03  0.92019159372E-04 -0.51701440410E-02  0.51746269699E-02  0.00000000000E+00 0. -1.
       22    1    1    2    0    0  0.12607269128E-01 -0.17039954219E-01  0.27134506297E-01  0.34432320669E-01  0.00000000000E+00 0.  1.
</event>
<event>
 5   0  0.4146200E+04  0.9118800E+02  0.7546771E-02  0.1180000E+00
      -11   -1    0    0    0    0  0.00000000000E+00  0.00000000000E+00  0.34996269501E-01  0.35000000000E-01  0.51099999109E-03 0.  1.
       11   -1    0    0    0    0 -0.00000000000E+00 -0.00000000000E+00 -0.34996269501E-01  0.35000000000E-01  0.51099999109E-03 0. -1.
       22    1    1    2    0    0 -0.12103082642E-02  0.63575303424E-03  0.34851028748E-01  0.34877832972E-01  0.00000000000E+00 0.  1.
       22    1    1    2    0    0  0.48839779194E-03 -0.48575093908E-03 -0.33954046120E-01  0.33961032585E-01  0.00000000000E+00 0. -1.
       22    1    1    2    0    0  0.72191047226E-03 -0.15000209516E-03 -0.89698262834E-03  0.11611344427E-02  0.00000000000E+00 0. -1.
</event>
<event>
 5   0  0.4146200E+04  0.9118800E+02  0.7546771E-02  0.1180000E+00
      -11   -1    0    0    0    0  0.00000000000E+00  0.00000000000E+00  0.34996269501E-01  0.35000000000E-01  0.51099999109E-03 0.  1.
       11   -1    0    0    0    0 -0.00000000000E+00 -0.00000000000E+00 -0.34996269501E-01  0.35000000000E-01  0.51099999109E-03 0. -1.
       22    1    1    2    0    0  0.16182810090E-02 -0.83848785950E-02 -0.33051239404E-01  0.34136629134E-01  0.00000000000E+00 0. -1.
       22    1    1    2    0    0 -0.12175404231E-05 -0.36740019097E-03 -0.79001102666E-03  0.87126448624E-03  0.00000000000E+00 0. -1.
       22    1    1    2    0    0 -0.16170634685E-02  0.87522787859E-02  0.33841250431E-01  0.34992106380E-01  0.00000000000E+00 0.  1.
</event>
<event>
 5   0  0.4146200E+04  0.9118800E+02  0.7546771E-02  0.1180000E+00
      -11   -1    0    0    0    0  0.00000000000E+00  0.00000000000E+00  0.34996269501E-01  0.35000000000E-01  0.51099999109E-03 0. -1.
       11   -1    0    0    0    0 -0.00000000000E+00 -0.00000000000E+00 -0.34996269501E-01  0.35000000000E-01  0.51099999109E-03 0.  1.
       22    1    1    2    0    0  0.11135905573E-01 -0.29259815312E-02 -0.32416303080E-01  0.34400384682E-01  0.00000000000E+00 0.  1.
       22    1    1    2    0    0 -0.74642468245E-03 -0.84351251692E-03 -0.21566516928E-03  0.11468106374E-02  0.00000000000E+00 0.  1.
       22    1    1    2    0    0 -0.10389480891E-01  0.37694940481E-02  0.32631968249E-01  0.34452804681E-01  0.00000000000E+00 0. -1.
</event>
<event>
 5   0  0.4146200E+04  0.9118800E+02  0.7546771E-02  0.1180000E+00
      -11   -1    0    0    0    0  0.00000000000E+00  0.00000000000E+00  0.34996269501E-01  0.35000000000E-01  0.51099999109E-03 0. -1.
       11   -1    0    0    0    0 -0.00000000000E+00 -0.00000000000E+00 -0.34996269501E-01  0.35000000000E-01  0.51099999109E-03 0.  1.
       22    1    1    2    0    0  0.15589337312E-01 -0.11847943811E-01  0.28139632690E-01  0.34281775600E-01  0.00000000000E+00 0. -1.
       22    1    1    2    0    0  0.49620335240E-03 -0.83607686199E-03 -0.78347576770E-04  0.97538742501E-03  0.00000000000E+00 0.  1.
       22    1    1    2    0    0 -0.16085540664E-01  0.12684020673E-01 -0.28061285113E-01  0.34742836975E-01  0.00000000000E+00 0.  1.
</event>
<event>
 5   0  0.4146200E+04  0.9118800E+02  0.7546771E-02  0.1180000E+00
      -11   -1    0    0    0    0  0.00000000000E+00  0.00000000000E+00  0.34996269501E-01  0.35000000000E-01  0.51099999109E-03 0.  1.
       11   -1    0    0    0    0 -0.00000000000E+00 -0.00000000000E+00 -0.34996269501E-01  0.35000000000E-01  0.51099999109E-03 0. -1.
       22    1    1    2    0    0  0.18218638063E-01 -0.18568671846E-01 -0.22923727735E-01  0.34672923734E-01  0.00000000000E+00 0. -1.
       22    1    1    2    0    0 -0.26965322052E-03 -0.14461888281E-03 -0.36359062367E-03  0.47521113436E-03  0.00000000000E+00 0.  1.
       22    1    1    2    0    0 -0.17948984842E-01  0.18713290729E-01  0.23287318359E-01  0.34851865131E-01  0.00000000000E+00 0.  1.
</event>
<event>
 5   0  0.4146200E+04  0.9118800E+02  0.7546771E-02  0.1180000E+00
      -11   -1    0    0    0    0  0.00000000000E+00  0.00000000000E+00  0.34996269501E-01  0.35000000000E-01  0.51099999109E-03 0.  1.
       11   -1    0    0    0    0 -0.00000000000E+00 -0.00000000000E+00 -0.34996269501E-01  0.35000000000E-01  0.51099999109E-03 0. -1.
       22    1    1    2    0    0 -0.11749053523E-01  0.15900775019E-01  0.28001603451E-01  0.34277758106E-01  0.00000000000E+00 0.  1.
       22    1    1    2    0    0 -0.43602126770E-03 -0.26671209315E-02 -0.96618930168E-02  0.10032737676E-01  0.00000000000E+00 0. -1.
       22    1    1    2    0    0  0.12185074791E-01 -0.13233654087E-01 -0.18339710435E-01  0.25689504218E-01  0.00000000000E+00 0. -1.
</event>
<event>
 5   0  0.4146200E+04  0.9118800E+02  0.7546771E-02  0.1180000E+00
      -11   -1    0    0    0    0  0.00000000000E+00  0.00000000000E+00  0.34996269501E-01  0.35000000000E-01  0.51099999109E-03 0. -1.
       11   -1    0    0    0    0 -0.00000000000E+00 -0.00000000000E+00 -0.34996269501E-01  0.35000000000E-01  0.51099999109E-03 0.  1.
       22    1    1    2    0    0  0.29731117040E-02  0.35650170486E-02  0.34122607815E-01  0.34436914842E-01  0.00000000000E+00 0. -1.
       22    1    1    2    0    0 -0.45814790793E-02 -0.47848028882E-02 -0.31814195424E-01  0.32496573969E-01  0.00000000000E+00 0.  1.
       22    1    1    2    0    0  0.16083673754E-02  0.12197858396E-02 -0.23084123907E-02  0.30665111893E-02  0.00000000000E+00 0. -1.
</event>
<event>
 5   0  0.4146200E+04  0.9118800E+02  0.7546771E-02  0.1180000E+00
      -11   -1    0    0    0    0  0.00000000000E+00  0.00000000000E+00  0.34996269501E-01  0.35000000000E-01  0.51099999109E-03 0.  1.
       11   -1    0    0    0    0 -0.00000000000E+00 -0.00000000000E+00 -0.34996269501E-01  0.35000000000E-01  0.51099999109E-03 0. -1.
       22    1    1    2    0    0 -0.95264897757E-02 -0.16214607394E-01 -0.29404648145E-01  0.34904166412E-01  0.00000000000E+00 0. -1.
       22    1    1    2    0    0  0.65294218813E-02  0.13396696268E-01  0.24685476200E-01  0.28835352542E-01  0.00000000000E+00 0.  1.
       22    1    1    2    0    0  0.29970678944E-02  0.28179111254E-02  0.47191719459E-02  0.62604810461E-02  0.00000000000E+00 0.  1.
</event>
<event>
 5   0  0.4146200E+04  0.9118800E+02  0.7546771E-02  0.1180000E+00
      -11   -1    0    0    0    0  0.00000000000E+00  0.00000000000E+00  0.34996269501E-01  0.35000000000E-01  0.51099999109E-03 0.  1.
       11   -1    0    0    0    0 -0.00000000000E+00 -0.00000000000E+00 -0.34996269501E-01  0.35000000000E-01  0.51099999109E-03 0. -1.
       22    1    1    2    0    0  0.37952465254E-02 -0.10078336985E-01  0.33011624329E-01  0.34723826307E-01  0.00000000000E+00 0.  1.
       22    1    1    2    0    0 -0.98028600598E-03 -0.50137864280E-03 -0.11771966787E-02  0.16118725810E-02  0.00000000000E+00 0.  1.
       22    1    1    2    0    0 -0.28149605195E-02  0.10579715627E-01 -0.31834427651E-01  0.33664301112E-01  0.00000000000E+00 0. -1.
</event>
<event>
 5   0  0.4146200E+04  0.9118800E+02  0.7546771E-02  0.1180000E+00
      -11   -1    0    0    0    0  0.00000000000E+00  0.00000000000E+00  0.34996269501E-01  0.35000000000E-01  0.51099999109E-03 0.  1.
       11   -1    0    0    0    0 -0.00000000000E+00 -0.00000000000E+00 -0.34996269501E-01  0.35000000000E-01  0.51099999109E-03 0. -1.
       22    1    1    2    0    0 -0.15648885451E-01 -0.55676408713E-02  0.25252678436E-01  0.30225552252E-01  0.00000000000E+00 0.  1.
       22    1    1    2    0    0  0.15438324645E-01  0.56588306790E-02 -0.30432003183E-01  0.34590042646E-01  0.00000000000E+00 0. -1.
       22    1    1    2    0    0  0.21056080608E-03 -0.91189807715E-04  0.51793247469E-02  0.51844051026E-02  0.00000000000E+00 0.  1.
</event>
<event>
 5   0  0.4146200E+04  0.9118800E+02  0.7546771E-02  0.1180000E+00
      -11   -1    0    0    0    0  0.00000000000E+00  0.00000000000E+00  0.34996269501E-01  0.35000000000E-01  0.51099999109E-03 0.  1.
       11   -1    0    0    0    0 -0.00000000000E+00 -0.00000000000E+00 -0.34996269501E-01  0.35000000000E-01  0.51099999109E-03 0. -1.
       22    1    1    2    0    0  0.83934115771E-02 -0.18874320138E-01 -0.27937236375E-01  0.34744474306E-01  0.00000000000E+00 0. -1.
       22    1    1    2    0    0 -0.84424156374E-02  0.19272081156E-01  0.26953269437E-01  0.34193072796E-01  0.00000000000E+00 0.  1.
       22    1    1    2    0    0  0.49004060326E-04 -0.39776101797E-03  0.98396693780E-03  0.10624528978E-02  0.00000000000E+00 0. -1.
</event>
<event>
 5   0  0.4146200E+04  0.9118800E+02  0.7546771E-02  0.1180000E+00
      -11   -1    0    0    0    0  0.00000000000E+00  0.00000000000E+00  0.34996269501E-01  0.35000000000E-01  0.51099999109E-03 0. -1.
       11   -1    0    0    0    0 -0.00000000000E+00 -0.00000000000E+00 -0.34996269501E-01  0.35000000000E-01  0.51099999109E-03 0. -1.
       22    1    1    2    0    0 -0.69417927314E-02  0.14708806375E-01  0.34450206154E-02  0.16625451523E-01  0.00000000000E+00 0.  1.
       22    1    1    2    0    0 -0.77749002996E-04  0.15654167208E-04  0.22623209265E-01  0.22623348281E-01  0.00000000000E+00 0. -1.
       22    1    1    2    0    0  0.70195417344E-02 -0.14724460542E-01 -0.26068229881E-01  0.30751200197E-01  0.00000000000E+00 0. -1.
</event>
<event>
 5   0  0.4146200E+04  0.9118800E+02  0.7546771E-02  0.1180000E+00
      -11   -1    0    0    0    0  0.00000000000E+00  0.00000000000E+00  0.34996269501E-01  0.35000000000E-01  0.51099999109E-03 0.  1.
       11   -1    0    0    0    0 -0.00000000000E+00 -0.00000000000E+00 -0.34996269501E-01  0.35000000000E-01  0.51099999109E-03 0. -1.
       22    1    1    2    0    0 -0.48123595216E-02 -0.13776135357E-01  0.31481883932E-01  0.34699419670E-01  0.00000000000E+00 0.  1.
       22    1    1    2    0    0  0.74423194956E-04 -0.20369081000E-04  0.31124296036E-03  0.32066476542E-03  0.00000000000E+00 0.  1.
       22    1    1    2    0    0  0.47379363267E-02  0.13796504438E-01 -0.31793126892E-01  0.34979915565E-01  0.00000000000E+00 0. -1.
</event>
<event>
 5   0  0.4146200E+04  0.9118800E+02  0.7546771E-02  0.1180000E+00
      -11   -1    0    0    0    0  0.00000000000E+00  0.00000000000E+00  0.34996269501E-01  0.35000000000E-01  0.51099999109E-03 0. -1.
       11   -1    0    0    0    0 -0.00000000000E+00 -0.00000000000E+00 -0.34996269501E-01  0.35000000000E-01  0.51099999109E-03 0.  1.
       22    1    1    2    0    0  0.22493599680E-04  0.71022538211E-04  0.52134720853E-03  0.52664321395E-03  0.00000000000E+00 0.  1.
       22    1    1    2    0    0  0.83018404513E-02 -0.15939312567E-01  0.29481100287E-01  0.34527054814E-01  0.00000000000E+00 0. -1.
       22    1    1    2    0    0 -0.83243340510E-02  0.15868290029E-01 -0.30002447495E-01  0.34946301972E-01  0.00000000000E+00 0.  1.
</event>
<event>
 5   0  0.4146200E+04  0.9118800E+02  0.7546771E-02  0.1180000E+00
      -11   -1    0    0    0    0  0.00000000000E+00  0.00000000000E+00  0.34996269501E-01  0.35000000000E-01  0.51099999109E-03 0.  1.
       11   -1    0    0    0    0 -0.00000000000E+00 -0.00000000000E+00 -0.34996269501E-01  0.35000000000E-01  0.51099999109E-03 0. -1.
       22    1    1    2    0    0 -0.76823703113E-03 -0.13315032139E-01  0.31462078063E-01  0.34172249341E-01  0.00000000000E+00 0.  1.
       22    1    1    2    0    0  0.14042734971E-02  0.14118222405E-01 -0.21168783772E-01  0.25483594611E-01  0.00000000000E+00 0. -1.
       22    1    1    2    0    0 -0.63603646600E-03 -0.80319026576E-03 -0.10293294291E-01  0.10344156048E-01  0.00000000000E+00 0.  1.
</event>
<event>
 5   0  0.4146200E+04  0.9118800E+02  0.7546771E-02  0.1180000E+00
      -11   -1    0    0    0    0  0.00000000000E+00  0.00000000000E+00  0.34996269501E-01  0.35000000000E-01  0.51099999109E-03 0. -1.
       11   -1    0    0    0    0 -0.00000000000E+00 -0.00000000000E+00 -0.34996269501E-01  0.35000000000E-01  0.51099999109E-03 0.  1.
       22    1    1    2    0    0  0.14498459876E-01  0.50914267903E-02  0.31064640117E-01  0.34657464292E-01  0.00000000000E+00 0.  1.
       22    1    1    2    0    0 -0.14518352561E-01 -0.53694527854E-02 -0.25920324485E-01  0.30190674151E-01  0.00000000000E+00 0. -1.
       22    1    1    2    0    0  0.19892684565E-04  0.27802599508E-03 -0.51443156325E-02  0.51518615567E-02  0.00000000000E+00 0.  1.
</event>
<event>
 5   0  0.4146200E+04  0.9118800E+02  0.7546771E-02  0.1180000E+00
      -11   -1    0    0    0    0  0.00000000000E+00  0.00000000000E+00  0.34996269501E-01  0.35000000000E-01  0.51099999109E-03 0.  1.
       11   -1    0    0    0    0 -0.00000000000E+00 -0.00000000000E+00 -0.34996269501E-01  0.35000000000E-01  0.51099999109E-03 0. -1.
       22    1    1    2    0    0  0.93971053206E-04  0.44969613933E-04  0.72155087298E-03  0.72903256945E-03  0.00000000000E+00 0.  1.
       22    1    1    2    0    0 -0.14294980529E-01  0.60338319127E-02  0.30621380307E-01  0.34328159400E-01  0.00000000000E+00 0.  1.
       22    1    1    2    0    0  0.14201009475E-01 -0.60788015267E-02 -0.31342931180E-01  0.34942808031E-01  0.00000000000E+00 0. -1.
</event>
<event>
 5   0  0.4146200E+04  0.9118800E+02  0.7546771E-02  0.1180000E+00
      -11   -1    0    0    0    0  0.00000000000E+00  0.00000000000E+00  0.34996269501E-01  0.35000000000E-01  0.51099999109E-03 0. -1.
       11   -1    0    0    0    0 -0.00000000000E+00 -0.00000000000E+00 -0.34996269501E-01  0.35000000000E-01  0.51099999109E-03 0.  1.
       22    1    1    2    0    0 -0.18208207400E-02 -0.62352239733E-03  0.34829207298E-01  0.34882342946E-01  0.00000000000E+00 0. -1.
       22    1    1    2    0    0  0.99733083464E-03  0.11461210844E-02 -0.40914046273E-02  0.43643847399E-02  0.00000000000E+00 0.  1.
       22    1    1    2    0    0  0.82348990536E-03 -0.52259868704E-03 -0.30737802671E-01  0.30753272314E-01  0.00000000000E+00 0.  1.
</event>
<event>
 5   0  0.4146200E+04  0.9118800E+02  0.7546771E-02  0.1180000E+00
      -11   -1    0    0    0    0  0.00000000000E+00  0.00000000000E+00  0.34996269501E-01  0.35000000000E-01  0.51099999109E-03 0. -1.
       11   -1    0    0    0    0 -0.00000000000E+00 -0.00000000000E+00 -0.34996269501E-01  0.35000000000E-01  0.51099999109E-03 0.  1.
       22    1    1    2    0    0 -0.31383387221E-02  0.58200099259E-02 -0.23640750872E-01  0.24548050580E-01  0.00000000000E+00 0.  1.
       22    1    1    2    0    0 -0.17832952764E-02 -0.76160488259E-02  0.33438615322E-01  0.34341306562E-01  0.00000000000E+00 0. -1.
       22    1    1    2    0    0  0.49216339985E-02  0.17960388999E-02 -0.97978644497E-02  0.11110642858E-01  0.00000000000E+00 0. -1.
</event>
<event>
 5   0  0.4146200E+04  0.9118800E+02  0.7546771E-02  0.1180000E+00
      -11   -1    0    0    0    0  0.00000000000E+00  0.00000000000E+00  0.34996269501E-01  0.35000000000E-01  0.51099999109E-03 0. -1.
       11   -1    0    0    0    0 -0.00000000000E+00 -0.00000000000E+00 -0.34996269501E-01  0.35000000000E-01  0.51099999109E-03 0.  1.
       22    1    1    2    0    0  0.23814572052E-01  0.13480306892E-02 -0.25128665016E-01  0.34646801212E-01  0.00000000000E+00 0.  1.
       22    1    1    2    0    0 -0.23886772823E-01 -0.13692331636E-02  0.22885894178E-01  0.33109165917E-01  0.00000000000E+00 0. -1.
       22    1    1    2    0    0  0.72200771124E-04  0.21202474391E-04  0.22427708375E-02  0.22440328709E-02  0.00000000000E+00 0.  1.
</event>
<event>
 5   0  0.4146200E+04  0.9118800E+02  0.7546771E-02  0.1180000E+00
      -11   -1    0    0    0    0  0.00000000000E+00  0.00000000000E+00  0.34996269501E-01  0.35000000000E-01  0.51099999109E-03 0. -1.
       11   -1    0    0    0    0 -0.00000000000E+00 -0.00000000000E+00 -0.34996269501E-01  0.35000000000E-01  0.51099999109E-03 0.  1.
       22    1    1    2    0    0 -0.75185254645E-02  0.15184132132E-01 -0.29605885295E-01  0.34111501548E-01  0.00000000000E+00 0.  1.
       22    1    1    2    0    0  0.65403468677E-02 -0.14765759427E-01  0.30491566032E-01  0.34504193769E-01  0.00000000000E+00 0. -1.
       22    1    1    2    0    0  0.97817859675E-03 -0.41837270444E-03 -0.88568073655E-03  0.13843046825E-02  0.00000000000E+00 0.  1.
</event>
<event>
 5   0  0.4146200E+04  0.9118800E+02  0.7546771E-02  0.1180000E+00
      -11   -1    0    0    0    0  0.00000000000E+00  0.00000000000E+00  0.34996269501E-01  0.35000000000E-01  0.51099999109E-03 0. -1.
       11   -1    0    0    0    0 -0.00000000000E+00 -0.00000000000E+00 -0.34996269501E-01  0.35000000000E-01  0.51099999109E-03 0.  1.
       22    1    1    2    0    0  0.98279503497E-03 -0.36467961010E-02  0.34736296673E-01  0.34941026236E-01  0.00000000000E+00 0. -1.
       22    1    1    2    0    0  0.38414672746E-03 -0.95790697986E-04 -0.83241076511E-03  0.92176583138E-03  0.00000000000E+00 0.  1.
       22    1    1    2    0    0 -0.13669417624E-02  0.37425867990E-02 -0.33903885908E-01  0.34137207932E-01  0.00000000000E+00 0.  1.
</event>
<event>
 5   0  0.4146200E+04  0.9118800E+02  0.7546771E-02  0.1180000E+00
      -11   -1    0    0    0    0  0.00000000000E+00  0.00000000000E+00  0.34996269501E-01  0.35000000000E-01  0.51099999109E-03 0. -1.
       11   -1    0    0    0    0 -0.00000000000E+00 -0.00000000000E+00 -0.34996269501E-01  0.35000000000E-01  0.51099999109E-03 0.  1.
       22    1    1    2    0    0  0.39051128475E-03 -0.19784126912E-03 -0.57028971170E-02  0.57196744451E-02  0.00000000000E+00 0.  1.
       22    1    1    2    0    0 -0.22984379176E-02 -0.18409502415E-01  0.28985703629E-01  0.34414584276E-01  0.00000000000E+00 0. -1.
       22    1    1    2    0    0  0.19079266328E-02  0.18607343684E-01 -0.23282806512E-01  0.29865741278E-01  0.00000000000E+00 0.  1.
</event>
<event>
 5   0  0.4146200E+04  0.9118800E+02  0.7546771E-02  0.1180000E+00
      -11   -1    0    0    0    0  0.00000000000E+00  0.00000000000E+00  0.34996269501E-01  0.35000000000E-01  0.51099999109E-03 0. -1.
       11   -1    0    0    0    0 -0.00000000000E+00 -0.00000000000E+00 -0.34996269501E-01  0.35000000000E-01  0.51099999109E-03 0.  1.
       22    1    1    2    0    0  0.24626874303E-02 -0.20452756177E-01 -0.27982649463E-01  0.34747787492E-01  0.00000000000E+00 0.  1.
       22    1    1    2    0    0 -0.35869556802E-02  0.11428954832E-01  0.19064632738E-01  0.22515494244E-01  0.00000000000E+00 0. -1.
       22    1    1    2    0    0  0.11242682500E-02  0.90238013450E-02  0.89180167254E-02  0.12736718264E-01  0.00000000000E+00 0. -1.
</event>
<event>
 5   0  0.4146200E+04  0.9118800E+02  0.7546771E-02  0.1180000E+00
      -11   -1    0    0    0    0  0.00000000000E+00  0.00000000000E+00  0.34996269501E-01  0.35000000000E-01  0.51099999109E-03 0.  1.
       11   -1    0    0    0    0 -0.00000000000E+00 -0.00000000000E+00 -0.34996269501E-01  0.35000000000E-01  0.51099999109E-03 0. -1.
       22    1    1    2    0    0 -0.12961370216E-02  0.11376934146E-02 -0.35895912548E-02  0.39823966227E-02  0.00000000000E+00 0. -1.
       22    1    1    2    0    0  0.17841148955E-02 -0.43309236289E-02  0.34561617487E-01  0.34877576876E-01  0.00000000000E+00 0.  1.
       22    1    1    2    0    0 -0.48797787389E-03  0.31932302142E-02 -0.30972026232E-01  0.31140026501E-01  0.00000000000E+00 0. -1.
</event>
<event>
 5   0  0.4146200E+04  0.9118800E+02  0.7546771E-02  0.1180000E+00
      -11   -1    0    0    0    0  0.00000000000E+00  0.00000000000E+00  0.34996269501E-01  0.35000000000E-01  0.51099999109E-03 0. -1.
       11   -1    0    0    0    0 -0.00000000000E+00 -0.00000000000E+00 -0.34996269501E-01  0.35000000000E-01  0.51099999109E-03 0. -1.
       22    1    1    2    0    0 -0.36828638973E-02 -0.16592842157E-02 -0.29297026788E-01  0.29574186197E-01  0.00000000000E+00 0. -1.
       22    1    1    2    0    0 -0.00000000000E+00  0.00000000000E+00  0.34128912976E-01  0.34127890754E-01  0.00000000000E+00 0. -1.
       22    1    1    2    0    0  0.36828638973E-02  0.16592842157E-02 -0.48318861873E-02  0.62979230483E-02  0.00000000000E+00 0.  1.
</event>
<event>
 5   0  0.4146200E+04  0.9118800E+02  0.7546771E-02  0.1180000E+00
      -11   -1    0    0    0    0  0.00000000000E+00  0.00000000000E+00  0.34996269501E-01  0.35000000000E-01  0.51099999109E-03 0. -1.
       11   -1    0    0    0    0 -0.00000000000E+00 -0.00000000000E+00 -0.34996269501E-01  0.35000000000E-01  0.51099999109E-03 0.  1.
       22    1    1    2    0    0  0.22460042607E-03 -0.27232230152E-02  0.34666889037E-01  0.34774409907E-01  0.00000000000E+00 0. -1.
       22    1    1    2    0    0 -0.17932314478E-02 -0.55335673290E-03 -0.50624158087E-02  0.53990681158E-02  0.00000000000E+00 0. -1.
       22    1    1    2    0    0  0.15686310217E-02  0.32765797481E-02 -0.29604473228E-01  0.29826521977E-01  0.00000000000E+00 0.  1.
</event>
<event>
 5   0  0.4146200E+04  0.9118800E+02  0.7546771E-02  0.1180000E+00
      -11   -1    0    0    0    0  0.00000000000E+00  0.00000000000E+00  0.34996269501E-01  0.35000000000E-01  0.51099999109E-03 0.  1.
       11   -1    0    0    0    0 -0.00000000000E+00 -0.00000000000E+00 -0.34996269501E-01  0.35000000000E-01  0.51099999109E-03 0. -1.
       22    1    1    2    0    0 -0.10420615197E-01 -0.30315658922E-02 -0.19924066619E-01  0.22688059491E-01  0.00000000000E+00 0. -1.
       22    1    1    2    0    0  0.36339675102E-02 -0.47428020100E-03  0.32441501929E-01  0.32647843865E-01  0.00000000000E+00 0.  1.
       22    1    1    2    0    0  0.67866476863E-02  0.35058460932E-02 -0.12517435311E-01  0.14664096645E-01  0.00000000000E+00 0.  1.
</event>
<event>
 5   0  0.4146200E+04  0.9118800E+02  0.7546771E-02  0.1180000E+00
      -11   -1    0    0    0    0  0.00000000000E+00  0.00000000000E+00  0.34996269501E-01  0.35000000000E-01  0.51099999109E-03 0. -1.
       11   -1    0    0    0    0 -0.00000000000E+00 -0.00000000000E+00 -0.34996269501E-01  0.35000000000E-01  0.51099999109E-03 0.  1.
       22    1    1    2    0    0  0.43041792655E-03 -0.35288635827E-03 -0.10811748863E-02  0.12160294027E-02  0.00000000000E+00 0. -1.
       22    1    1    2    0    0  0.70192295572E-05 -0.23883439013E-02  0.34834705791E-01  0.34916485554E-01  0.00000000000E+00 0. -1.
       22    1    1    2    0    0 -0.43743715611E-03  0.27412302595E-02 -0.33753530905E-01  0.33867485043E-01  0.00000000000E+00 0.  1.
</event>
<event>
 5   0  0.4146200E+04  0.9118800E+02  0.7546771E-02  0.1180000E+00
      -11   -1    0    0    0    0  0.00000000000E+00  0.00000000000E+00  0.34996269501E-01  0.35000000000E-01  0.51099999109E-03 0.  1.
       11   -1    0    0    0    0 -0.00000000000E+00 -0.00000000000E+00 -0.34996269501E-01  0.35000000000E-01  0.51099999109E-03 0. -1.
       22    1    1    2    0    0 -0.65394547825E-03 -0.24027811147E-03 -0.16440006424E-02  0.17855297174E-02  0.00000000000E+00 0. -1.
       22    1    1    2    0    0 -0.27498044191E-02 -0.61944399654E-03 -0.33137038532E-01  0.33256705458E-01  0.00000000000E+00 0. -1.
       22    1    1    2    0    0  0.34037498974E-02  0.85972210801E-03  0.34781039175E-01  0.34957764825E-01  0.00000000000E+00 0.  1.
</event>
<event>
 5   0  0.4146200E+04  0.9118800E+02  0.7546771E-02  0.1180000E+00
      -11   -1    0    0    0    0  0.00000000000E+00  0.00000000000E+00  0.34996269501E-01  0.35000000000E-01  0.51099999109E-03 0. -1.
       11   -1    0    0    0    0 -0.00000000000E+00 -0.00000000000E+00 -0.34996269501E-01  0.35000000000E-01  0.51099999109E-03 0.  1.
       22    1    1    2    0    0  0.76407819445E-03  0.63095175248E-03 -0.34483925817E-01  0.34498160174E-01  0.00000000000E+00 0.  1.
       22    1    1    2    0    0  0.18768819814E-03 -0.34480143572E-04 -0.48172868172E-03  0.51814888094E-03  0.00000000000E+00 0.  1.
       22    1    1    2    0    0 -0.95176639259E-03 -0.59647160891E-03  0.34965654499E-01  0.34983690946E-01  0.00000000000E+00 0. -1.
</event>
<event>
 5   0  0.4146200E+04  0.9118800E+02  0.7546771E-02  0.1180000E+00
      -11   -1    0    0    0    0  0.00000000000E+00  0.00000000000E+00  0.34996269501E-01  0.35000000000E-01  0.51099999109E-03 0. -1.
       11   -1    0    0    0    0 -0.00000000000E+00 -0.00000000000E+00 -0.34996269501E-01  0.35000000000E-01  0.51099999109E-03 0.  1.
       22    1    1    2    0    0 -0.39426377840E-02  0.11534060605E-01  0.32786722185E-01  0.34979252398E-01  0.00000000000E+00 0. -1.
       22    1    1    2    0    0  0.34877122128E-03 -0.17478479300E-03 -0.11952273179E-02  0.12572825578E-02  0.00000000000E+00 0. -1.
       22    1    1    2    0    0  0.35938665627E-02 -0.11359275812E-01 -0.31591494867E-01  0.33763465044E-01  0.00000000000E+00 0.  1.
</event>
<event>
 5   0  0.4146200E+04  0.9118800E+02  0.7546771E-02  0.1180000E+00
      -11   -1    0    0    0    0  0.00000000000E+00  0.00000000000E+00  0.34996269501E-01  0.35000000000E-01  0.51099999109E-03 0. -1.
       11   -1    0    0    0    0 -0.00000000000E+00 -0.00000000000E+00 -0.34996269501E-01  0.35000000000E-01  0.51099999109E-03 0.  1.
       22    1    1    2    0    0 -0.18395983158E-02 -0.14286307953E-01  0.28679966619E-01  0.32093974546E-01  0.00000000000E+00 0. -1.
       22    1    1    2    0    0  0.19557201074E-02  0.14541528944E-01 -0.31669554155E-01  0.34903317400E-01  0.00000000000E+00 0.  1.
       22    1    1    2    0    0 -0.11612179158E-03 -0.25522099069E-03  0.29895875360E-02  0.30027080544E-02  0.00000000000E+00 0. -1.
</event>
<event>
 5   0  0.4146200E+04  0.9118800E+02  0.7546771E-02  0.1180000E+00
      -11   -1    0    0    0    0  0.00000000000E+00  0.00000000000E+00  0.34996269501E-01  0.35000000000E-01  0.51099999109E-03 0.  1.
       11   -1    0    0    0    0 -0.00000000000E+00 -0.00000000000E+00 -0.34996269501E-01  0.35000000000E-01  0.51099999109E-03 0. -1.
       22    1    1    2    0    0 -0.11701776049E-02  0.21731925326E-02 -0.34347912923E-01  0.34436480709E-01  0.00000000000E+00 0. -1.
       22    1    1    2    0    0  0.12145558490E-02 -0.24011801310E-02  0.34879636643E-01  0.34983279782E-01  0.00000000000E+00 0.  1.
       22    1    1    2    0    0 -0.44378244034E-04  0.22798759839E-03 -0.53172372022E-03  0.58023950935E-03  0.00000000000E+00 0.  1.
</event>
<event>
 5   0  0.4146200E+04  0.9118800E+02  0.7546771E-02  0.1180000E+00
      -11   -1    0    0    0    0  0.00000000000E+00  0.00000000000E+00  0.34996269501E-01  0.35000000000E-01  0.51099999109E-03 0.  1.
       11   -1    0    0    0    0 -0.00000000000E+00 -0.00000000000E+00 -0.34996269501E-01  0.35000000000E-01  0.51099999109E-03 0. -1.
       22    1    1    2    0    0 -0.14367850965E-01  0.31483363411E-02 -0.31709405804E-01  0.34954736153E-01  0.00000000000E+00 0. -1.
       22    1    1    2    0    0  0.13854814411E-01 -0.31173507419E-02  0.29034742201E-01  0.32321664758E-01  0.00000000000E+00 0.  1.
       22    1    1    2    0    0  0.51303655397E-03 -0.30985599145E-04  0.26746636028E-02  0.27235990896E-02  0.00000000000E+00 0. -1.
</event>
<event>
 5   0  0.4146200E+04  0.9118800E+02  0.7546771E-02  0.1180000E+00
      -11   -1    0    0    0    0  0.00000000000E+00  0.00000000000E+00  0.34996269501E-01  0.35000000000E-01  0.51099999109E-03 0. -1.
       11   -1    0    0    0    0 -0.00000000000E+00 -0.00000000000E+00 -0.34996269501E-01  0.35000000000E-01  0.51099999109E-03 0.  1.
       22    1    1    2    0    0 -0.14979846178E-02 -0.71257143163E-02 -0.12510274330E-01  0.14475038039E-01  0.00000000000E+00 0.  1.
       22    1    1    2    0    0  0.21926603468E-03  0.67373467427E-02 -0.20965493129E-01  0.22022529847E-01  0.00000000000E+00 0. -1.
       22    1    1    2    0    0  0.12787185831E-02  0.38836757361E-03  0.33475767459E-01  0.33502432114E-01  0.00000000000E+00 0. -1.
</event>
<event>
 5   0  0.4146200E+04  0.9118800E+02  0.7546771E-02  0.1180000E+00
      -11   -1    0    0    0    0  0.00000000000E+00  0.00000000000E+00  0.34996269501E-01  0.35000000000E-01  0.51099999109E-03 0.  1.
       11   -1    0    0    0    0 -0.00000000000E+00 -0.00000000000E+00 -0.34996269501E-01  0.35000000000E-01  0.51099999109E-03 0. -1.
       22    1    1    2    0    0  0.53662487195E-02 -0.62914930735E-02  0.33916936066E-01  0.34910429137E-01  0.00000000000E+00 0.  1.
       22    1    1    2    0    0  0.11997574883E-03 -0.32624119670E-03 -0.74761322725E-03  0.82447136778E-03  0.00000000000E+00 0.  1.
       22    1    1    2    0    0 -0.54862244684E-02  0.66177342701E-02 -0.33169322839E-01  0.34265099495E-01  0.00000000000E+00 0. -1.
</event>
<event>
 5   0  0.4146200E+04  0.9118800E+02  0.7546771E-02  0.1180000E+00
      -11   -1    0    0    0    0  0.00000000000E+00  0.00000000000E+00  0.34996269501E-01  0.35000000000E-01  0.51099999109E-03 0. -1.
       11   -1    0    0    0    0 -0.00000000000E+00 -0.00000000000E+00 -0.34996269501E-01  0.35000000000E-01  0.51099999109E-03 0.  1.
       22    1    1    2    0    0  0.40340543213E-02  0.41627835617E-02  0.20489495953E-01  0.21293703427E-01  0.00000000000E+00 0. -1.
       22    1    1    2    0    0  0.10029376107E-01  0.87034390679E-03  0.10350897306E-01  0.14439077486E-01  0.00000000000E+00 0. -1.
       22    1    1    2    0    0 -0.14063430428E-01 -0.50331274685E-02 -0.30840393259E-01  0.34267219086E-01  0.00000000000E+00 0.  1.
</event>
<event>
 5   0  0.4146200E+04  0.9118800E+02  0.7546771E-02  0.1180000E+00
      -11   -1    0    0    0    0  0.00000000000E+00  0.00000000000E+00  0.34996269501E-01  0.35000000000E-01  0.51099999109E-03 0. -1.
       11   -1    0    0    0    0 -0.00000000000E+00 -0.00000000000E+00 -0.34996269501E-01  0.35000000000E-01  0.51099999109E-03 0. -1.
       22    1    1    2    0    0 -0.55058266355E-02  0.32203512755E-02 -0.18823309812E-01  0.19874651735E-01  0.00000000000E+00 0.  1.
       22    1    1    2    0    0  0.58075569154E-02 -0.50965465218E-02 -0.14668789687E-01  0.16579381613E-01  0.00000000000E+00 0. -1.
       22    1    1    2    0    0 -0.30173027994E-03  0.18761952463E-02  0.33492099500E-01  0.33545966653E-01  0.00000000000E+00 0. -1.
</event>
<event>
 5   0  0.4146200E+04  0.9118800E+02  0.7546771E-02  0.1180000E+00
      -11   -1    0    0    0    0  0.00000000000E+00  0.00000000000E+00  0.34996269501E-01  0.35000000000E-01  0.51099999109E-03 0. -1.
       11   -1    0    0    0    0 -0.00000000000E+00 -0.00000000000E+00 -0.34996269501E-01  0.35000000000E-01  0.51099999109E-03 0.  1.
       22    1    1    2    0    0 -0.21618112434E-01  0.67588965735E-02 -0.25434868381E-01  0.34058156111E-01  0.00000000000E+00 0.  1.
       22    1    1    2    0    0  0.19892426871E-01 -0.66611970892E-02  0.26585482776E-01  0.33865440908E-01  0.00000000000E+00 0. -1.
       22    1    1    2    0    0  0.17256855632E-02 -0.97699484221E-04 -0.11506143950E-02  0.20764029806E-02  0.00000000000E+00 0.  1.
</event>
<event>
 5   0  0.4146200E+04  0.9118800E+02  0.7546771E-02  0.1180000E+00
      -11   -1    0    0    0    0  0.00000000000E+00  0.00000000000E+00  0.34996269501E-01  0.35000000000E-01  0.51099999109E-03 0.  1.
       11   -1    0    0    0    0 -0.00000000000E+00 -0.00000000000E+00 -0.34996269501E-01  0.35000000000E-01  0.51099999109E-03 0. -1.
       22    1    1    2    0    0  0.12178339697E-01  0.76639223103E-02 -0.12326309038E-01  0.18946914193E-01  0.00000000000E+00 0.  1.
       22    1    1    2    0    0 -0.77145782598E-02 -0.10627986737E-01 -0.16864396431E-01  0.21374673958E-01  0.00000000000E+00 0. -1.
       22    1    1    2    0    0 -0.44637614372E-02  0.29640644268E-02  0.29190705469E-01  0.29678411849E-01  0.00000000000E+00 0.  1.
</event>
<event>
 5   0  0.4146200E+04  0.9118800E+02  0.7546771E-02  0.1180000E+00
      -11   -1    0    0    0    0  0.00000000000E+00  0.00000000000E+00  0.34996269501E-01  0.35000000000E-01  0.51099999109E-03 0.  1.
       11   -1    0    0    0    0 -0.00000000000E+00 -0.00000000000E+00 -0.34996269501E-01  0.35000000000E-01  0.51099999109E-03 0. -1.
       22    1    1    2    0    0  0.22771299738E-02 -0.20526569467E-01 -0.25921630548E-01  0.33142967660E-01  0.00000000000E+00 0. -1.
       22    1    1    2    0    0 -0.21492818252E-02  0.20760942138E-01  0.27909803122E-01  0.34851014922E-01  0.00000000000E+00 0.  1.
       22    1    1    2    0    0 -0.12784814861E-03 -0.23437267048E-03 -0.19881725739E-02  0.20060174180E-02  0.00000000000E+00 0. -1.
</event>
<event>
 5   0  0.4146200E+04  0.9118800E+02  0.7546771E-02  0.1180000E+00
      -11   -1    0    0    0    0  0.00000000000E+00  0.00000000000E+00  0.34996269501E-01  0.35000000000E-01  0.51099999109E-03 0. -1.
       11   -1    0    0    0    0 -0.00000000000E+00 -0.00000000000E+00 -0.34996269501E-01  0.35000000000E-01  0.51099999109E-03 0.  1.
       22    1    1    2    0    0 -0.44781945870E-03 -0.39876472273E-02  0.12981433811E-01  0.13587475721E-01  0.00000000000E+00 0.  1.
       22    1    1    2    0    0 -0.58864226316E-02  0.97295810164E-02 -0.32860756502E-01  0.34772748468E-01  0.00000000000E+00 0.  1.
       22    1    1    2    0    0  0.63342420903E-02 -0.57419337891E-02  0.19879322691E-01  0.21639775811E-01  0.00000000000E+00 0. -1.
</event>
<event>
 5   0  0.4146200E+04  0.9118800E+02  0.7546771E-02  0.1180000E+00
      -11   -1    0    0    0    0  0.00000000000E+00  0.00000000000E+00  0.34996269501E-01  0.35000000000E-01  0.51099999109E-03 0. -1.
       11   -1    0    0    0    0 -0.00000000000E+00 -0.00000000000E+00 -0.34996269501E-01  0.35000000000E-01  0.51099999109E-03 0. -1.
       22    1    1    2    0    0 -0.19579825853E-03  0.34288467980E-03 -0.97471856453E-03  0.10516573309E-02  0.00000000000E+00 0.  1.
       22    1    1    2    0    0  0.00000000000E+00  0.00000000000E+00  0.34960480959E-01  0.34960286643E-01  0.00000000000E+00 0. -1.
       22    1    1    2    0    0  0.19579825853E-03 -0.34288467980E-03 -0.33985762395E-01  0.33988056026E-01  0.00000000000E+00 0. -1.
</event>
<event>
 5   0  0.4146200E+04  0.9118800E+02  0.7546771E-02  0.1180000E+00
      -11   -1    0    0    0    0  0.00000000000E+00  0.00000000000E+00  0.34996269501E-01  0.35000000000E-01  0.51099999109E-03 0. -1.
       11   -1    0    0    0    0 -0.00000000000E+00 -0.00000000000E+00 -0.34996269501E-01  0.35000000000E-01  0.51099999109E-03 0.  1.
       22    1    1    2    0    0 -0.59359889590E-03 -0.78952745967E-04 -0.15914163899E-02  0.17003527020E-02  0.00000000000E+00 0. -1.
       22    1    1    2    0    0  0.16808168344E-02 -0.34467378485E-02  0.34737668136E-01  0.34948687165E-01  0.00000000000E+00 0. -1.
       22    1    1    2    0    0 -0.10872179385E-02  0.35256905945E-02 -0.33146251746E-01  0.33350960133E-01  0.00000000000E+00 0.  1.
</event>
<event>
 5   0  0.4146200E+04  0.9118800E+02  0.7546771E-02  0.1180000E+00
      -11   -1    0    0    0    0  0.00000000000E+00  0.00000000000E+00  0.34996269501E-01  0.35000000000E-01  0.51099999109E-03 0. -1.
       11   -1    0    0    0    0 -0.00000000000E+00 -0.00000000000E+00 -0.34996269501E-01  0.35000000000E-01  0.51099999109E-03 0.  1.
       22    1    1    2    0    0  0.12741696731E-02  0.18035005190E-02  0.34852079928E-01  0.34921964404E-01  0.00000000000E+00 0. -1.
       22    1    1    2    0    0 -0.90866737277E-03 -0.14935272816E-02 -0.34309895847E-01  0.34354406605E-01  0.00000000000E+00 0.  1.
       22    1    1    2    0    0 -0.36550230029E-03 -0.30997323743E-03 -0.54218408087E-03  0.72362899126E-03  0.00000000000E+00 0. -1.
</event>
<event>
 5   0  0.4146200E+04  0.9118800E+02  0.7546771E-02  0.1180000E+00
      -11   -1    0    0    0    0  0.00000000000E+00  0.00000000000E+00  0.34996269501E-01  0.35000000000E-01  0.51099999109E-03 0.  1.
       11   -1    0    0    0    0 -0.00000000000E+00 -0.00000000000E+00 -0.34996269501E-01  0.35000000000E-01  0.51099999109E-03 0. -1.
       22    1    1    2    0    0  0.52571267594E-03 -0.11337694451E-01  0.32807777704E-01  0.34715557999E-01  0.00000000000E+00 0.  1.
       22    1    1    2    0    0  0.18771124726E-02  0.72803335005E-03 -0.37348049431E-02  0.42429178352E-02  0.00000000000E+00 0. -1.
       22    1    1    2    0    0 -0.24028251486E-02  0.10609661101E-01 -0.29072972761E-01  0.31041524166E-01  0.00000000000E+00 0. -1.
</event>
<event>
 5   0  0.4146200E+04  0.9118800E+02  0.7546771E-02  0.1180000E+00
      -11   -1    0    0    0    0  0.00000000000E+00  0.00000000000E+00  0.34996269501E-01  0.35000000000E-01  0.51099999109E-03 0.  1.
       11   -1    0    0    0    0 -0.00000000000E+00 -0.00000000000E+00 -0.34996269501E-01  0.35000000000E-01  0.51099999109E-03 0. -1.
       22    1    1    2    0    0  0.72456778891E-02  0.11814497350E-01 -0.32117106273E-01  0.34979861507E-01  0.00000000000E+00 0. -1.
       22    1    1    2    0    0  0.97051981888E-05  0.18055961440E-04  0.38124481830E-03  0.38179552132E-03  0.00000000000E+00 0. -1.
       22    1    1    2    0    0 -0.72553830873E-02 -0.11832553311E-01  0.31735861454E-01  0.34638342972E-01  0.00000000000E+00 0.  1.
</event>
<event>
 5   0  0.4146200E+04  0.9118800E+02  0.7546771E-02  0.1180000E+00
      -11   -1    0    0    0    0  0.00000000000E+00  0.00000000000E+00  0.34996269501E-01  0.35000000000E-01  0.51099999109E-03 0.  1.
       11   -1    0    0    0    0 -0.00000000000E+00 -0.00000000000E+00 -0.34996269501E-01  0.35000000000E-01  0.51099999109E-03 0.  1.
       22    1    1    2    0    0  0.15002954233E-02  0.57094920937E-03  0.34775445316E-01  0.34812475727E-01  0.00000000000E+00 0.  1.
       22    1    1    2    0    0  0.33778313825E-03 -0.99615997175E-04 -0.30589944080E-01  0.30591971163E-01  0.00000000000E+00 0.  1.
       22    1    1    2    0    0 -0.18380785615E-02 -0.47133321219E-03 -0.41855012354E-02  0.45955531100E-02  0.00000000000E+00 0. -1.
</event>
<event>
 5   0  0.4146200E+04  0.9118800E+02  0.7546771E-02  0.1180000E+00
      -11   -1    0    0    0    0  0.00000000000E+00  0.00000000000E+00  0.34996269501E-01  0.35000000000E-01  0.51099999109E-03 0. -1.
       11   -1    0    0    0    0 -0.00000000000E+00 -0.00000000000E+00 -0.34996269501E-01  0.35000000000E-01  0.51099999109E-03 0.  1.
       22    1    1    2    0    0 -0.23242842464E-02 -0.22844912478E-01  0.22163808748E-01  0.31914365756E-01  0.00000000000E+00 0. -1.
       22    1    1    2    0    0 -0.66697475641E-04  0.66855952720E-04  0.36069979347E-02  0.36082339686E-02  0.00000000000E+00 0. -1.
       22    1    1    2    0    0  0.23909817220E-02  0.22778056525E-01 -0.25770806683E-01  0.34477400275E-01  0.00000000000E+00 0.  1.
</event>
<event>
 5   0  0.4146200E+04  0.9118800E+02  0.7546771E-02  0.1180000E+00
      -11   -1    0    0    0    0  0.00000000000E+00  0.00000000000E+00  0.34996269501E-01  0.35000000000E-01  0.51099999109E-03 0. -1.
       11   -1    0    0    0    0 -0.00000000000E+00 -0.00000000000E+00 -0.34996269501E-01  0.35000000000E-01  0.51099999109E-03 0.  1.
       22    1    1    2    0    0  0.13663858682E-01 -0.30205720882E-02 -0.31672466846E-01  0.34626146853E-01  0.00000000000E+00 0.  1.
       22    1    1    2    0    0 -0.91145503859E-02 -0.15993807980E-02  0.19392236763E-01  0.21487016879E-01  0.00000000000E+00 0. -1.
       22    1    1    2    0    0 -0.45493082958E-02  0.46199528862E-02  0.12280230083E-01  0.13886836268E-01  0.00000000000E+00 0. -1.
</event>
<event>
 5   0  0.4146200E+04  0.9118800E+02  0.7546771E-02  0.1180000E+00
      -11   -1    0    0    0    0  0.00000000000E+00  0.00000000000E+00  0.34996269501E-01  0.35000000000E-01  0.51099999109E-03 0. -1.
       11   -1    0    0    0    0 -0.00000000000E+00 -0.00000000000E+00 -0.34996269501E-01  0.35000000000E-01  0.51099999109E-03 0.  1.
       22    1    1    2    0    0 -0.18414670303E-03  0.77811721447E-04  0.23279045666E-03  0.30684860916E-03  0.00000000000E+00 0. -1.
       22    1    1    2    0    0  0.10312655573E-01 -0.18370841522E-01 -0.27932934210E-01  0.34986961811E-01  0.00000000000E+00 0.  1.
       22    1    1    2    0    0 -0.10128508870E-01  0.18293029801E-01  0.27700143753E-01  0.34706189580E-01  0.00000000000E+00 0. -1.
</event>
<event>
 5   0  0.4146200E+04  0.9118800E+02  0.7546771E-02  0.1180000E+00
      -11   -1    0    0    0    0  0.00000000000E+00  0.00000000000E+00  0.34996269501E-01  0.35000000000E-01  0.51099999109E-03 0. -1.
       11   -1    0    0    0    0 -0.00000000000E+00 -0.00000000000E+00 -0.34996269501E-01  0.35000000000E-01  0.51099999109E-03 0. -1.
       22    1    1    2    0    0 -0.19330351909E-02 -0.33773052799E-02 -0.70877292446E-02  0.80857109673E-02  0.00000000000E+00 0.  1.
       22    1    1    2    0    0  0.12808874261E-02 -0.40132121001E-03 -0.27290190956E-01  0.27323181618E-01  0.00000000000E+00 0. -1.
       22    1    1    2    0    0  0.65214776481E-03  0.37786264899E-02  0.34377920201E-01  0.34591107415E-01  0.00000000000E+00 0. -1.
</event>
<event>
 5   0  0.4146200E+04  0.9118800E+02  0.7546771E-02  0.1180000E+00
      -11   -1    0    0    0    0  0.00000000000E+00  0.00000000000E+00  0.34996269501E-01  0.35000000000E-01  0.51099999109E-03 0. -1.
       11   -1    0    0    0    0 -0.00000000000E+00 -0.00000000000E+00 -0.34996269501E-01  0.35000000000E-01  0.51099999109E-03 0.  1.
       22    1    1    2    0    0 -0.97418269313E-02 -0.16439315646E-01  0.19853308385E-01  0.27555546532E-01  0.00000000000E+00 0. -1.
       22    1    1    2    0    0  0.83969424923E-02  0.20065308158E-01 -0.26786441718E-01  0.34505632795E-01  0.00000000000E+00 0.  1.
       22    1    1    2    0    0  0.13448844391E-02 -0.36259925120E-02  0.69331333330E-02  0.79388206722E-02  0.00000000000E+00 0. -1.
</event>
<event>
 5   0  0.4146200E+04  0.9118800E+02  0.7546771E-02  0.1180000E+00
      -11   -1    0    0    0    0  0.00000000000E+00  0.00000000000E+00  0.34996269501E-01  0.35000000000E-01  0.51099999109E-03 0. -1.
       11   -1    0    0    0    0 -0.00000000000E+00 -0.00000000000E+00 -0.34996269501E-01  0.35000000000E-01  0.51099999109E-03 0.  1.
       22    1    1    2    0    0 -0.12893590589E-01 -0.17832204096E-02 -0.32461441169E-01  0.34973843313E-01  0.00000000000E+00 0.  1.
       22    1    1    2    0    0 -0.88642680060E-05 -0.98517772862E-04  0.45601723934E-03  0.46662195554E-03  0.00000000000E+00 0.  1.
       22    1    1    2    0    0  0.12902454857E-01  0.18817381825E-02  0.32005423930E-01  0.34559534731E-01  0.00000000000E+00 0. -1.
</event>
<event>
 5   0  0.4146200E+04  0.9118800E+02  0.7546771E-02  0.1180000E+00
      -11   -1    0    0    0    0  0.00000000000E+00  0.00000000000E+00  0.34996269501E-01  0.35000000000E-01  0.51099999109E-03 0. -1.
       11   -1    0    0    0    0 -0.00000000000E+00 -0.00000000000E+00 -0.34996269501E-01  0.35000000000E-01  0.51099999109E-03 0.  1.
       22    1    1    2    0    0 -0.18709271263E-01  0.80553296590E-02  0.20170658272E-01  0.28666716279E-01  0.00000000000E+00 0. -1.
       22    1    1    2    0    0  0.29472341020E-03 -0.23252650957E-02  0.73575141741E-02  0.77218349164E-02  0.00000000000E+00 0.  1.
       22    1    1    2    0    0  0.18414547853E-01 -0.57300645633E-02 -0.27528172446E-01  0.33611448804E-01  0.00000000000E+00 0.  1.
</event>
<event>
 5   0  0.4146200E+04  0.9118800E+02  0.7546771E-02  0.1180000E+00
      -11   -1    0    0    0    0  0.00000000000E+00  0.00000000000E+00  0.34996269501E-01  0.35000000000E-01  0.51099999109E-03 0.  1.
       11   -1    0    0    0    0 -0.00000000000E+00 -0.00000000000E+00 -0.34996269501E-01  0.35000000000E-01  0.51099999109E-03 0. -1.
       22    1    1    2    0    0  0.38888912360E-02  0.37933862698E-02 -0.29777229166E-01  0.30268740166E-01  0.00000000000E+00 0. -1.
       22    1    1    2    0    0 -0.38040603223E-02 -0.60280338871E-02  0.34114613797E-01  0.34851326259E-01  0.00000000000E+00 0.  1.
       22    1    1    2    0    0 -0.84830913788E-04  0.22346476174E-02 -0.43373846308E-02  0.48799335747E-02  0.00000000000E+00 0. -1.
</event>
<event>
 5   0  0.4146200E+04  0.9118800E+02  0.7546771E-02  0.1180000E+00
      -11   -1    0    0    0    0  0.00000000000E+00  0.00000000000E+00  0.34996269501E-01  0.35000000000E-01  0.51099999109E-03 0. -1.
       11   -1    0    0    0    0 -0.00000000000E+00 -0.00000000000E+00 -0.34996269501E-01  0.35000000000E-01  0.51099999109E-03 0.  1.
       22    1    1    2    0    0  0.22720380817E-04 -0.92960147009E-05  0.47700305912E-03  0.47763432666E-03  0.00000000000E+00 0. -1.
       22    1    1    2    0    0  0.14564196641E-01  0.12917694418E-02 -0.31769820848E-01  0.34972932516E-01  0.00000000000E+00 0.  1.
       22    1    1    2    0    0 -0.14586917021E-01 -0.12824734271E-02  0.31292817789E-01  0.34549433157E-01  0.00000000000E+00 0. -1.
</event>
<event>
 5   0  0.4146200E+04  0.9118800E+02  0.7546771E-02  0.1180000E+00
      -11   -1    0    0    0    0  0.00000000000E+00  0.00000000000E+00  0.34996269501E-01  0.35000000000E-01  0.51099999109E-03 0. -1.
       11   -1    0    0    0    0 -0.00000000000E+00 -0.00000000000E+00 -0.34996269501E-01  0.35000000000E-01  0.51099999109E-03 0.  1.
       22    1    1    2    0    0  0.17739052427E-01 -0.88684976148E-02  0.22842713324E-01  0.30250847640E-01  0.00000000000E+00 0. -1.
       22    1    1    2    0    0 -0.16082779069E-01  0.72935712989E-02 -0.28567483034E-01  0.33585012309E-01  0.00000000000E+00 0.  1.
       22    1    1    2    0    0 -0.16562733579E-02  0.15749263159E-02  0.57247697103E-02  0.61641400513E-02  0.00000000000E+00 0.  1.
</event>
<event>
 5   0  0.4146200E+04  0.9118800E+02  0.7546771E-02  0.1180000E+00
      -11   -1    0    0    0    0  0.00000000000E+00  0.00000000000E+00  0.34996269501E-01  0.35000000000E-01  0.51099999109E-03 0. -1.
       11   -1    0    0    0    0 -0.00000000000E+00 -0.00000000000E+00 -0.34996269501E-01  0.35000000000E-01  0.51099999109E-03 0.  1.
       22    1    1    2    0    0  0.55102564896E-02 -0.13793248144E-01 -0.31642815184E-01  0.34955462717E-01  0.00000000000E+00 0.  1.
       22    1    1    2    0    0 -0.54496057822E-02  0.13840319639E-01  0.30857525908E-01  0.34255504026E-01  0.00000000000E+00 0. -1.
       22    1    1    2    0    0 -0.60650707372E-04 -0.47071494265E-04  0.78528927614E-03  0.78903325729E-03  0.00000000000E+00 0.  1.
</event>
<event>
 5   0  0.4146200E+04  0.9118800E+02  0.7546771E-02  0.1180000E+00
      -11   -1    0    0    0    0  0.00000000000E+00  0.00000000000E+00  0.34996269501E-01  0.35000000000E-01  0.51099999109E-03 0. -1.
       11   -1    0    0    0    0 -0.00000000000E+00 -0.00000000000E+00 -0.34996269501E-01  0.35000000000E-01  0.51099999109E-03 0. -1.
       22    1    1    2    0    0  0.26977072175E-04 -0.18793986269E-03 -0.27786584697E-03  0.33653912599E-03  0.00000000000E+00 0. -1.
       22    1    1    2    0    0  0.24782246291E-03  0.49053034523E-03 -0.34689426461E-01  0.34693779618E-01  0.00000000000E+00 0. -1.
       22    1    1    2    0    0 -0.27479953509E-03 -0.30259048254E-03  0.34967292308E-01  0.34969681256E-01  0.00000000000E+00 0. -1.
</event>
<event>
 5   0  0.4146200E+04  0.9118800E+02  0.7546771E-02  0.1180000E+00
      -11   -1    0    0    0    0  0.00000000000E+00  0.00000000000E+00  0.34996269501E-01  0.35000000000E-01  0.51099999109E-03 0. -1.
       11   -1    0    0    0    0 -0.00000000000E+00 -0.00000000000E+00 -0.34996269501E-01  0.35000000000E-01  0.51099999109E-03 0.  1.
       22    1    1    2    0    0 -0.47026842773E-04 -0.11724274821E-03 -0.33179058962E-03  0.35502447987E-03  0.00000000000E+00 0. -1.
       22    1    1    2    0    0  0.46181402723E-02 -0.27941505727E-02 -0.34233997974E-01  0.34656905723E-01  0.00000000000E+00 0.  1.
       22    1    1    2    0    0 -0.45711134295E-02  0.29113933209E-02  0.34565788564E-01  0.34988069797E-01  0.00000000000E+00 0. -1.
</event>
<event>
 5   0  0.4146200E+04  0.9118800E+02  0.7546771E-02  0.1180000E+00
      -11   -1    0    0    0    0  0.00000000000E+00  0.00000000000E+00  0.34996269501E-01  0.35000000000E-01  0.51099999109E-03 0. -1.
       11   -1    0    0    0    0 -0.00000000000E+00 -0.00000000000E+00 -0.34996269501E-01  0.35000000000E-01  0.51099999109E-03 0.  1.
       22    1    1    2    0    0  0.11524437934E-01  0.68978213539E-02  0.26997461678E-01  0.30153864532E-01  0.00000000000E+00 0. -1.
       22    1    1    2    0    0  0.55580609141E-02 -0.21718469860E-03  0.16746334104E-02  0.58089248039E-02  0.00000000000E+00 0. -1.
       22    1    1    2    0    0 -0.17082498848E-01 -0.66806366553E-02 -0.28672095089E-01  0.34037210664E-01  0.00000000000E+00 0.  1.
</event>
<event>
 5   0  0.4146200E+04  0.9118800E+02  0.7546771E-02  0.1180000E+00
      -11   -1    0    0    0    0  0.00000000000E+00  0.00000000000E+00  0.34996269501E-01  0.35000000000E-01  0.51099999109E-03 0. -1.
       11   -1    0    0    0    0 -0.00000000000E+00 -0.00000000000E+00 -0.34996269501E-01  0.35000000000E-01  0.51099999109E-03 0.  1.
       22    1    1    2    0    0 -0.29577549443E-04 -0.52694750110E-04  0.22406335995E-02  0.22414483031E-02  0.00000000000E+00 0.  1.
       22    1    1    2    0    0  0.91633056621E-02 -0.93480612920E-02 -0.32361873904E-01  0.34909071932E-01  0.00000000000E+00 0.  1.
       22    1    1    2    0    0 -0.91337281126E-02  0.94007560421E-02  0.30121240304E-01  0.32849479765E-01  0.00000000000E+00 0. -1.
</event>
<event>
 5   0  0.4146200E+04  0.9118800E+02  0.7546771E-02  0.1180000E+00
      -11   -1    0    0    0    0  0.00000000000E+00  0.00000000000E+00  0.34996269501E-01  0.35000000000E-01  0.51099999109E-03 0.  1.
       11   -1    0    0    0    0 -0.00000000000E+00 -0.00000000000E+00 -0.34996269501E-01  0.35000000000E-01  0.51099999109E-03 0. -1.
       22    1    1    2    0    0  0.21440784447E-01 -0.52675193238E-02 -0.22234868105E-01  0.31334379795E-01  0.00000000000E+00 0. -1.
       22    1    1    2    0    0 -0.47566814002E-03  0.22983173381E-04 -0.43663360097E-02  0.43922293377E-02  0.00000000000E+00 0. -1.
       22    1    1    2    0    0 -0.20965116307E-01  0.52445361504E-02  0.26601204114E-01  0.34273390867E-01  0.00000000000E+00 0.  1.
</event>
<event>
 5   0  0.4146200E+04  0.9118800E+02  0.7546771E-02  0.1180000E+00
      -11   -1    0    0    0    0  0.00000000000E+00  0.00000000000E+00  0.34996269501E-01  0.35000000000E-01  0.51099999109E-03 0.  1.
       11   -1    0    0    0    0 -0.00000000000E+00 -0.00000000000E+00 -0.34996269501E-01  0.35000000000E-01  0.51099999109E-03 0. -1.
       22    1    1    2    0    0  0.50024043636E-05  0.34867118808E-02  0.34555385149E-01  0.34730848356E-01  0.00000000000E+00 0.  1.
       22    1    1    2    0    0 -0.10432842029E-03 -0.37473889359E-02 -0.95101894705E-02  0.10222402458E-01  0.00000000000E+00 0. -1.
       22    1    1    2    0    0  0.99326015926E-04  0.26067705517E-03 -0.25045195678E-01  0.25046749185E-01  0.00000000000E+00 0. -1.
</event>
<event>
 5   0  0.4146200E+04  0.9118800E+02  0.7546771E-02  0.1180000E+00
      -11   -1    0    0    0    0  0.00000000000E+00  0.00000000000E+00  0.34996269501E-01  0.35000000000E-01  0.51099999109E-03 0. -1.
       11   -1    0    0    0    0 -0.00000000000E+00 -0.00000000000E+00 -0.34996269501E-01  0.35000000000E-01  0.51099999109E-03 0.  1.
       22    1    1    2    0    0  0.34464379434E-02  0.79651838374E-03 -0.32455232030E-01  0.32647426578E-01  0.00000000000E+00 0.  1.
       22    1    1    2    0    0 -0.15618011597E-02 -0.11780042936E-02  0.34494378706E-01  0.34549805777E-01  0.00000000000E+00 0. -1.
       22    1    1    2    0    0 -0.18846367837E-02  0.38148590986E-03 -0.20391466758E-02  0.28027676449E-02  0.00000000000E+00 0.  1.
</event>
<event>
 5   0  0.4146200E+04  0.9118800E+02  0.7546771E-02  0.1180000E+00
      -11   -1    0    0    0    0  0.00000000000E+00  0.00000000000E+00  0.34996269501E-01  0.35000000000E-01  0.51099999109E-03 0.  1.
       11   -1    0    0    0    0 -0.00000000000E+00 -0.00000000000E+00 -0.34996269501E-01  0.35000000000E-01  0.51099999109E-03 0. -1.
       22    1    1    2    0    0  0.19426506468E-01  0.11561884468E-01 -0.26373660338E-01  0.34736670618E-01  0.00000000000E+00 0. -1.
       22    1    1    2    0    0  0.17514363252E-04 -0.17098324544E-03 -0.29939190950E-03  0.34522099967E-03  0.00000000000E+00 0. -1.
       22    1    1    2    0    0 -0.19444020831E-01 -0.11390901223E-01  0.26673052248E-01  0.34918108382E-01  0.00000000000E+00 0.  1.
</event>
<event>
 5   0  0.4146200E+04  0.9118800E+02  0.7546771E-02  0.1180000E+00
      -11   -1    0    0    0    0  0.00000000000E+00  0.00000000000E+00  0.34996269501E-01  0.35000000000E-01  0.51099999109E-03 0. -1.
       11   -1    0    0    0    0 -0.00000000000E+00 -0.00000000000E+00 -0.34996269501E-01  0.35000000000E-01  0.51099999109E-03 0.  1.
       22    1    1    2    0    0 -0.21299000723E-04  0.15490707588E-03 -0.62473229099E-03  0.64400332685E-03  0.00000000000E+00 0.  1.
       22    1    1    2    0    0 -0.92872648022E-02 -0.12036117446E-01 -0.30881626002E-01  0.34420869182E-01  0.00000000000E+00 0.  1.
       22    1    1    2    0    0  0.93085638029E-02  0.11881210370E-01  0.31506358293E-01  0.34935127491E-01  0.00000000000E+00 0. -1.
</event>
<event>
 5   0  0.4146200E+04  0.9118800E+02  0.7546771E-02  0.1180000E+00
      -11   -1    0    0    0    0  0.00000000000E+00  0.00000000000E+00  0.34996269501E-01  0.35000000000E-01  0.51099999109E-03 0. -1.
       11   -1    0    0    0    0 -0.00000000000E+00 -0.00000000000E+00 -0.34996269501E-01  0.35000000000E-01  0.51099999109E-03 0.  1.
       22    1    1    2    0    0  0.47420379301E-03  0.29262262062E-02  0.34839044207E-01  0.34964934868E-01  0.00000000000E+00 0. -1.
       22    1    1    2    0    0 -0.82691759451E-03 -0.28520709044E-02 -0.33890566714E-01  0.34020414656E-01  0.00000000000E+00 0.  1.
       22    1    1    2    0    0  0.35271380150E-03 -0.74155301760E-04 -0.94847749275E-03  0.10146504762E-02  0.00000000000E+00 0.  1.
</event>
<event>
 5   0  0.4146200E+04  0.9118800E+02  0.7546771E-02  0.1180000E+00
      -11   -1    0    0    0    0  0.00000000000E+00  0.00000000000E+00  0.34996269501E-01  0.35000000000E-01  0.51099999109E-03 0.  1.
       11   -1    0    0    0    0 -0.00000000000E+00 -0.00000000000E+00 -0.34996269501E-01  0.35000000000E-01  0.51099999109E-03 0. -1.
       22    1    1    2    0    0  0.94874373479E-03 -0.29893793550E-03 -0.10631258341E-01  0.10677693219E-01  0.00000000000E+00 0. -1.
       22    1    1    2    0    0 -0.69711789019E-02 -0.70626368127E-02 -0.22639410167E-01  0.24718840320E-01  0.00000000000E+00 0. -1.
       22    1    1    2    0    0  0.60224351671E-02  0.73615747482E-02  0.33270668509E-01  0.34603466461E-01  0.00000000000E+00 0.  1.
</event>
<event>
 5   0  0.4146200E+04  0.9118800E+02  0.7546771E-02  0.1180000E+00
      -11   -1    0    0    0    0  0.00000000000E+00  0.00000000000E+00  0.34996269501E-01  0.35000000000E-01  0.51099999109E-03 0. -1.
       11   -1    0    0    0    0 -0.00000000000E+00 -0.00000000000E+00 -0.34996269501E-01  0.35000000000E-01  0.51099999109E-03 0.  1.
       22    1    1    2    0    0 -0.49265388987E-03  0.54338243929E-03  0.27589276420E-01  0.27599024362E-01  0.00000000000E+00 0. -1.
       22    1    1    2    0    0  0.13906512762E-01 -0.14782560232E-02 -0.28923770231E-02  0.14280832710E-01  0.00000000000E+00 0. -1.
       22    1    1    2    0    0 -0.13413858872E-01  0.93487358394E-03 -0.24696899397E-01  0.28120142928E-01  0.00000000000E+00 0.  1.
</event>
<event>
 5   0  0.4146200E+04  0.9118800E+02  0.7546771E-02  0.1180000E+00
      -11   -1    0    0    0    0  0.00000000000E+00  0.00000000000E+00  0.34996269501E-01  0.35000000000E-01  0.51099999109E-03 0.  1.
       11   -1    0    0    0    0 -0.00000000000E+00 -0.00000000000E+00 -0.34996269501E-01  0.35000000000E-01  0.51099999109E-03 0. -1.
       22    1    1    2    0    0  0.10652524789E-01 -0.70676303560E-02 -0.32454407799E-01  0.34881460245E-01  0.00000000000E+00 0. -1.
       22    1    1    2    0    0 -0.10672359764E-01  0.71436729149E-02  0.29635256875E-01  0.32298293696E-01  0.00000000000E+00 0.  1.
       22    1    1    2    0    0  0.19834975807E-04 -0.76042558827E-04  0.28191509245E-02  0.28202460588E-02  0.00000000000E+00 0.  1.
</event>
<event>
 5   0  0.4146200E+04  0.9118800E+02  0.7546771E-02  0.1180000E+00
      -11   -1    0    0    0    0  0.00000000000E+00  0.00000000000E+00  0.34996269501E-01  0.35000000000E-01  0.51099999109E-03 0. -1.
       11   -1    0    0    0    0 -0.00000000000E+00 -0.00000000000E+00 -0.34996269501E-01  0.35000000000E-01  0.51099999109E-03 0. -1.
       22    1    1    2    0    0 -0.80568884850E-03  0.17285702884E-02 -0.30542539808E-01  0.30602023262E-01  0.00000000000E+00 0. -1.
       22    1    1    2    0    0  0.35660815051E-02 -0.42149804214E-03  0.34338564050E-01  0.34525810329E-01  0.00000000000E+00 0. -1.
       22    1    1    2    0    0 -0.27603926566E-02 -0.13070722463E-02 -0.37960242415E-02  0.48721664091E-02  0.00000000000E+00 0. -1.
</event>
<event>
 5   0  0.4146200E+04  0.9118800E+02  0.7546771E-02  0.1180000E+00
      -11   -1    0    0    0    0  0.00000000000E+00  0.00000000000E+00  0.34996269501E-01  0.35000000000E-01  0.51099999109E-03 0.  1.
       11   -1    0    0    0    0 -0.00000000000E+00 -0.00000000000E+00 -0.34996269501E-01  0.35000000000E-01  0.51099999109E-03 0. -1.
       22    1    1    2    0    0 -0.94918481199E-02  0.16632636381E-02  0.33612563928E-01  0.34966642397E-01  0.00000000000E+00 0.  1.
       22    1    1    2    0    0  0.86264634337E-03  0.44778410633E-03 -0.26997551601E-02  0.28693809862E-02  0.00000000000E+00 0.  1.
       22    1    1    2    0    0  0.86292017766E-02 -0.21110477444E-02 -0.30912808768E-01  0.32163976617E-01  0.00000000000E+00 0. -1.
</event>
<event>
 5   0  0.4146200E+04  0.9118800E+02  0.7546771E-02  0.1180000E+00
      -11   -1    0    0    0    0  0.00000000000E+00  0.00000000000E+00  0.34996269501E-01  0.35000000000E-01  0.51099999109E-03 0. -1.
       11   -1    0    0    0    0 -0.00000000000E+00 -0.00000000000E+00 -0.34996269501E-01  0.35000000000E-01  0.51099999109E-03 0.  1.
       22    1    1    2    0    0  0.84179909189E-02 -0.67514072371E-02 -0.24683559771E-01  0.26939231499E-01  0.00000000000E+00 0.  1.
       22    1    1    2    0    0 -0.63486228379E-03 -0.18930830970E-03 -0.83725548587E-02  0.83987238684E-02  0.00000000000E+00 0.  1.
       22    1    1    2    0    0 -0.77831286351E-02  0.69407155468E-02  0.33056114630E-01  0.34662044632E-01  0.00000000000E+00 0. -1.
</event>
<event>
 5   0  0.4146200E+04  0.9118800E+02  0.7546771E-02  0.1180000E+00
      -11   -1    0    0    0    0  0.00000000000E+00  0.00000000000E+00  0.34996269501E-01  0.35000000000E-01  0.51099999109E-03 0.  1.
       11   -1    0    0    0    0 -0.00000000000E+00 -0.00000000000E+00 -0.34996269501E-01  0.35000000000E-01  0.51099999109E-03 0. -1.
       22    1    1    2    0    0  0.12403246676E-01  0.33466051085E-02 -0.25853073203E-01  0.28869043765E-01  0.00000000000E+00 0. -1.
       22    1    1    2    0    0 -0.24951192462E-02  0.12166661720E-01  0.15992627692E-01  0.20248886833E-01  0.00000000000E+00 0.  1.
       22    1    1    2    0    0 -0.99081274300E-02 -0.15513266828E-01  0.98604455108E-02  0.20882069402E-01  0.00000000000E+00 0. -1.
</event>
<event>
 5   0  0.4146200E+04  0.9118800E+02  0.7546771E-02  0.1180000E+00
      -11   -1    0    0    0    0  0.00000000000E+00  0.00000000000E+00  0.34996269501E-01  0.35000000000E-01  0.51099999109E-03 0.  1.
       11   -1    0    0    0    0 -0.00000000000E+00 -0.00000000000E+00 -0.34996269501E-01  0.35000000000E-01  0.51099999109E-03 0. -1.
       22    1    1    2    0    0  0.89280644343E-04  0.28680543926E-03  0.56496047897E-02  0.56575845264E-02  0.00000000000E+00 0.  1.
       22    1    1    2    0    0  0.15768581109E-01 -0.46732139193E-02  0.24784851253E-01  0.29745183310E-01  0.00000000000E+00 0.  1.
       22    1    1    2    0    0 -0.15857861754E-01  0.43864084801E-02 -0.30434456043E-01  0.34597232163E-01  0.00000000000E+00 0. -1.
</event>
<event>
 5   0  0.4146200E+04  0.9118800E+02  0.7546771E-02  0.1180000E+00
      -11   -1    0    0    0    0  0.00000000000E+00  0.00000000000E+00  0.34996269501E-01  0.35000000000E-01  0.51099999109E-03 0. -1.
       11   -1    0    0    0    0 -0.00000000000E+00 -0.00000000000E+00 -0.34996269501E-01  0.35000000000E-01  0.51099999109E-03 0.  1.
       22    1    1    2    0    0 -0.26112504640E-02  0.49886539390E-03  0.11255025434E-02  0.28869103973E-02  0.00000000000E+00 0.  1.
       22    1    1    2    0    0 -0.13890259034E-01 -0.45436284748E-02 -0.30136508817E-01  0.33493178700E-01  0.00000000000E+00 0.  1.
       22    1    1    2    0    0  0.16501509498E-01  0.40447630809E-02  0.29011006274E-01  0.33619910903E-01  0.00000000000E+00 0. -1.
</event>
<event>
 5   0  0.4146200E+04  0.9118800E+02  0.7546771E-02  0.1180000E+00
      -11   -1    0    0    0    0  0.00000000000E+00  0.00000000000E+00  0.34996269501E-01  0.35000000000E-01  0.51099999109E-03 0.  1.
       11   -1    0    0    0    0 -0.00000000000E+00 -0.00000000000E+00 -0.34996269501E-01  0.35000000000E-01  0.51099999109E-03 0. -1.
       22    1    1    2    0    0 -0.19566772772E-01 -0.64881678737E-02  0.22085561660E-01  0.30211371251E-01  0.00000000000E+00 0.  1.
       22    1    1    2    0    0 -0.27535807024E-03  0.19259682782E-03  0.53438402809E-02  0.53543948820E-02  0.00000000000E+00 0. -1.
       22    1    1    2    0    0  0.19842130842E-01  0.62955710458E-02 -0.27429401940E-01  0.34434233867E-01  0.00000000000E+00 0. -1.
</event>
<event>
 5   0  0.4146200E+04  0.9118800E+02  0.7546771E-02  0.1180000E+00
      -11   -1    0    0    0    0  0.00000000000E+00  0.00000000000E+00  0.34996269501E-01  0.35000000000E-01  0.51099999109E-03 0.  1.
       11   -1    0    0    0    0 -0.00000000000E+00 -0.00000000000E+00 -0.34996269501E-01  0.35000000000E-01  0.51099999109E-03 0. -1.
       22    1    1    2    0    0 -0.16969433432E-01 -0.12171383621E-01 -0.26789032924E-01  0.33966991849E-01  0.00000000000E+00 0. -1.
       22    1    1    2    0    0  0.15481627484E-01  0.14546997974E-01  0.22864907610E-01  0.31210574164E-01  0.00000000000E+00 0.  1.
       22    1    1    2    0    0  0.14878059482E-02 -0.23756143521E-02  0.39241253134E-02  0.48224339876E-02  0.00000000000E+00 0.  1.
</event>
<event>
 5   0  0.4146200E+04  0.9118800E+02  0.7546771E-02  0.1180000E+00
      -11   -1    0    0    0    0  0.00000000000E+00  0.00000000000E+00  0.34996269501E-01  0.35000000000E-01  0.51099999109E-03 0.  1.
       11   -1    0    0    0    0 -0.00000000000E+00 -0.00000000000E+00 -0.34996269501E-01  0.35000000000E-01  0.51099999109E-03 0. -1.
       22    1    1    2    0    0 -0.10545037228E-01 -0.11003327618E-01 -0.28953563127E-01  0.32719716481E-01  0.00000000000E+00 0. -1.
       22    1    1    2    0    0 -0.40205037472E-02 -0.13895132086E-02  0.39811966194E-02  0.58262444044E-02  0.00000000000E+00 0. -1.
       22    1    1    2    0    0  0.14565540975E-01  0.12392840827E-01  0.24972366508E-01  0.31454039115E-01  0.00000000000E+00 0.  1.
</event>
<event>
 5   0  0.4146200E+04  0.9118800E+02  0.7546771E-02  0.1180000E+00
      -11   -1    0    0    0    0  0.00000000000E+00  0.00000000000E+00  0.34996269501E-01  0.35000000000E-01  0.51099999109E-03 0. -1.
       11   -1    0    0    0    0 -0.00000000000E+00 -0.00000000000E+00 -0.34996269501E-01  0.35000000000E-01  0.51099999109E-03 0.  1.
       22    1    1    2    0    0  0.52577425805E-02 -0.27316350044E-02 -0.11242624551E-01  0.12708355268E-01  0.00000000000E+00 0.  1.
       22    1    1    2    0    0  0.27715660136E-02 -0.14271453065E-01 -0.17620509907E-01  0.22843780776E-01  0.00000000000E+00 0.  1.
       22    1    1    2    0    0 -0.80293085941E-02  0.17003088069E-01  0.28863134458E-01  0.34447863956E-01  0.00000000000E+00 0. -1.
</event>
<event>
 5   0  0.4146200E+04  0.9118800E+02  0.7546771E-02  0.1180000E+00
      -11   -1    0    0    0    0  0.00000000000E+00  0.00000000000E+00  0.34996269501E-01  0.35000000000E-01  0.51099999109E-03 0.  1.
       11   -1    0    0    0    0 -0.00000000000E+00 -0.00000000000E+00 -0.34996269501E-01  0.35000000000E-01  0.51099999109E-03 0. -1.
       22    1    1    2    0    0 -0.37288566062E-02 -0.22407323411E-02  0.34591314500E-01  0.34863796291E-01  0.00000000000E+00 0.  1.
       22    1    1    2    0    0  0.22219937035E-02  0.15351223286E-02 -0.31584166495E-01  0.31699423177E-01  0.00000000000E+00 0. -1.
       22    1    1    2    0    0  0.15068629027E-02  0.70561001253E-03 -0.30071480055E-02  0.34367805319E-02  0.00000000000E+00 0. -1.
</event>
<event>
 5   0  0.4146200E+04  0.9118800E+02  0.7546771E-02  0.1180000E+00
      -11   -1    0    0    0    0  0.00000000000E+00  0.00000000000E+00  0.34996269501E-01  0.35000000000E-01  0.51099999109E-03 0. -1.
       11   -1    0    0    0    0 -0.00000000000E+00 -0.00000000000E+00 -0.34996269501E-01  0.35000000000E-01  0.51099999109E-03 0.  1.
       22    1    1    2    0    0  0.12438566690E-03  0.15426171515E-03 -0.90652438659E-02  0.90674094878E-02  0.00000000000E+00 0. -1.
       22    1    1    2    0    0  0.54993059990E-02  0.74491860240E-02 -0.24431080317E-01  0.26126814278E-01  0.00000000000E+00 0.  1.
       22    1    1    2    0    0 -0.56236916659E-02 -0.76034477392E-02  0.33496324183E-01  0.34805776234E-01  0.00000000000E+00 0. -1.
</event>
<event>
 5   0  0.4146200E+04  0.9118800E+02  0.7546771E-02  0.1180000E+00
      -11   -1    0    0    0    0  0.00000000000E+00  0.00000000000E+00  0.34996269501E-01  0.35000000000E-01  0.51099999109E-03 0. -1.
       11   -1    0    0    0    0 -0.00000000000E+00 -0.00000000000E+00 -0.34996269501E-01  0.35000000000E-01  0.51099999109E-03 0.  1.
       22    1    1    2    0    0  0.35461674687E-03 -0.20653173127E-03 -0.76159194017E-03  0.86511887999E-03  0.00000000000E+00 0.  1.
       22    1    1    2    0    0 -0.36665548777E-02 -0.30273153939E-01  0.16500041753E-01  0.34672162492E-01  0.00000000000E+00 0. -1.
       22    1    1    2    0    0  0.33119381309E-02  0.30479685670E-01 -0.15738449812E-01  0.34462718628E-01  0.00000000000E+00 0.  1.
</event>
<event>
 5   0  0.4146200E+04  0.9118800E+02  0.7546771E-02  0.1180000E+00
      -11   -1    0    0    0    0  0.00000000000E+00  0.00000000000E+00  0.34996269501E-01  0.35000000000E-01  0.51099999109E-03 0.  1.
       11   -1    0    0    0    0 -0.00000000000E+00 -0.00000000000E+00 -0.34996269501E-01  0.35000000000E-01  0.51099999109E-03 0. -1.
       22    1    1    2    0    0  0.10340633652E-01 -0.56779329759E-02  0.32669585505E-01  0.34734269019E-01  0.00000000000E+00 0.  1.
       22    1    1    2    0    0 -0.10840682785E-01  0.40591926787E-02 -0.28011146289E-01  0.30308773727E-01  0.00000000000E+00 0. -1.
       22    1    1    2    0    0  0.50004913302E-03  0.16187402973E-02 -0.46584392161E-02  0.49569572537E-02  0.00000000000E+00 0. -1.
</event>
<event>
 5   0  0.4146200E+04  0.9118800E+02  0.7546771E-02  0.1180000E+00
      -11   -1    0    0    0    0  0.00000000000E+00  0.00000000000E+00  0.34996269501E-01  0.35000000000E-01  0.51099999109E-03 0.  1.
       11   -1    0    0    0    0 -0.00000000000E+00 -0.00000000000E+00 -0.34996269501E-01  0.35000000000E-01  0.51099999109E-03 0. -1.
       22    1    1    2    0    0  0.60126535062E-03  0.23104407573E-02  0.34423545866E-01  0.34506233734E-01  0.00000000000E+00 0.  1.
       22    1    1    2    0    0  0.15334902163E-02 -0.51054115927E-03 -0.31146633144E-01  0.31188539574E-01  0.00000000000E+00 0. -1.
       22    1    1    2    0    0 -0.21347555669E-02 -0.17998995981E-02 -0.32769127214E-02  0.43052266929E-02  0.00000000000E+00 0.  1.
</event>
<event>
 5   0  0.4146200E+04  0.9118800E+02  0.7546771E-02  0.1180000E+00
      -11   -1    0    0    0    0  0.00000000000E+00  0.00000000000E+00  0.34996269501E-01  0.35000000000E-01  0.51099999109E-03 0. -1.
       11   -1    0    0    0    0 -0.00000000000E+00 -0.00000000000E+00 -0.34996269501E-01  0.35000000000E-01  0.51099999109E-03 0. -1.
       22    1    1    2    0    0 -0.98379633953E-03  0.23633553254E-03 -0.12009562379E-02  0.15703520647E-02  0.00000000000E+00 0.  1.
       22    1    1    2    0    0  0.37318481839E-03  0.16999026795E-03 -0.33609232019E-01  0.33611733673E-01  0.00000000000E+00 0. -1.
       22    1    1    2    0    0  0.61061152114E-03 -0.40632580049E-03  0.34810188257E-01  0.34817914262E-01  0.00000000000E+00 0. -1.
</event>
<event>
 5   0  0.4146200E+04  0.9118800E+02  0.7546771E-02  0.1180000E+00
      -11   -1    0    0    0    0  0.00000000000E+00  0.00000000000E+00  0.34996269501E-01  0.35000000000E-01  0.51099999109E-03 0.  1.
       11   -1    0    0    0    0 -0.00000000000E+00 -0.00000000000E+00 -0.34996269501E-01  0.35000000000E-01  0.51099999109E-03 0.  1.
       22    1    1    2    0    0 -0.42457677822E-02 -0.20726794309E-02  0.34254225591E-01  0.34578526789E-01  0.00000000000E+00 0.  1.
       22    1    1    2    0    0  0.39560268010E-02  0.18273896752E-02 -0.75708953555E-02  0.87354426081E-02  0.00000000000E+00 0. -1.
       22    1    1    2    0    0  0.28974098119E-03  0.24528975570E-03 -0.26683330235E-01  0.26686030603E-01  0.00000000000E+00 0.  1.
</event>
<event>
 5   0  0.4146200E+04  0.9118800E+02  0.7546771E-02  0.1180000E+00
      -11   -1    0    0    0    0  0.00000000000E+00  0.00000000000E+00  0.34996269501E-01  0.35000000000E-01  0.51099999109E-03 0. -1.
       11   -1    0    0    0    0 -0.00000000000E+00 -0.00000000000E+00 -0.34996269501E-01  0.35000000000E-01  0.51099999109E-03 0. -1.
       22    1    1    2    0    0 -0.12901022205E-03  0.77189253709E-03 -0.31879845661E-01  0.31889449997E-01  0.00000000000E+00 0. -1.
       22    1    1    2    0    0  0.17238085409E-02 -0.73740630894E-03  0.34764071233E-01  0.34814593673E-01  0.00000000000E+00 0. -1.
       22    1    1    2    0    0 -0.15947983189E-02 -0.34486228156E-04 -0.28842255723E-02  0.32959563301E-02  0.00000000000E+00 0. -1.
</event>
<event>
 5   0  0.4146200E+04  0.9118800E+02  0.7546771E-02  0.1180000E+00
      -11   -1    0    0    0    0  0.00000000000E+00  0.00000000000E+00  0.34996269501E-01  0.35000000000E-01  0.51099999109E-03 0. -1.
       11   -1    0    0    0    0 -0.00000000000E+00 -0.00000000000E+00 -0.34996269501E-01  0.35000000000E-01  0.51099999109E-03 0.  1.
       22    1    1    2    0    0 -0.97667054582E-03 -0.50937111856E-02  0.33016364017E-01  0.33421251800E-01  0.00000000000E+00 0. -1.
       22    1    1    2    0    0 -0.63998174446E-02  0.53360932221E-02 -0.16330343960E-01  0.18333349068E-01  0.00000000000E+00 0.  1.
       22    1    1    2    0    0  0.73764879904E-02 -0.24238203647E-03 -0.16686020057E-01  0.18245399132E-01  0.00000000000E+00 0.  1.
</event>
<event>
 5   0  0.4146200E+04  0.9118800E+02  0.7546771E-02  0.1180000E+00
      -11   -1    0    0    0    0  0.00000000000E+00  0.00000000000E+00  0.34996269501E-01  0.35000000000E-01  0.51099999109E-03 0.  1.
       11   -1    0    0    0    0 -0.00000000000E+00 -0.00000000000E+00 -0.34996269501E-01  0.35000000000E-01  0.51099999109E-03 0. -1.
       22    1    1    2    0    0  0.90464024567E-02  0.14618903713E-01 -0.30378582592E-01  0.34905701877E-01  0.00000000000E+00 0. -1.
       22    1    1    2    0    0  0.88470885629E-04 -0.43278178309E-03  0.13408938958E-03  0.46163528221E-03  0.00000000000E+00 0. -1.
       22    1    1    2    0    0 -0.91348733423E-02 -0.14186121930E-01  0.30244493203E-01  0.34632662841E-01  0.00000000000E+00 0.  1.
</event>
<event>
 5   0  0.4146200E+04  0.9118800E+02  0.7546771E-02  0.1180000E+00
      -11   -1    0    0    0    0  0.00000000000E+00  0.00000000000E+00  0.34996269501E-01  0.35000000000E-01  0.51099999109E-03 0. -1.
       11   -1    0    0    0    0 -0.00000000000E+00 -0.00000000000E+00 -0.34996269501E-01  0.35000000000E-01  0.51099999109E-03 0.  1.
       22    1    1    2    0    0 -0.38668347341E-02 -0.11844739124E-01 -0.31998310473E-01  0.34338639008E-01  0.00000000000E+00 0.  1.
       22    1    1    2    0    0  0.38192929468E-02  0.10986977051E-01  0.32599681382E-01  0.34612712831E-01  0.00000000000E+00 0. -1.
       22    1    1    2    0    0  0.47541787229E-04  0.85776207311E-03 -0.60137090841E-03  0.10486481608E-02  0.00000000000E+00 0. -1.
</event>
<event>
 5   0  0.4146200E+04  0.9118800E+02  0.7546771E-02  0.1180000E+00
      -11   -1    0    0    0    0  0.00000000000E+00  0.00000000000E+00  0.34996269501E-01  0.35000000000E-01  0.51099999109E-03 0. -1.
       11   -1    0    0    0    0 -0.00000000000E+00 -0.00000000000E+00 -0.34996269501E-01  0.35000000000E-01  0.51099999109E-03 0.  1.
       22    1    1    2    0    0 -0.14990203726E-01  0.25212921947E-01  0.17534917138E-01  0.34174127054E-01  0.00000000000E+00 0. -1.
       22    1    1    2    0    0  0.16068290797E-01 -0.25406854303E-01 -0.16381683595E-01  0.34235329297E-01  0.00000000000E+00 0.  1.
       22    1    1    2    0    0 -0.10780870717E-02  0.19393235555E-03 -0.11532335434E-02  0.15905436487E-02  0.00000000000E+00 0. -1.
</event>
<event>
 5   0  0.4146200E+04  0.9118800E+02  0.7546771E-02  0.1180000E+00
      -11   -1    0    0    0    0  0.00000000000E+00  0.00000000000E+00  0.34996269501E-01  0.35000000000E-01  0.51099999109E-03 0.  1.
       11   -1    0    0    0    0 -0.00000000000E+00 -0.00000000000E+00 -0.34996269501E-01  0.35000000000E-01  0.51099999109E-03 0. -1.
       22    1    1    2    0    0 -0.18704365341E-02  0.12449884402E-01 -0.32641066458E-01  0.34984816334E-01  0.00000000000E+00 0. -1.
       22    1    1    2    0    0  0.17753771092E-02 -0.12287509394E-01  0.31492855930E-01  0.33851659126E-01  0.00000000000E+00 0.  1.
       22    1    1    2    0    0  0.95059424924E-04 -0.16237500846E-03  0.11482105280E-02  0.11635245396E-02  0.00000000000E+00 0. -1.
</event>
<event>
 5   0  0.4146200E+04  0.9118800E+02  0.7546771E-02  0.1180000E+00
      -11   -1    0    0    0    0  0.00000000000E+00  0.00000000000E+00  0.34996269501E-01  0.35000000000E-01  0.51099999109E-03 0.  1.
       11   -1    0    0    0    0 -0.00000000000E+00 -0.00000000000E+00 -0.34996269501E-01  0.35000000000E-01  0.51099999109E-03 0. -1.
       22    1    1    2    0    0 -0.49991064667E-02  0.36046500602E-02 -0.26125816979E-01  0.26842929802E-01  0.00000000000E+00 0. -1.
       22    1    1    2    0    0  0.23911170916E-02 -0.24193304253E-02  0.34314019977E-01  0.34482206536E-01  0.00000000000E+00 0.  1.
       22    1    1    2    0    0  0.26079893751E-02 -0.11853196350E-02 -0.81882029976E-02  0.86748636616E-02  0.00000000000E+00 0. -1.
</event>
<event>
 5   0  0.4146200E+04  0.9118800E+02  0.7546771E-02  0.1180000E+00
      -11   -1    0    0    0    0  0.00000000000E+00  0.00000000000E+00  0.34996269501E-01  0.35000000000E-01  0.51099999109E-03 0. -1.
       11   -1    0    0    0    0 -0.00000000000E+00 -0.00000000000E+00 -0.34996269501E-01  0.35000000000E-01  0.51099999109E-03 0.  1.
       22    1    1    2    0    0 -0.17059798072E-02  0.41524553138E-03 -0.98742549355E-04  0.17585636312E-02  0.00000000000E+00 0. -1.
       22    1    1    2    0    0 -0.13506528370E-01  0.72035771066E-02  0.30090320997E-01  0.33760113291E-01  0.00000000000E+00 0. -1.
       22    1    1    2    0    0  0.15212508177E-01 -0.76188226379E-02 -0.29991578447E-01  0.34481323078E-01  0.00000000000E+00 0.  1.
</event>
<event>
 5   0  0.4146200E+04  0.9118800E+02  0.7546771E-02  0.1180000E+00
      -11   -1    0    0    0    0  0.00000000000E+00  0.00000000000E+00  0.34996269501E-01  0.35000000000E-01  0.51099999109E-03 0. -1.
       11   -1    0    0    0    0 -0.00000000000E+00 -0.00000000000E+00 -0.34996269501E-01  0.35000000000E-01  0.51099999109E-03 0.  1.
       22    1    1    2    0    0  0.11567913008E-01  0.30985331786E-02  0.30995311439E-01  0.33228404271E-01  0.00000000000E+00 0. -1.
       22    1    1    2    0    0  0.66367548993E-03 -0.36962759320E-02 -0.35196609164E-03  0.37718431902E-02  0.00000000000E+00 0. -1.
       22    1    1    2    0    0 -0.12231588498E-01  0.59774275344E-03 -0.30643345347E-01  0.32999752539E-01  0.00000000000E+00 0.  1.
</event>
<event>
 5   0  0.4146200E+04  0.9118800E+02  0.7546771E-02  0.1180000E+00
      -11   -1    0    0    0    0  0.00000000000E+00  0.00000000000E+00  0.34996269501E-01  0.35000000000E-01  0.51099999109E-03 0.  1.
       11   -1    0    0    0    0 -0.00000000000E+00 -0.00000000000E+00 -0.34996269501E-01  0.35000000000E-01  0.51099999109E-03 0. -1.
       22    1    1    2    0    0  0.10248477193E-01  0.41054012282E-02 -0.30932853555E-01  0.32843980165E-01  0.00000000000E+00 0. -1.
       22    1    1    2    0    0 -0.14121206795E-01 -0.40868701845E-02  0.15995558238E-01  0.21724844593E-01  0.00000000000E+00 0.  1.
       22    1    1    2    0    0  0.38727296015E-02 -0.18531043730E-04  0.14937295317E-01  0.15431175242E-01  0.00000000000E+00 0.  1.
</event>
<event>
 5   0  0.4146200E+04  0.9118800E+02  0.7546771E-02  0.1180000E+00
      -11   -1    0    0    0    0  0.00000000000E+00  0.00000000000E+00  0.34996269501E-01  0.35000000000E-01  0.51099999109E-03 0. -1.
       11   -1    0    0    0    0 -0.00000000000E+00 -0.00000000000E+00 -0.34996269501E-01  0.35000000000E-01  0.51099999109E-03 0.  1.
       22    1    1    2    0    0  0.12666552197E-02 -0.40428288004E-03 -0.22874774121E-01  0.22913383669E-01  0.00000000000E+00 0.  1.
       22    1    1    2    0    0  0.34986470757E-02  0.60764360105E-02  0.33448746808E-01  0.34175755573E-01  0.00000000000E+00 0. -1.
       22    1    1    2    0    0 -0.47653022954E-02 -0.56721531305E-02 -0.10573972688E-01  0.12910860757E-01  0.00000000000E+00 0.  1.
</event>
<event>
 5   0  0.4146200E+04  0.9118800E+02  0.7546771E-02  0.1180000E+00
      -11   -1    0    0    0    0  0.00000000000E+00  0.00000000000E+00  0.34996269501E-01  0.35000000000E-01  0.51099999109E-03 0. -1.
       11   -1    0    0    0    0 -0.00000000000E+00 -0.00000000000E+00 -0.34996269501E-01  0.35000000000E-01  0.51099999109E-03 0.  1.
       22    1    1    2    0    0 -0.10126400988E-01 -0.10515230605E-01  0.28628090925E-01  0.32135364657E-01  0.00000000000E+00 0. -1.
       22    1    1    2    0    0 -0.42935186269E-02  0.84684105123E-04 -0.16733496576E-03  0.42976126615E-02  0.00000000000E+00 0. -1.
       22    1    1    2    0    0  0.14419919615E-01  0.10430546500E-01 -0.28460755959E-01  0.33567022682E-01  0.00000000000E+00 0.  1.
</event>
<event>
 5   0  0.4146200E+04  0.9118800E+02  0.7546771E-02  0.1180000E+00
      -11   -1    0    0    0    0  0.00000000000E+00  0.00000000000E+00  0.34996269501E-01  0.35000000000E-01  0.51099999109E-03 0.  1.
       11   -1    0    0    0    0 -0.00000000000E+00 -0.00000000000E+00 -0.34996269501E-01  0.35000000000E-01  0.51099999109E-03 0. -1.
       22    1    1    2    0    0 -0.56448175357E-02 -0.52201008255E-02 -0.32053489454E-01  0.32962700190E-01  0.00000000000E+00 0. -1.
       22    1    1    2    0    0  0.47719822583E-02  0.45274034626E-02  0.34088405575E-01  0.34717266474E-01  0.00000000000E+00 0.  1.
       22    1    1    2    0    0  0.87283527743E-03  0.69269736281E-03 -0.20349161217E-02  0.23200333361E-02  0.00000000000E+00 0.  1.
</event>
<event>
 5   0  0.4146200E+04  0.9118800E+02  0.7546771E-02  0.1180000E+00
      -11   -1    0    0    0    0  0.00000000000E+00  0.00000000000E+00  0.34996269501E-01  0.35000000000E-01  0.51099999109E-03 0. -1.
       11   -1    0    0    0    0 -0.00000000000E+00 -0.00000000000E+00 -0.34996269501E-01  0.35000000000E-01  0.51099999109E-03 0.  1.
       22    1    1    2    0    0  0.36644095333E-02  0.13451638563E-01  0.27689581047E-01  0.31001409255E-01  0.00000000000E+00 0. -1.
       22    1    1    2    0    0 -0.41749972697E-02 -0.17184846571E-01 -0.29820327600E-01  0.34669893164E-01  0.00000000000E+00 0.  1.
       22    1    1    2    0    0  0.51058773642E-03  0.37332080084E-02  0.21307465524E-02  0.43286975802E-02  0.00000000000E+00 0.  1.
</event>
<event>
 5   0  0.4146200E+04  0.9118800E+02  0.7546771E-02  0.1180000E+00
      -11   -1    0    0    0    0  0.00000000000E+00  0.00000000000E+00  0.34996269501E-01  0.35000000000E-01  0.51099999109E-03 0.  1.
       11   -1    0    0    0    0 -0.00000000000E+00 -0.00000000000E+00 -0.34996269501E-01  0.35000000000E-01  0.51099999109E-03 0. -1.
       22    1    1    2    0    0  0.28697869011E-03  0.36184975799E-03 -0.31551082821E-01  0.31554462746E-01  0.00000000000E+00 0. -1.
       22    1    1    2    0    0  0.48658195204E-03  0.56704391919E-03  0.34888214649E-01  0.34896215013E-01  0.00000000000E+00 0.  1.
       22    1    1    2    0    0 -0.77356064214E-03 -0.92889367718E-03 -0.33371318284E-02  0.35493222410E-02  0.00000000000E+00 0. -1.
</event>
<event>
 5   0  0.4146200E+04  0.9118800E+02  0.7546771E-02  0.1180000E+00
      -11   -1    0    0    0    0  0.00000000000E+00  0.00000000000E+00  0.34996269501E-01  0.35000000000E-01  0.51099999109E-03 0.  1.
       11   -1    0    0    0    0 -0.00000000000E+00 -0.00000000000E+00 -0.34996269501E-01  0.35000000000E-01  0.51099999109E-03 0. -1.
       22    1    1    2    0    0  0.12912608438E-01  0.12671209673E-03  0.32465388576E-01  0.34939275436E-01  0.00000000000E+00 0.  1.
       22    1    1    2    0    0 -0.20724308053E-02  0.17157262968E-03 -0.85875060665E-02  0.88357041062E-02  0.00000000000E+00 0.  1.
       22    1    1    2    0    0 -0.10840177632E-01 -0.29828472641E-03 -0.23877882509E-01  0.26225020458E-01  0.00000000000E+00 0. -1.
</event>
<event>
 5   0  0.4146200E+04  0.9118800E+02  0.7546771E-02  0.1180000E+00
      -11   -1    0    0    0    0  0.00000000000E+00  0.00000000000E+00  0.34996269501E-01  0.35000000000E-01  0.51099999109E-03 0.  1.
       11   -1    0    0    0    0 -0.00000000000E+00 -0.00000000000E+00 -0.34996269501E-01  0.35000000000E-01  0.51099999109E-03 0. -1.
       22    1    1    2    0    0  0.94697647159E-02 -0.11926629735E-01 -0.19445329334E-01  0.24699023736E-01  0.00000000000E+00 0. -1.
       22    1    1    2    0    0 -0.60772378259E-03  0.56259872682E-03  0.28349141144E-01  0.28361234972E-01  0.00000000000E+00 0.  1.
       22    1    1    2    0    0 -0.88620409333E-02  0.11364031009E-01 -0.89038118105E-02  0.16939741291E-01  0.00000000000E+00 0.  1.
</event>
<event>
 5   0  0.4146200E+04  0.9118800E+02  0.7546771E-02  0.1180000E+00
      -11   -1    0    0    0    0  0.00000000000E+00  0.00000000000E+00  0.34996269501E-01  0.35000000000E-01  0.51099999109E-03 0. -1.
       11   -1    0    0    0    0 -0.00000000000E+00 -0.00000000000E+00 -0.34996269501E-01  0.35000000000E-01  0.51099999109E-03 0.  1.
       22    1    1    2    0    0  0.62837897971E-03  0.33778718831E-03  0.40724934854E-02  0.41345088603E-02  0.00000000000E+00 0.  1.
       22    1    1    2    0    0 -0.11296451889E-01 -0.53327672325E-02 -0.32648551600E-01  0.34956775498E-01  0.00000000000E+00 0.  1.
       22    1    1    2    0    0  0.10668072909E-01  0.49949800441E-02  0.28576058115E-01  0.30908715642E-01  0.00000000000E+00 0. -1.
</event>
<event>
 5   0  0.4146200E+04  0.9118800E+02  0.7546771E-02  0.1180000E+00
      -11   -1    0    0    0    0  0.00000000000E+00  0.00000000000E+00  0.34996269501E-01  0.35000000000E-01  0.51099999109E-03 0.  1.
       11   -1    0    0    0    0 -0.00000000000E+00 -0.00000000000E+00 -0.34996269501E-01  0.35000000000E-01  0.51099999109E-03 0. -1.
       22    1    1    2    0    0 -0.12621440962E-01 -0.16727211849E-01  0.21994789030E-01  0.30378794128E-01  0.00000000000E+00 0.  1.
       22    1    1    2    0    0  0.30283209310E-03  0.28248984978E-03  0.53784910099E-02  0.53944113057E-02  0.00000000000E+00 0.  1.
       22    1    1    2    0    0  0.12318608869E-01  0.16444721999E-01 -0.27373280040E-01  0.34226794566E-01  0.00000000000E+00 0. -1.
</event>
<event>
 5   0  0.4146200E+04  0.9118800E+02  0.7546771E-02  0.1180000E+00
      -11   -1    0    0    0    0  0.00000000000E+00  0.00000000000E+00  0.34996269501E-01  0.35000000000E-01  0.51099999109E-03 0. -1.
       11   -1    0    0    0    0 -0.00000000000E+00 -0.00000000000E+00 -0.34996269501E-01  0.35000000000E-01  0.51099999109E-03 0.  1.
       22    1    1    2    0    0 -0.14843469747E-01  0.11288999490E-01 -0.29407184798E-01  0.34821726284E-01  0.00000000000E+00 0.  1.
       22    1    1    2    0    0 -0.37361721250E-03 -0.14685517787E-03  0.10276902463E-02  0.11033147815E-02  0.00000000000E+00 0.  1.
       22    1    1    2    0    0  0.15217086959E-01 -0.11142144312E-01  0.28379494552E-01  0.34074958935E-01  0.00000000000E+00 0. -1.
</event>
<event>
 5   0  0.4146200E+04  0.9118800E+02  0.7546771E-02  0.1180000E+00
      -11   -1    0    0    0    0  0.00000000000E+00  0.00000000000E+00  0.34996269501E-01  0.35000000000E-01  0.51099999109E-03 0.  1.
       11   -1    0    0    0    0 -0.00000000000E+00 -0.00000000000E+00 -0.34996269501E-01  0.35000000000E-01  0.51099999109E-03 0.  1.
       22    1    1    2    0    0  0.60629486620E-03 -0.13107260246E-02 -0.32079637553E-01  0.32112127642E-01  0.00000000000E+00 0.  1.
       22    1    1    2    0    0 -0.27854341461E-03  0.19680257492E-02 -0.25596721522E-02  0.32407766523E-02  0.00000000000E+00 0. -1.
       22    1    1    2    0    0 -0.32775145158E-03 -0.65729972461E-03  0.34639309705E-01  0.34647095705E-01  0.00000000000E+00 0.  1.
</event>
<event>
 5   0  0.4146200E+04  0.9118800E+02  0.7546771E-02  0.1180000E+00
      -11   -1    0    0    0    0  0.00000000000E+00  0.00000000000E+00  0.34996269501E-01  0.35000000000E-01  0.51099999109E-03 0. -1.
       11   -1    0    0    0    0 -0.00000000000E+00 -0.00000000000E+00 -0.34996269501E-01  0.35000000000E-01  0.51099999109E-03 0.  1.
       22    1    1    2    0    0 -0.13407282700E-01 -0.57272275544E-02  0.31254090432E-01  0.34487309747E-01  0.00000000000E+00 0. -1.
       22    1    1    2    0    0  0.13678474852E-01  0.37009803774E-02 -0.23046814715E-01  0.27054640980E-01  0.00000000000E+00 0.  1.
       22    1    1    2    0    0 -0.27119215239E-03  0.20262471769E-02 -0.82072757172E-02  0.84580492729E-02  0.00000000000E+00 0.  1.
</event>
<event>
 5   0  0.4146200E+04  0.9118800E+02  0.7546771E-02  0.1180000E+00
      -11   -1    0    0    0    0  0.00000000000E+00  0.00000000000E+00  0.34996269501E-01  0.35000000000E-01  0.51099999109E-03 0. -1.
       11   -1    0    0    0    0 -0.00000000000E+00 -0.00000000000E+00 -0.34996269501E-01  0.35000000000E-01  0.51099999109E-03 0.  1.
       22    1    1    2    0    0  0.73868112882E-02 -0.37303780213E-02 -0.33613261724E-01  0.34616933211E-01  0.00000000000E+00 0.  1.
       22    1    1    2    0    0 -0.93694926166E-04  0.17244009769E-03 -0.38375221158E-03  0.43102214139E-03  0.00000000000E+00 0. -1.
       22    1    1    2    0    0 -0.72931163620E-02  0.35579379236E-02  0.33997013936E-01  0.34952044648E-01  0.00000000000E+00 0. -1.
</event>
<event>
 5   0  0.4146200E+04  0.9118800E+02  0.7546771E-02  0.1180000E+00
      -11   -1    0    0    0    0  0.00000000000E+00  0.00000000000E+00  0.34996269501E-01  0.35000000000E-01  0.51099999109E-03 0. -1.
       11   -1    0    0    0    0 -0.00000000000E+00 -0.00000000000E+00 -0.34996269501E-01  0.35000000000E-01  0.51099999109E-03 0.  1.
       22    1    1    2    0    0 -0.14356268665E-01 -0.29117310320E-02  0.30047884103E-01  0.33428370685E-01  0.00000000000E+00 0. -1.
       22    1    1    2    0    0  0.11874395848E-01  0.29531706496E-02 -0.31431917806E-01  0.33729630158E-01  0.00000000000E+00 0.  1.
       22    1    1    2    0    0  0.24818728168E-02 -0.41439617504E-04  0.13840337030E-02  0.28419991576E-02  0.00000000000E+00 0.  1.
</event>
<event>
 5   0  0.4146200E+04  0.9118800E+02  0.7546771E-02  0.1180000E+00
      -11   -1    0    0    0    0  0.00000000000E+00  0.00000000000E+00  0.34996269501E-01  0.35000000000E-01  0.51099999109E-03 0.  1.
       11   -1    0    0    0    0 -0.00000000000E+00 -0.00000000000E+00 -0.34996269501E-01  0.35000000000E-01  0.51099999109E-03 0. -1.
       22    1    1    2    0    0 -0.11709201921E-02 -0.69603363630E-03 -0.38029782619E-02  0.40395743067E-02  0.00000000000E+00 0. -1.
       22    1    1    2    0    0 -0.55811051681E-02  0.18432649277E-02  0.34250995927E-01  0.34751648629E-01  0.00000000000E+00 0.  1.
       22    1    1    2    0    0  0.67520253602E-02 -0.11472312914E-02 -0.30448017665E-01  0.31208777064E-01  0.00000000000E+00 0. -1.
</event>
<event>
 5   0  0.4146200E+04  0.9118800E+02  0.7546771E-02  0.1180000E+00
      -11   -1    0    0    0    0  0.00000000000E+00  0.00000000000E+00  0.34996269501E-01  0.35000000000E-01  0.51099999109E-03 0.  1.
       11   -1    0    0    0    0 -0.00000000000E+00 -0.00000000000E+00 -0.34996269501E-01  0.35000000000E-01  0.51099999109E-03 0. -1.
       22    1    1    2    0    0 -0.16281660514E-02  0.94977270540E-04 -0.21744076765E-01  0.21805155806E-01  0.00000000000E+00 0. -1.
       22    1    1    2    0    0  0.45277512318E-02 -0.45959885368E-02 -0.12216155335E-01  0.13815139993E-01  0.00000000000E+00 0. -1.
       22    1    1    2    0    0 -0.28995851804E-02  0.45010112662E-02  0.33960232100E-01  0.34379704201E-01  0.00000000000E+00 0.  1.
</event>
<event>
 5   0  0.4146200E+04  0.9118800E+02  0.7546771E-02  0.1180000E+00
      -11   -1    0    0    0    0  0.00000000000E+00  0.00000000000E+00  0.34996269501E-01  0.35000000000E-01  0.51099999109E-03 0. -1.
       11   -1    0    0    0    0 -0.00000000000E+00 -0.00000000000E+00 -0.34996269501E-01  0.35000000000E-01  0.51099999109E-03 0.  1.
       22    1    1    2    0    0 -0.86680434428E-03  0.29470440103E-02  0.21229039077E-01  0.21450140286E-01  0.00000000000E+00 0. -1.
       22    1    1    2    0    0 -0.11373171853E-01 -0.34927842454E-02  0.96563839249E-02  0.15323000042E-01  0.00000000000E+00 0. -1.
       22    1    1    2    0    0  0.12239976197E-01  0.54574023505E-03 -0.30885423002E-01  0.33226859672E-01  0.00000000000E+00 0.  1.
</event>
<event>
 5   0  0.4146200E+04  0.9118800E+02  0.7546771E-02  0.1180000E+00
      -11   -1    0    0    0    0  0.00000000000E+00  0.00000000000E+00  0.34996269501E-01  0.35000000000E-01  0.51099999109E-03 0. -1.
       11   -1    0    0    0    0 -0.00000000000E+00 -0.00000000000E+00 -0.34996269501E-01  0.35000000000E-01  0.51099999109E-03 0.  1.
       22    1    1    2    0    0 -0.13957486654E-03 -0.18723381581E-03 -0.50515556111E-03  0.55652473985E-03  0.00000000000E+00 0. -1.
       22    1    1    2    0    0 -0.10307994663E-03  0.35287609805E-03 -0.34467562597E-01  0.34469523037E-01  0.00000000000E+00 0.  1.
       22    1    1    2    0    0  0.24265481317E-03 -0.16564228225E-03  0.34972718158E-01  0.34973952223E-01  0.00000000000E+00 0. -1.
</event>
<event>
 5   0  0.4146200E+04  0.9118800E+02  0.7546771E-02  0.1180000E+00
      -11   -1    0    0    0    0  0.00000000000E+00  0.00000000000E+00  0.34996269501E-01  0.35000000000E-01  0.51099999109E-03 0.  1.
       11   -1    0    0    0    0 -0.00000000000E+00 -0.00000000000E+00 -0.34996269501E-01  0.35000000000E-01  0.51099999109E-03 0. -1.
       22    1    1    2    0    0 -0.10577375324E-03 -0.43385380452E-04  0.10324416727E-01  0.10325049692E-01  0.00000000000E+00 0. -1.
       22    1    1    2    0    0  0.80154557103E-02 -0.84220718096E-02 -0.32575591853E-01  0.34588264027E-01  0.00000000000E+00 0. -1.
       22    1    1    2    0    0 -0.79096819571E-02  0.84654571900E-02  0.22251175126E-01  0.25086686281E-01  0.00000000000E+00 0.  1.
</event>
<event>
 5   0  0.4146200E+04  0.9118800E+02  0.7546771E-02  0.1180000E+00
      -11   -1    0    0    0    0  0.00000000000E+00  0.00000000000E+00  0.34996269501E-01  0.35000000000E-01  0.51099999109E-03 0. -1.
       11   -1    0    0    0    0 -0.00000000000E+00 -0.00000000000E+00 -0.34996269501E-01  0.35000000000E-01  0.51099999109E-03 0.  1.
       22    1    1    2    0    0 -0.20824419293E-04  0.16231836483E-04  0.52227178682E-03  0.52293876149E-03  0.00000000000E+00 0.  1.
       22    1    1    2    0    0 -0.53174270596E-02 -0.15347308956E-01 -0.30970656267E-01  0.34971366463E-01  0.00000000000E+00 0.  1.
       22    1    1    2    0    0  0.53382514789E-02  0.15331077119E-01  0.30448384480E-01  0.34505694775E-01  0.00000000000E+00 0. -1.
</event>
<event>
 5   0  0.4146200E+04  0.9118800E+02  0.7546771E-02  0.1180000E+00
      -11   -1    0    0    0    0  0.00000000000E+00  0.00000000000E+00  0.34996269501E-01  0.35000000000E-01  0.51099999109E-03 0. -1.
       11   -1    0    0    0    0 -0.00000000000E+00 -0.00000000000E+00 -0.34996269501E-01  0.35000000000E-01  0.51099999109E-03 0.  1.
       22    1    1    2    0    0 -0.15281045568E-02 -0.13840758038E-01 -0.17811104829E-01  0.22608342306E-01  0.00000000000E+00 0.  1.
       22    1    1    2    0    0  0.65718758561E-05 -0.10495552371E-01 -0.69909639276E-02  0.12610719226E-01  0.00000000000E+00 0.  1.
       22    1    1    2    0    0  0.15215326809E-02  0.24336310409E-01  0.24802068757E-01  0.34780938467E-01  0.00000000000E+00 0. -1.
</event>
<event>
 5   0  0.4146200E+04  0.9118800E+02  0.7546771E-02  0.1180000E+00
      -11   -1    0    0    0    0  0.00000000000E+00  0.00000000000E+00  0.34996269501E-01  0.35000000000E-01  0.51099999109E-03 0.  1.
       11   -1    0    0    0    0 -0.00000000000E+00 -0.00000000000E+00 -0.34996269501E-01  0.35000000000E-01  0.51099999109E-03 0. -1.
       22    1    1    2    0    0 -0.78086811374E-02 -0.13652743681E-02  0.33128547616E-01  0.34063765827E-01  0.00000000000E+00 0.  1.
       22    1    1    2    0    0 -0.16155250076E-02 -0.13124506690E-03 -0.17844654971E-01  0.17918115340E-01  0.00000000000E+00 0.  1.
       22    1    1    2    0    0  0.94242061450E-02  0.14965194350E-02 -0.15283892645E-01  0.18018118832E-01  0.00000000000E+00 0. -1.
</event>
<event>
 5   0  0.4146200E+04  0.9118800E+02  0.7546771E-02  0.1180000E+00
      -11   -1    0    0    0    0  0.00000000000E+00  0.00000000000E+00  0.34996269501E-01  0.35000000000E-01  0.51099999109E-03 0.  1.
       11   -1    0    0    0    0 -0.00000000000E+00 -0.00000000000E+00 -0.34996269501E-01  0.35000000000E-01  0.51099999109E-03 0. -1.
       22    1    1    2    0    0  0.11024686577E-01  0.98676791078E-02 -0.31503408712E-01  0.34804878474E-01  0.00000000000E+00 0. -1.
       22    1    1    2    0    0  0.18637611894E-03 -0.10586159352E-03  0.33610625951E-02  0.33678902153E-02  0.00000000000E+00 0. -1.
       22    1    1    2    0    0 -0.11211062696E-01 -0.97618175142E-02  0.28142346117E-01  0.31827231311E-01  0.00000000000E+00 0.  1.
</event>
<event>
 5   0  0.4146200E+04  0.9118800E+02  0.7546771E-02  0.1180000E+00
      -11   -1    0    0    0    0  0.00000000000E+00  0.00000000000E+00  0.34996269501E-01  0.35000000000E-01  0.51099999109E-03 0.  1.
       11   -1    0    0    0    0 -0.00000000000E+00 -0.00000000000E+00 -0.34996269501E-01  0.35000000000E-01  0.51099999109E-03 0. -1.
       22    1    1    2    0    0 -0.80723305246E-03 -0.11169737693E-01  0.33148019701E-01  0.34988653524E-01  0.00000000000E+00 0.  1.
       22    1    1    2    0    0 -0.25878129441E-04  0.24820293745E-03 -0.33014393005E-03  0.41384706148E-03  0.00000000000E+00 0.  1.
       22    1    1    2    0    0  0.83311118190E-03  0.10921534755E-01 -0.32817875771E-01  0.34597499415E-01  0.00000000000E+00 0. -1.
</event>
<event>
 5   0  0.4146200E+04  0.9118800E+02  0.7546771E-02  0.1180000E+00
      -11   -1    0    0    0    0  0.00000000000E+00  0.00000000000E+00  0.34996269501E-01  0.35000000000E-01  0.51099999109E-03 0.  1.
       11   -1    0    0    0    0 -0.00000000000E+00 -0.00000000000E+00 -0.34996269501E-01  0.35000000000E-01  0.51099999109E-03 0. -1.
       22    1    1    2    0    0 -0.12034383718E-02 -0.62006997309E-03  0.13087919096E-01  0.13157749692E-01  0.00000000000E+00 0.  1.
       22    1    1    2    0    0 -0.20553525830E-01  0.18028489646E-02  0.11796434006E-01  0.23766647717E-01  0.00000000000E+00 0.  1.
       22    1    1    2    0    0  0.21756964202E-01 -0.11827789915E-02 -0.24884353102E-01  0.33075602591E-01  0.00000000000E+00 0. -1.
</event>
<event>
 5   0  0.4146200E+04  0.9118800E+02  0.7546771E-02  0.1180000E+00
      -11   -1    0    0    0    0  0.00000000000E+00  0.00000000000E+00  0.34996269501E-01  0.35000000000E-01  0.51099999109E-03 0.  1.
       11   -1    0    0    0    0 -0.00000000000E+00 -0.00000000000E+00 -0.34996269501E-01  0.35000000000E-01  0.51099999109E-03 0. -1.
       22    1    1    2    0    0 -0.73992760294E-03 -0.30996449136E-03 -0.20842941485E-02  0.22333501608E-02  0.00000000000E+00 0. -1.
       22    1    1    2    0    0  0.57782661941E-02 -0.39619288485E-02  0.34234918084E-01  0.34944453875E-01  0.00000000000E+00 0.  1.
       22    1    1    2    0    0 -0.50383385911E-02  0.42718933399E-02 -0.32150623935E-01  0.32822195964E-01  0.00000000000E+00 0. -1.
</event>
<event>
 5   0  0.4146200E+04  0.9118800E+02  0.7546771E-02  0.1180000E+00
      -11   -1    0    0    0    0  0.00000000000E+00  0.00000000000E+00  0.34996269501E-01  0.35000000000E-01  0.51099999109E-03 0.  1.
       11   -1    0    0    0    0 -0.00000000000E+00 -0.00000000000E+00 -0.34996269501E-01  0.35000000000E-01  0.51099999109E-03 0.  1.
       22    1    1    2    0    0  0.24201178348E-03  0.51321841053E-03  0.34731316823E-01  0.34735951564E-01  0.00000000000E+00 0.  1.
       22    1    1    2    0    0  0.11721817247E-02 -0.17299292880E-02 -0.43538991533E-02  0.48293998773E-02  0.00000000000E+00 0.  1.
       22    1    1    2    0    0 -0.14141935082E-02  0.12167108775E-02 -0.30377417669E-01  0.30434648559E-01  0.00000000000E+00 0. -1.
</event>
<event>
 5   0  0.4146200E+04  0.9118800E+02  0.7546771E-02  0.1180000E+00
      -11   -1    0    0    0    0  0.00000000000E+00  0.00000000000E+00  0.34996269501E-01  0.35000000000E-01  0.51099999109E-03 0. -1.
       11   -1    0    0    0    0 -0.00000000000E+00 -0.00000000000E+00 -0.34996269501E-01  0.35000000000E-01  0.51099999109E-03 0.  1.
       22    1    1    2    0    0 -0.13061367732E-01  0.16184097028E-01  0.28026116525E-01  0.34899678094E-01  0.00000000000E+00 0. -1.
       22    1    1    2    0    0  0.13276281500E-01 -0.15938357369E-01 -0.27164660348E-01  0.34179082169E-01  0.00000000000E+00 0.  1.
       22    1    1    2    0    0 -0.21491376867E-03 -0.24573965823E-03 -0.86145617696E-03  0.92123973667E-03  0.00000000000E+00 0.  1.
</event>
<event>
 5   0  0.4146200E+04  0.9118800E+02  0.7546771E-02  0.1180000E+00
      -11   -1    0    0    0    0  0.00000000000E+00  0.00000000000E+00  0.34996269501E-01  0.35000000000E-01  0.51099999109E-03 0.  1.
       11   -1    0    0    0    0 -0.00000000000E+00 -0.00000000000E+00 -0.34996269501E-01  0.35000000000E-01  0.51099999109E-03 0. -1.
       22    1    1    2    0    0  0.52261274833E-02 -0.97381232123E-02  0.23031175815E-01  0.25545616289E-01  0.00000000000E+00 0.  1.
       22    1    1    2    0    0 -0.64253698365E-02  0.96962568645E-02 -0.32702138708E-01  0.34709258863E-01  0.00000000000E+00 0. -1.
       22    1    1    2    0    0  0.11992423531E-02  0.41866347767E-04  0.96709628936E-02  0.97451248480E-02  0.00000000000E+00 0.  1.
</event>
<event>
 5   0  0.4146200E+04  0.9118800E+02  0.7546771E-02  0.1180000E+00
      -11   -1    0    0    0    0  0.00000000000E+00  0.00000000000E+00  0.34996269501E-01  0.35000000000E-01  0.51099999109E-03 0. -1.
       11   -1    0    0    0    0 -0.00000000000E+00 -0.00000000000E+00 -0.34996269501E-01  0.35000000000E-01  0.51099999109E-03 0.  1.
       22    1    1    2    0    0 -0.13808012484E-01 -0.67193615079E-02  0.31162490246E-01  0.34740636526E-01  0.00000000000E+00 0. -1.
       22    1    1    2    0    0  0.11894944364E-03 -0.23316365058E-03  0.20726587912E-03  0.33387632851E-03  0.00000000000E+00 0. -1.
       22    1    1    2    0    0  0.13689063041E-01  0.69525251585E-02 -0.31369756125E-01  0.34925487146E-01  0.00000000000E+00 0.  1.
</event>
<event>
 5   0  0.4146200E+04  0.9118800E+02  0.7546771E-02  0.1180000E+00
      -11   -1    0    0    0    0  0.00000000000E+00  0.00000000000E+00  0.34996269501E-01  0.35000000000E-01  0.51099999109E-03 0. -1.
       11   -1    0    0    0    0 -0.00000000000E+00 -0.00000000000E+00 -0.34996269501E-01  0.35000000000E-01  0.51099999109E-03 0.  1.
       22    1    1    2    0    0  0.32462189622E-02 -0.23358786288E-01  0.20551162800E-01  0.31281322332E-01  0.00000000000E+00 0. -1.
       22    1    1    2    0    0 -0.52490627099E-02  0.19159487301E-01 -0.25235517346E-01  0.32116505861E-01  0.00000000000E+00 0.  1.
       22    1    1    2    0    0  0.20028437477E-02  0.41992989871E-02  0.46843545460E-02  0.66021718073E-02  0.00000000000E+00 0. -1.
</event>
<event>
 5   0  0.4146200E+04  0.9118800E+02  0.7546771E-02  0.1180000E+00
      -11   -1    0    0    0    0  0.00000000000E+00  0.00000000000E+00  0.34996269501E-01  0.35000000000E-01  0.51099999109E-03 0. -1.
       11   -1    0    0    0    0 -0.00000000000E+00 -0.00000000000E+00 -0.34996269501E-01  0.35000000000E-01  0.51099999109E-03 0.  1.
       22    1    1    2    0    0 -0.23894932772E-01  0.28634155422E-02  0.25136491757E-01  0.34799571529E-01  0.00000000000E+00 0. -1.
       22    1    1    2    0    0  0.23327335417E-01 -0.29249257640E-02 -0.25365682276E-01  0.34585222360E-01  0.00000000000E+00 0.  1.
       22    1    1    2    0    0  0.56759735481E-03  0.61510221749E-04  0.22919051939E-03  0.61520611078E-03  0.00000000000E+00 0.  1.
</event>
<event>
 5   0  0.4146200E+04  0.9118800E+02  0.7546771E-02  0.1180000E+00
      -11   -1    0    0    0    0  0.00000000000E+00  0.00000000000E+00  0.34996269501E-01  0.35000000000E-01  0.51099999109E-03 0.  1.
       11   -1    0    0    0    0 -0.00000000000E+00 -0.00000000000E+00 -0.34996269501E-01  0.35000000000E-01  0.51099999109E-03 0. -1.
       22    1    1    2    0    0 -0.33115102576E-04 -0.48372873377E-04  0.41602696625E-03  0.42013686049E-03  0.00000000000E+00 0. -1.
       22    1    1    2    0    0 -0.45907164031E-03 -0.21087982429E-01  0.27439369550E-01  0.34609720470E-01  0.00000000000E+00 0.  1.
       22    1    1    2    0    0  0.49218674289E-03  0.21136355302E-01 -0.27855396516E-01  0.34970142670E-01  0.00000000000E+00 0. -1.
</event>
<event>
 5   0  0.4146200E+04  0.9118800E+02  0.7546771E-02  0.1180000E+00
      -11   -1    0    0    0    0  0.00000000000E+00  0.00000000000E+00  0.34996269501E-01  0.35000000000E-01  0.51099999109E-03 0.  1.
       11   -1    0    0    0    0 -0.00000000000E+00 -0.00000000000E+00 -0.34996269501E-01  0.35000000000E-01  0.51099999109E-03 0. -1.
       22    1    1    2    0    0 -0.19778950069E-01  0.13335871533E-02 -0.28410423799E-01  0.34643000750E-01  0.00000000000E+00 0. -1.
       22    1    1    2    0    0 -0.52635011068E-03  0.37333997611E-03  0.11999044114E-02  0.13624234926E-02  0.00000000000E+00 0.  1.
       22    1    1    2    0    0  0.20305300180E-01 -0.17069271294E-02  0.27210519387E-01  0.33994575758E-01  0.00000000000E+00 0.  1.
</event>
<event>
 5   0  0.4146200E+04  0.9118800E+02  0.7546771E-02  0.1180000E+00
      -11   -1    0    0    0    0  0.00000000000E+00  0.00000000000E+00  0.34996269501E-01  0.35000000000E-01  0.51099999109E-03 0.  1.
       11   -1    0    0    0    0 -0.00000000000E+00 -0.00000000000E+00 -0.34996269501E-01  0.35000000000E-01  0.51099999109E-03 0. -1.
       22    1    1    2    0    0  0.68188648086E-02  0.19914035350E-01  0.27778615170E-01  0.34852793029E-01  0.00000000000E+00 0.  1.
       22    1    1    2    0    0 -0.60186235295E-02 -0.19835166320E-01 -0.26797856847E-01  0.33878943072E-01  0.00000000000E+00 0. -1.
       22    1    1    2    0    0 -0.80024127905E-03 -0.78869030084E-04 -0.98075832270E-03  0.12682638985E-02  0.00000000000E+00 0.  1.
</event>
<event>
 5   0  0.4146200E+04  0.9118800E+02  0.7546771E-02  0.1180000E+00
      -11   -1    0    0    0    0  0.00000000000E+00  0.00000000000E+00  0.34996269501E-01  0.35000000000E-01  0.51099999109E-03 0. -1.
       11   -1    0    0    0    0 -0.00000000000E+00 -0.00000000000E+00 -0.34996269501E-01  0.35000000000E-01  0.51099999109E-03 0.  1.
       22    1    1    2    0    0 -0.27748304824E-02 -0.81162266147E-03  0.34834031402E-01  0.34953800355E-01  0.00000000000E+00 0. -1.
       22    1    1    2    0    0  0.22572004366E-02  0.99390910148E-03 -0.33660015314E-01  0.33750250963E-01  0.00000000000E+00 0.  1.
       22    1    1    2    0    0  0.51763004584E-03 -0.18228644001E-03 -0.11740160880E-02  0.12959486816E-02  0.00000000000E+00 0.  1.
</event>
<event>
 5   0  0.4146200E+04  0.9118800E+02  0.7546771E-02  0.1180000E+00
      -11   -1    0    0    0    0  0.00000000000E+00  0.00000000000E+00  0.34996269501E-01  0.35000000000E-01  0.51099999109E-03 0. -1.
       11   -1    0    0    0    0 -0.00000000000E+00 -0.00000000000E+00 -0.34996269501E-01  0.35000000000E-01  0.51099999109E-03 0.  1.
       22    1    1    2    0    0 -0.10726365806E-03  0.30631104670E-03 -0.21688649872E-01  0.21691078010E-01  0.00000000000E+00 0.  1.
       22    1    1    2    0    0 -0.79070519470E-02 -0.95098249768E-04 -0.11616447669E-01  0.14052486279E-01  0.00000000000E+00 0.  1.
       22    1    1    2    0    0  0.80143156051E-02 -0.21121279693E-03  0.33305097541E-01  0.34256435712E-01  0.00000000000E+00 0. -1.
</event>
<event>
 5   0  0.4146200E+04  0.9118800E+02  0.7546771E-02  0.1180000E+00
      -11   -1    0    0    0    0  0.00000000000E+00  0.00000000000E+00  0.34996269501E-01  0.35000000000E-01  0.51099999109E-03 0. -1.
       11   -1    0    0    0    0 -0.00000000000E+00 -0.00000000000E+00 -0.34996269501E-01  0.35000000000E-01  0.51099999109E-03 0.  1.
       22    1    1    2    0    0 -0.22742910074E-03  0.81204686334E-03  0.34177979014E-01  0.34188380974E-01  0.00000000000E+00 0. -1.
       22    1    1    2    0    0 -0.22847803181E-02  0.31489416794E-02 -0.54092956855E-02  0.66630724606E-02  0.00000000000E+00 0. -1.
       22    1    1    2    0    0  0.25122094188E-02 -0.39609885427E-02 -0.28768683329E-01  0.29148546565E-01  0.00000000000E+00 0.  1.
</event>
<event>
 5   0  0.4146200E+04  0.9118800E+02  0.7546771E-02  0.1180000E+00
      -11   -1    0    0    0    0  0.00000000000E+00  0.00000000000E+00  0.34996269501E-01  0.35000000000E-01  0.51099999109E-03 0. -1.
       11   -1    0    0    0    0 -0.00000000000E+00 -0.00000000000E+00 -0.34996269501E-01  0.35000000000E-01  0.51099999109E-03 0.  1.
       22    1    1    2    0    0 -0.18635166219E-01 -0.78200271490E-02 -0.28183903215E-01  0.34680753237E-01  0.00000000000E+00 0.  1.
       22    1    1    2    0    0 -0.38565918688E-04  0.12974516220E-03  0.31590392301E-02  0.31619376961E-02  0.00000000000E+00 0. -1.
       22    1    1    2    0    0  0.18673732138E-01  0.76902819868E-02  0.25024863985E-01  0.32157309067E-01  0.00000000000E+00 0. -1.
</event>
<event>
 5   0  0.4146200E+04  0.9118800E+02  0.7546771E-02  0.1180000E+00
      -11   -1    0    0    0    0  0.00000000000E+00  0.00000000000E+00  0.34996269501E-01  0.35000000000E-01  0.51099999109E-03 0. -1.
       11   -1    0    0    0    0 -0.00000000000E+00 -0.00000000000E+00 -0.34996269501E-01  0.35000000000E-01  0.51099999109E-03 0.  1.
       22    1    1    2    0    0  0.14281154921E-01  0.18342745060E-01 -0.19748810742E-01  0.30502839342E-01  0.00000000000E+00 0.  1.
       22    1    1    2    0    0 -0.10889513756E-01 -0.15725750866E-01  0.25778856185E-01  0.32100314272E-01  0.00000000000E+00 0. -1.
       22    1    1    2    0    0 -0.33916411652E-02 -0.26169941937E-02 -0.60300454436E-02  0.73968463858E-02  0.00000000000E+00 0. -1.
</event>
<event>
 5   0  0.4146200E+04  0.9118800E+02  0.7546771E-02  0.1180000E+00
      -11   -1    0    0    0    0  0.00000000000E+00  0.00000000000E+00  0.34996269501E-01  0.35000000000E-01  0.51099999109E-03 0. -1.
       11   -1    0    0    0    0 -0.00000000000E+00 -0.00000000000E+00 -0.34996269501E-01  0.35000000000E-01  0.51099999109E-03 0.  1.
       22    1    1    2    0    0  0.28119238752E-03 -0.24212152725E-04  0.32351134392E-03  0.42931920151E-03  0.00000000000E+00 0. -1.
       22    1    1    2    0    0  0.95857790326E-02  0.95871990841E-02  0.31833918790E-01  0.34600577040E-01  0.00000000000E+00 0. -1.
       22    1    1    2    0    0 -0.98669714201E-02 -0.95629869314E-02 -0.32157430134E-01  0.34970103759E-01  0.00000000000E+00 0.  1.
</event>
<event>
 5   0  0.4146200E+04  0.9118800E+02  0.7546771E-02  0.1180000E+00
      -11   -1    0    0    0    0  0.00000000000E+00  0.00000000000E+00  0.34996269501E-01  0.35000000000E-01  0.51099999109E-03 0.  1.
       11   -1    0    0    0    0 -0.00000000000E+00 -0.00000000000E+00 -0.34996269501E-01  0.35000000000E-01  0.51099999109E-03 0. -1.
       22    1    1    2    0    0  0.17194738741E-01  0.31150445638E-02  0.26737536737E-01  0.31941484214E-01  0.00000000000E+00 0.  1.
       22    1    1    2    0    0 -0.56099910078E-02  0.55987817194E-02 -0.32858036088E-03  0.79326112285E-02  0.00000000000E+00 0.  1.
       22    1    1    2    0    0 -0.11584747733E-01 -0.87138262831E-02 -0.26408956376E-01  0.30125904558E-01  0.00000000000E+00 0. -1.
</event>
<event>
 5   0  0.4146200E+04  0.9118800E+02  0.7546771E-02  0.1180000E+00
      -11   -1    0    0    0    0  0.00000000000E+00  0.00000000000E+00  0.34996269501E-01  0.35000000000E-01  0.51099999109E-03 0.  1.
       11   -1    0    0    0    0 -0.00000000000E+00 -0.00000000000E+00 -0.34996269501E-01  0.35000000000E-01  0.51099999109E-03 0. -1.
       22    1    1    2    0    0  0.14969803724E-01  0.23655549951E-02  0.19761816825E-01  0.24904222096E-01  0.00000000000E+00 0.  1.
       22    1    1    2    0    0  0.12877170118E-02  0.17888679277E-02  0.10372752955E-01  0.10604351344E-01  0.00000000000E+00 0. -1.
       22    1    1    2    0    0 -0.16257520736E-01 -0.41544229227E-02 -0.30134569780E-01  0.34491426560E-01  0.00000000000E+00 0. -1.
</event>
<event>
 5   0  0.4146200E+04  0.9118800E+02  0.7546771E-02  0.1180000E+00
      -11   -1    0    0    0    0  0.00000000000E+00  0.00000000000E+00  0.34996269501E-01  0.35000000000E-01  0.51099999109E-03 0.  1.
       11   -1    0    0    0    0 -0.00000000000E+00 -0.00000000000E+00 -0.34996269501E-01  0.35000000000E-01  0.51099999109E-03 0. -1.
       22    1    1    2    0    0  0.14012649973E-01  0.19095287357E-01  0.24414783579E-01  0.34015673089E-01  0.00000000000E+00 0.  1.
       22    1    1    2    0    0 -0.13983004380E-01 -0.19051372843E-01 -0.25575618025E-01  0.34822283901E-01  0.00000000000E+00 0. -1.
       22    1    1    2    0    0 -0.29645593001E-04 -0.43914513816E-04  0.11608344461E-02  0.11620430099E-02  0.00000000000E+00 0. -1.
</event>
<event>
 5   0  0.4146200E+04  0.9118800E+02  0.7546771E-02  0.1180000E+00
      -11   -1    0    0    0    0  0.00000000000E+00  0.00000000000E+00  0.34996269501E-01  0.35000000000E-01  0.51099999109E-03 0.  1.
       11   -1    0    0    0    0 -0.00000000000E+00 -0.00000000000E+00 -0.34996269501E-01  0.35000000000E-01  0.51099999109E-03 0. -1.
       22    1    1    2    0    0 -0.95178513963E-03  0.67803738352E-02 -0.11288613823E-01  0.13202733290E-01  0.00000000000E+00 0.  1.
       22    1    1    2    0    0 -0.11596978174E-01  0.71667725239E-02  0.28337692243E-01  0.31446420032E-01  0.00000000000E+00 0.  1.
       22    1    1    2    0    0  0.12548763314E-01 -0.13947146359E-01 -0.17049078421E-01  0.25350846677E-01  0.00000000000E+00 0. -1.
</event>
<event>
 5   0  0.4146200E+04  0.9118800E+02  0.7546771E-02  0.1180000E+00
      -11   -1    0    0    0    0  0.00000000000E+00  0.00000000000E+00  0.34996269501E-01  0.35000000000E-01  0.51099999109E-03 0.  1.
       11   -1    0    0    0    0 -0.00000000000E+00 -0.00000000000E+00 -0.34996269501E-01  0.35000000000E-01  0.51099999109E-03 0. -1.
       22    1    1    2    0    0  0.13920608547E-01 -0.71641147159E-02  0.26520238567E-01  0.30796605911E-01  0.00000000000E+00 0.  1.
       22    1    1    2    0    0 -0.16784170426E-01  0.36276148521E-03 -0.27015856904E-01  0.31807176817E-01  0.00000000000E+00 0. -1.
       22    1    1    2    0    0  0.28635618787E-02  0.68013532307E-02  0.49561833687E-03  0.73962172722E-02  0.00000000000E+00 0.  1.
</event>
<event>
 5   0  0.4146200E+04  0.9118800E+02  0.7546771E-02  0.1180000E+00
      -11   -1    0    0    0    0  0.00000000000E+00  0.00000000000E+00  0.34996269501E-01  0.35000000000E-01  0.51099999109E-03 0.  1.
       11   -1    0    0    0    0 -0.00000000000E+00 -0.00000000000E+00 -0.34996269501E-01  0.35000000000E-01  0.51099999109E-03 0. -1.
       22    1    1    2    0    0  0.36751282198E-05  0.13228387055E-02 -0.15948757998E-01  0.16003524532E-01  0.00000000000E+00 0. -1.
       22    1    1    2    0    0  0.10262525546E-01 -0.70155345750E-02  0.31873916050E-01  0.34212332284E-01  0.00000000000E+00 0.  1.
       22    1    1    2    0    0 -0.10266200674E-01  0.56926958695E-02 -0.15925158052E-01  0.19784143184E-01  0.00000000000E+00 0. -1.
</event>
<event>
 5   0  0.4146200E+04  0.9118800E+02  0.7546771E-02  0.1180000E+00
      -11   -1    0    0    0    0  0.00000000000E+00  0.00000000000E+00  0.34996269501E-01  0.35000000000E-01  0.51099999109E-03 0. -1.
       11   -1    0    0    0    0 -0.00000000000E+00 -0.00000000000E+00 -0.34996269501E-01  0.35000000000E-01  0.51099999109E-03 0.  1.
       22    1    1    2    0    0 -0.43440115886E-03  0.54664370729E-03 -0.18291142687E-02  0.19578515565E-02  0.00000000000E+00 0.  1.
       22    1    1    2    0    0 -0.23272121113E-02 -0.21980754245E-02  0.34783776587E-01  0.34930768178E-01  0.00000000000E+00 0. -1.
       22    1    1    2    0    0  0.27616132702E-02  0.16514317172E-02 -0.32954662319E-01  0.33111380266E-01  0.00000000000E+00 0.  1.
</event>
<event>
 5   0  0.4146200E+04  0.9118800E+02  0.7546771E-02  0.1180000E+00
      -11   -1    0    0    0    0  0.00000000000E+00  0.00000000000E+00  0.34996269501E-01  0.35000000000E-01  0.51099999109E-03 0.  1.
       11   -1    0    0    0    0 -0.00000000000E+00 -0.00000000000E+00 -0.34996269501E-01  0.35000000000E-01  0.51099999109E-03 0. -1.
       22    1    1    2    0    0  0.74327285724E-02 -0.25458825330E-03  0.13229125753E-01  0.15176298540E-01  0.00000000000E+00 0.  1.
       22    1    1    2    0    0 -0.30490933024E-02  0.12659647859E-01  0.17257589943E-01  0.21619159663E-01  0.00000000000E+00 0. -1.
       22    1    1    2    0    0 -0.43836352699E-02 -0.12405059606E-01 -0.30486715696E-01  0.33204541797E-01  0.00000000000E+00 0. -1.
</event>
<event>
 5   0  0.4146200E+04  0.9118800E+02  0.7546771E-02  0.1180000E+00
      -11   -1    0    0    0    0  0.00000000000E+00  0.00000000000E+00  0.34996269501E-01  0.35000000000E-01  0.51099999109E-03 0.  1.
       11   -1    0    0    0    0 -0.00000000000E+00 -0.00000000000E+00 -0.34996269501E-01  0.35000000000E-01  0.51099999109E-03 0. -1.
       22    1    1    2    0    0  0.14974564501E-02  0.38832375820E-02 -0.33202172982E-01  0.33462011306E-01  0.00000000000E+00 0. -1.
       22    1    1    2    0    0 -0.18347890314E-02 -0.33667073967E-02  0.34703594498E-01  0.34914762502E-01  0.00000000000E+00 0.  1.
       22    1    1    2    0    0  0.33733258133E-03 -0.51653018530E-03 -0.15014215160E-02  0.16232261924E-02  0.00000000000E+00 0.  1.
</event>
<event>
 5   0  0.4146200E+04  0.9118800E+02  0.7546771E-02  0.1180000E+00
      -11   -1    0    0    0    0  0.00000000000E+00  0.00000000000E+00  0.34996269501E-01  0.35000000000E-01  0.51099999109E-03 0. -1.
       11   -1    0    0    0    0 -0.00000000000E+00 -0.00000000000E+00 -0.34996269501E-01  0.35000000000E-01  0.51099999109E-03 0.  1.
       22    1    1    2    0    0  0.51395776458E-02 -0.30270546324E-02  0.19647509713E-01  0.20532972411E-01  0.00000000000E+00 0. -1.
       22    1    1    2    0    0  0.58947779542E-02 -0.99576167171E-03  0.13249793790E-01  0.14536058059E-01  0.00000000000E+00 0. -1.
       22    1    1    2    0    0 -0.11034355600E-01  0.40228163042E-02 -0.32897303503E-01  0.34930969529E-01  0.00000000000E+00 0.  1.
</event>
<event>
 5   0  0.4146200E+04  0.9118800E+02  0.7546771E-02  0.1180000E+00
      -11   -1    0    0    0    0  0.00000000000E+00  0.00000000000E+00  0.34996269501E-01  0.35000000000E-01  0.51099999109E-03 0. -1.
       11   -1    0    0    0    0 -0.00000000000E+00 -0.00000000000E+00 -0.34996269501E-01  0.35000000000E-01  0.51099999109E-03 0.  1.
       22    1    1    2    0    0 -0.26541162656E-03 -0.11687055981E-03 -0.91085274056E-03  0.95590521196E-03  0.00000000000E+00 0.  1.
       22    1    1    2    0    0 -0.14820259007E-01  0.12627223715E-02  0.31546062850E-01  0.34876763413E-01  0.00000000000E+00 0. -1.
       22    1    1    2    0    0  0.15085670634E-01 -0.11458518117E-02 -0.30635210110E-01  0.34167331375E-01  0.00000000000E+00 0.  1.
</event>
<event>
 5   0  0.4146200E+04  0.9118800E+02  0.7546771E-02  0.1180000E+00
      -11   -1    0    0    0    0  0.00000000000E+00  0.00000000000E+00  0.34996269501E-01  0.35000000000E-01  0.51099999109E-03 0. -1.
       11   -1    0    0    0    0 -0.00000000000E+00 -0.00000000000E+00 -0.34996269501E-01  0.35000000000E-01  0.51099999109E-03 0.  1.
       22    1    1    2    0    0 -0.18683576303E-01 -0.16240227014E-01  0.18666538095E-01  0.31004203608E-01  0.00000000000E+00 0. -1.
       22    1    1    2    0    0  0.12353057135E-01  0.11372154273E-01 -0.24074292309E-01  0.29351242965E-01  0.00000000000E+00 0.  1.
       22    1    1    2    0    0  0.63305191683E-02  0.48680727415E-02  0.54077542146E-02  0.96445534268E-02  0.00000000000E+00 0. -1.
</event>
<event>
 5   0  0.4146200E+04  0.9118800E+02  0.7546771E-02  0.1180000E+00
      -11   -1    0    0    0    0  0.00000000000E+00  0.00000000000E+00  0.34996269501E-01  0.35000000000E-01  0.51099999109E-03 0. -1.
       11   -1    0    0    0    0 -0.00000000000E+00 -0.00000000000E+00 -0.34996269501E-01  0.35000000000E-01  0.51099999109E-03 0.  1.
       22    1    1    2    0    0  0.19699949930E-03  0.13132508742E-03 -0.46043027340E-03  0.51773653336E-03  0.00000000000E+00 0. -1.
       22    1    1    2    0    0  0.14383922530E-02  0.19140097283E-02 -0.34420247915E-01  0.34503418266E-01  0.00000000000E+00 0.  1.
       22    1    1    2    0    0 -0.16353917523E-02 -0.20453348157E-02  0.34880678188E-01  0.34978845201E-01  0.00000000000E+00 0. -1.
</event>
<event>
 5   0  0.4146200E+04  0.9118800E+02  0.7546771E-02  0.1180000E+00
      -11   -1    0    0    0    0  0.00000000000E+00  0.00000000000E+00  0.34996269501E-01  0.35000000000E-01  0.51099999109E-03 0. -1.
       11   -1    0    0    0    0 -0.00000000000E+00 -0.00000000000E+00 -0.34996269501E-01  0.35000000000E-01  0.51099999109E-03 0.  1.
       22    1    1    2    0    0  0.64092838010E-02 -0.20453004719E-01 -0.26723427286E-01  0.34257056015E-01  0.00000000000E+00 0.  1.
       22    1    1    2    0    0 -0.76283919579E-02  0.19872327173E-01  0.26982513395E-01  0.34367976086E-01  0.00000000000E+00 0. -1.
       22    1    1    2    0    0  0.12191081570E-02  0.58067754636E-03 -0.25908610961E-03  0.13749678990E-02  0.00000000000E+00 0. -1.
</event>
<event>
 5   0  0.4146200E+04  0.9118800E+02  0.7546771E-02  0.1180000E+00
      -11   -1    0    0    0    0  0.00000000000E+00  0.00000000000E+00  0.34996269501E-01  0.35000000000E-01  0.51099999109E-03 0. -1.
       11   -1    0    0    0    0 -0.00000000000E+00 -0.00000000000E+00 -0.34996269501E-01  0.35000000000E-01  0.51099999109E-03 0.  1.
       22    1    1    2    0    0  0.13525321886E-01  0.14010691110E-02  0.27634380315E-01  0.30798641239E-01  0.00000000000E+00 0. -1.
       22    1    1    2    0    0  0.31906529290E-03  0.83372753071E-03  0.42640005924E-02  0.43564441128E-02  0.00000000000E+00 0. -1.
       22    1    1    2    0    0 -0.13844387179E-01 -0.22347966417E-02 -0.31898380907E-01  0.34844914649E-01  0.00000000000E+00 0.  1.
</event>
<event>
 5   0  0.4146200E+04  0.9118800E+02  0.7546771E-02  0.1180000E+00
      -11   -1    0    0    0    0  0.00000000000E+00  0.00000000000E+00  0.34996269501E-01  0.35000000000E-01  0.51099999109E-03 0.  1.
       11   -1    0    0    0    0 -0.00000000000E+00 -0.00000000000E+00 -0.34996269501E-01  0.35000000000E-01  0.51099999109E-03 0. -1.
       22    1    1    2    0    0 -0.19874930467E-01 -0.22810020732E-02  0.27724112610E-01  0.34188335022E-01  0.00000000000E+00 0.  1.
       22    1    1    2    0    0  0.19898622522E-01  0.22829259598E-02 -0.28610697698E-01  0.34924761301E-01  0.00000000000E+00 0. -1.
       22    1    1    2    0    0 -0.23692054835E-04 -0.19238866116E-05  0.88658508756E-03  0.88690367701E-03  0.00000000000E+00 0.  1.
</event>
<event>
 5   0  0.4146200E+04  0.9118800E+02  0.7546771E-02  0.1180000E+00
      -11   -1    0    0    0    0  0.00000000000E+00  0.00000000000E+00  0.34996269501E-01  0.35000000000E-01  0.51099999109E-03 0.  1.
       11   -1    0    0    0    0 -0.00000000000E+00 -0.00000000000E+00 -0.34996269501E-01  0.35000000000E-01  0.51099999109E-03 0. -1.
       22    1    1    2    0    0 -0.42877650447E-02  0.78498992153E-02 -0.16821793692E-01  0.19051997002E-01  0.00000000000E+00 0.  1.
       22    1    1    2    0    0  0.32821793150E-02 -0.61211472983E-02 -0.16324909146E-01  0.17741020375E-01  0.00000000000E+00 0. -1.
       22    1    1    2    0    0  0.10055857297E-02 -0.17287519170E-02  0.33146702838E-01  0.33206982623E-01  0.00000000000E+00 0.  1.
</event>
<event>
 5   0  0.4146200E+04  0.9118800E+02  0.7546771E-02  0.1180000E+00
      -11   -1    0    0    0    0  0.00000000000E+00  0.00000000000E+00  0.34996269501E-01  0.35000000000E-01  0.51099999109E-03 0.  1.
       11   -1    0    0    0    0 -0.00000000000E+00 -0.00000000000E+00 -0.34996269501E-01  0.35000000000E-01  0.51099999109E-03 0. -1.
       22    1    1    2    0    0  0.18182622180E-02  0.15017057412E-01  0.21081625376E-01  0.25947119672E-01  0.00000000000E+00 0.  1.
       22    1    1    2    0    0  0.77947572381E-03  0.30125947709E-02  0.86455681906E-02  0.91885341048E-02  0.00000000000E+00 0. -1.
       22    1    1    2    0    0 -0.25977379418E-02 -0.18029652183E-01 -0.29727193566E-01  0.34864346223E-01  0.00000000000E+00 0. -1.
</event>
<event>
 5   0  0.4146200E+04  0.9118800E+02  0.7546771E-02  0.1180000E+00
      -11   -1    0    0    0    0  0.00000000000E+00  0.00000000000E+00  0.34996269501E-01  0.35000000000E-01  0.51099999109E-03 0.  1.
       11   -1    0    0    0    0 -0.00000000000E+00 -0.00000000000E+00 -0.34996269501E-01  0.35000000000E-01  0.51099999109E-03 0. -1.
       22    1    1    2    0    0 -0.48365148376E-02  0.17755975423E-01 -0.26285254511E-01  0.32087086869E-01  0.00000000000E+00 0. -1.
       22    1    1    2    0    0  0.81559813815E-03 -0.58597806690E-03  0.18682226068E-01  0.18709199381E-01  0.00000000000E+00 0.  1.
       22    1    1    2    0    0  0.40209166995E-02 -0.17169997356E-01  0.76030284433E-02  0.19203713751E-01  0.00000000000E+00 0.  1.
</event>
<event>
 5   0  0.4146200E+04  0.9118800E+02  0.7546771E-02  0.1180000E+00
      -11   -1    0    0    0    0  0.00000000000E+00  0.00000000000E+00  0.34996269501E-01  0.35000000000E-01  0.51099999109E-03 0. -1.
       11   -1    0    0    0    0 -0.00000000000E+00 -0.00000000000E+00 -0.34996269501E-01  0.35000000000E-01  0.51099999109E-03 0.  1.
       22    1    1    2    0    0 -0.87358942159E-02  0.72595650045E-06 -0.11055491071E-01  0.14090412737E-01  0.00000000000E+00 0.  1.
       22    1    1    2    0    0  0.52504476292E-02  0.55560675187E-02 -0.21438244873E-01  0.22760391689E-01  0.00000000000E+00 0.  1.
       22    1    1    2    0    0  0.34854465867E-02 -0.55567934752E-02  0.32493735944E-01  0.33149195574E-01  0.00000000000E+00 0. -1.
</event>
<event>
 5   0  0.4146200E+04  0.9118800E+02  0.7546771E-02  0.1180000E+00
      -11   -1    0    0    0    0  0.00000000000E+00  0.00000000000E+00  0.34996269501E-01  0.35000000000E-01  0.51099999109E-03 0.  1.
       11   -1    0    0    0    0 -0.00000000000E+00 -0.00000000000E+00 -0.34996269501E-01  0.35000000000E-01  0.51099999109E-03 0. -1.
       22    1    1    2    0    0  0.28401560144E-03  0.24941788619E-04 -0.58475002738E-03  0.65055326393E-03  0.00000000000E+00 0. -1.
       22    1    1    2    0    0 -0.18332740390E-02  0.15471843806E-02  0.34890447068E-01  0.34972817584E-01  0.00000000000E+00 0.  1.
       22    1    1    2    0    0  0.15492584375E-02 -0.15721261692E-02 -0.34305697040E-01  0.34376629152E-01  0.00000000000E+00 0. -1.
</event>
<event>
 5   0  0.4146200E+04  0.9118800E+02  0.7546771E-02  0.1180000E+00
      -11   -1    0    0    0    0  0.00000000000E+00  0.00000000000E+00  0.34996269501E-01  0.35000000000E-01  0.51099999109E-03 0.  1.
       11   -1    0    0    0    0 -0.00000000000E+00 -0.00000000000E+00 -0.34996269501E-01  0.35000000000E-01  0.51099999109E-03 0. -1.
       22    1    1    2    0    0  0.18445228415E-03  0.11950513575E-03 -0.12005180871E-02  0.12204703192E-02  0.00000000000E+00 0.  1.
       22    1    1    2    0    0  0.12762885371E-02  0.18644106317E-01  0.29423763283E-01  0.34856698904E-01  0.00000000000E+00 0.  1.
       22    1    1    2    0    0 -0.14607408212E-02 -0.18763611453E-01 -0.28223245196E-01  0.33922830776E-01  0.00000000000E+00 0. -1.
</event>
<event>
 5   0  0.4146200E+04  0.9118800E+02  0.7546771E-02  0.1180000E+00
      -11   -1    0    0    0    0  0.00000000000E+00  0.00000000000E+00  0.34996269501E-01  0.35000000000E-01  0.51099999109E-03 0. -1.
       11   -1    0    0    0    0 -0.00000000000E+00 -0.00000000000E+00 -0.34996269501E-01  0.35000000000E-01  0.51099999109E-03 0.  1.
       22    1    1    2    0    0 -0.79151018105E-02 -0.16087283504E-02  0.31180267923E-01  0.32209407808E-01  0.00000000000E+00 0. -1.
       22    1    1    2    0    0 -0.27435614729E-03 -0.53427189719E-02 -0.60575231952E-03  0.53839440172E-02  0.00000000000E+00 0. -1.
       22    1    1    2    0    0  0.81894579578E-02  0.69514473223E-02 -0.30574515604E-01  0.32406648175E-01  0.00000000000E+00 0.  1.
</event>
<event>
 5   0  0.4146200E+04  0.9118800E+02  0.7546771E-02  0.1180000E+00
      -11   -1    0    0    0    0  0.00000000000E+00  0.00000000000E+00  0.34996269501E-01  0.35000000000E-01  0.51099999109E-03 0.  1.
       11   -1    0    0    0    0 -0.00000000000E+00 -0.00000000000E+00 -0.34996269501E-01  0.35000000000E-01  0.51099999109E-03 0. -1.
       22    1    1    2    0    0  0.22450910281E-03  0.17036161950E-02 -0.54898381912E-02  0.57524808424E-02  0.00000000000E+00 0.  1.
       22    1    1    2    0    0 -0.73119260768E-02  0.11926919099E-01  0.31258743443E-01  0.34246528346E-01  0.00000000000E+00 0.  1.
       22    1    1    2    0    0  0.70874169740E-02 -0.13630535294E-01 -0.25768905252E-01  0.30000990811E-01  0.00000000000E+00 0. -1.
</event>
<event>
 5   0  0.4146200E+04  0.9118800E+02  0.7546771E-02  0.1180000E+00
      -11   -1    0    0    0    0  0.00000000000E+00  0.00000000000E+00  0.34996269501E-01  0.35000000000E-01  0.51099999109E-03 0. -1.
       11   -1    0    0    0    0 -0.00000000000E+00 -0.00000000000E+00 -0.34996269501E-01  0.35000000000E-01  0.51099999109E-03 0.  1.
       22    1    1    2    0    0 -0.11594637450E-03 -0.64277290677E-04 -0.18500112757E-02  0.18547552000E-02  0.00000000000E+00 0. -1.
       22    1    1    2    0    0 -0.20376216059E-01  0.10050771629E-01 -0.24425805298E-01  0.33359079059E-01  0.00000000000E+00 0.  1.
       22    1    1    2    0    0  0.20492162433E-01 -0.99864943388E-02  0.26275816573E-01  0.34786165741E-01  0.00000000000E+00 0. -1.
</event>
<event>
 5   0  0.4146200E+04  0.9118800E+02  0.7546771E-02  0.1180000E+00
      -11   -1    0    0    0    0  0.00000000000E+00  0.00000000000E+00  0.34996269501E-01  0.35000000000E-01  0.51099999109E-03 0.  1.
       11   -1    0    0    0    0 -0.00000000000E+00 -0.00000000000E+00 -0.34996269501E-01  0.35000000000E-01  0.51099999109E-03 0. -1.
       22    1    1    2    0    0  0.18394552321E-03 -0.12849980151E-02  0.24560960116E-01  0.24595239737E-01  0.00000000000E+00 0.  1.
       22    1    1    2    0    0 -0.16781096078E-01 -0.39955239403E-02 -0.27100916061E-02  0.17461786669E-01  0.00000000000E+00 0.  1.
       22    1    1    2    0    0  0.16597150555E-01  0.52805219554E-02 -0.21850868510E-01  0.27942973595E-01  0.00000000000E+00 0. -1.
</event>
<event>
 5   0  0.4146200E+04  0.9118800E+02  0.7546771E-02  0.1180000E+00
      -11   -1    0    0    0    0  0.00000000000E+00  0.00000000000E+00  0.34996269501E-01  0.35000000000E-01  0.51099999109E-03 0.  1.
       11   -1    0    0    0    0 -0.00000000000E+00 -0.00000000000E+00 -0.34996269501E-01  0.35000000000E-01  0.51099999109E-03 0. -1.
       22    1    1    2    0    0 -0.48049182080E-04  0.13268904264E-03 -0.77744980985E-03  0.79015398042E-03  0.00000000000E+00 0.  1.
       22    1    1    2    0    0  0.83223675348E-02  0.88044432958E-02  0.32791127013E-01  0.34957660590E-01  0.00000000000E+00 0.  1.
       22    1    1    2    0    0 -0.82743183527E-02 -0.89371323384E-02 -0.32013677203E-01  0.34252185430E-01  0.00000000000E+00 0. -1.
</event>
<event>
 5   0  0.4146200E+04  0.9118800E+02  0.7546771E-02  0.1180000E+00
      -11   -1    0    0    0    0  0.00000000000E+00  0.00000000000E+00  0.34996269501E-01  0.35000000000E-01  0.51099999109E-03 0. -1.
       11   -1    0    0    0    0 -0.00000000000E+00 -0.00000000000E+00 -0.34996269501E-01  0.35000000000E-01  0.51099999109E-03 0.  1.
       22    1    1    2    0    0  0.25304117904E-03 -0.43506910959E-03 -0.34079274411E-01  0.34082990763E-01  0.00000000000E+00 0.  1.
       22    1    1    2    0    0 -0.37428149503E-03  0.27935248523E-04 -0.87919678570E-03  0.95595711389E-03  0.00000000000E+00 0.  1.
       22    1    1    2    0    0  0.12124031599E-03  0.40713386107E-03  0.34958471196E-01  0.34961052123E-01  0.00000000000E+00 0. -1.
</event>
<event>
 5   0  0.4146200E+04  0.9118800E+02  0.7546771E-02  0.1180000E+00
      -11   -1    0    0    0    0  0.00000000000E+00  0.00000000000E+00  0.34996269501E-01  0.35000000000E-01  0.51099999109E-03 0. -1.
       11   -1    0    0    0    0 -0.00000000000E+00 -0.00000000000E+00 -0.34996269501E-01  0.35000000000E-01  0.51099999109E-03 0.  1.
       22    1    1    2    0    0  0.17235231813E-02 -0.24634290422E-03  0.29110066612E-01  0.29162084890E-01  0.00000000000E+00 0. -1.
       22    1    1    2    0    0  0.84478788246E-03  0.12886925597E-01 -0.57150582782E-02  0.14122620474E-01  0.00000000000E+00 0. -1.
       22    1    1    2    0    0 -0.25683110638E-02 -0.12640582693E-01 -0.23395008334E-01  0.26715294636E-01  0.00000000000E+00 0.  1.
</event>
<event>
 5   0  0.4146200E+04  0.9118800E+02  0.7546771E-02  0.1180000E+00
      -11   -1    0    0    0    0  0.00000000000E+00  0.00000000000E+00  0.34996269501E-01  0.35000000000E-01  0.51099999109E-03 0. -1.
       11   -1    0    0    0    0 -0.00000000000E+00 -0.00000000000E+00 -0.34996269501E-01  0.35000000000E-01  0.51099999109E-03 0.  1.
       22    1    1    2    0    0 -0.79442954999E-03 -0.13115980022E-02 -0.28124332179E-02  0.32033089509E-02  0.00000000000E+00 0. -1.
       22    1    1    2    0    0 -0.16069700540E-02  0.31837188519E-02  0.34640355267E-01  0.34823449448E-01  0.00000000000E+00 0. -1.
       22    1    1    2    0    0  0.24013996040E-02 -0.18721208497E-02 -0.31827922049E-01  0.31973241601E-01  0.00000000000E+00 0.  1.
</event>
<event>
 5   0  0.4146200E+04  0.9118800E+02  0.7546771E-02  0.1180000E+00
      -11   -1    0    0    0    0  0.00000000000E+00  0.00000000000E+00  0.34996269501E-01  0.35000000000E-01  0.51099999109E-03 0. -1.
       11   -1    0    0    0    0 -0.00000000000E+00 -0.00000000000E+00 -0.34996269501E-01  0.35000000000E-01  0.51099999109E-03 0.  1.
       22    1    1    2    0    0 -0.16152210856E-03 -0.99350819983E-05 -0.27174231035E-02  0.27222373925E-02  0.00000000000E+00 0.  1.
       22    1    1    2    0    0 -0.72732105819E-02 -0.79475984077E-02  0.33202136170E-01  0.34906242406E-01  0.00000000000E+00 0. -1.
       22    1    1    2    0    0  0.74347326904E-02  0.79575334897E-02 -0.30484713067E-01  0.32371520202E-01  0.00000000000E+00 0.  1.
</event>
<event>
 5   0  0.4146200E+04  0.9118800E+02  0.7546771E-02  0.1180000E+00
      -11   -1    0    0    0    0  0.00000000000E+00  0.00000000000E+00  0.34996269501E-01  0.35000000000E-01  0.51099999109E-03 0.  1.
       11   -1    0    0    0    0 -0.00000000000E+00 -0.00000000000E+00 -0.34996269501E-01  0.35000000000E-01  0.51099999109E-03 0.  1.
       22    1    1    2    0    0 -0.00000000000E+00  0.00000000000E+00  0.34959839017E-01  0.34957020352E-01  0.00000000000E+00 0.  1.
       22    1    1    2    0    0 -0.34348714309E-03  0.11114653719E-03 -0.34198235523E-01  0.34200141079E-01  0.00000000000E+00 0.  1.
       22    1    1    2    0    0  0.34348714309E-03 -0.11114653719E-03 -0.76160349479E-03  0.84283856905E-03  0.00000000000E+00 0. -1.
</event>
<event>
 5   0  0.4146200E+04  0.9118800E+02  0.7546771E-02  0.1180000E+00
      -11   -1    0    0    0    0  0.00000000000E+00  0.00000000000E+00  0.34996269501E-01  0.35000000000E-01  0.51099999109E-03 0.  1.
       11   -1    0    0    0    0 -0.00000000000E+00 -0.00000000000E+00 -0.34996269501E-01  0.35000000000E-01  0.51099999109E-03 0. -1.
       22    1    1    2    0    0  0.98789261175E-02  0.82898471064E-02  0.29194892725E-01  0.31916398724E-01  0.00000000000E+00 0.  1.
       22    1    1    2    0    0 -0.41444900018E-03  0.36941170214E-02  0.13332643943E-02  0.39491597190E-02  0.00000000000E+00 0.  1.
       22    1    1    2    0    0 -0.94644771173E-02 -0.11983964128E-01 -0.30528157119E-01  0.34134441557E-01  0.00000000000E+00 0. -1.
</event>
<event>
 5   0  0.4146200E+04  0.9118800E+02  0.7546771E-02  0.1180000E+00
      -11   -1    0    0    0    0  0.00000000000E+00  0.00000000000E+00  0.34996269501E-01  0.35000000000E-01  0.51099999109E-03 0. -1.
       11   -1    0    0    0    0 -0.00000000000E+00 -0.00000000000E+00 -0.34996269501E-01  0.35000000000E-01  0.51099999109E-03 0.  1.
       22    1    1    2    0    0  0.10081137716E-02 -0.42090329677E-03  0.20616945662E-01  0.20645868870E-01  0.00000000000E+00 0. -1.
       22    1    1    2    0    0  0.94085115496E-02  0.94683104744E-02  0.93948758697E-02  0.16322765863E-01  0.00000000000E+00 0. -1.
       22    1    1    2    0    0 -0.10416625321E-01 -0.90474071777E-02 -0.30011821532E-01  0.33031365267E-01  0.00000000000E+00 0.  1.
</event>
<event>
 5   0  0.4146200E+04  0.9118800E+02  0.7546771E-02  0.1180000E+00
      -11   -1    0    0    0    0  0.00000000000E+00  0.00000000000E+00  0.34996269501E-01  0.35000000000E-01  0.51099999109E-03 0.  1.
       11   -1    0    0    0    0 -0.00000000000E+00 -0.00000000000E+00 -0.34996269501E-01  0.35000000000E-01  0.51099999109E-03 0. -1.
       22    1    1    2    0    0  0.74045959353E-02  0.19647841316E-02  0.33943200997E-01  0.34796972736E-01  0.00000000000E+00 0.  1.
       22    1    1    2    0    0 -0.45909182419E-02 -0.24526397896E-02 -0.29248536165E-01  0.29708060186E-01  0.00000000000E+00 0. -1.
       22    1    1    2    0    0 -0.28136776934E-02  0.48785565799E-03 -0.46946648320E-02  0.54949670781E-02  0.00000000000E+00 0. -1.
</event>
<event>
 5   0  0.4146200E+04  0.9118800E+02  0.7546771E-02  0.1180000E+00
      -11   -1    0    0    0    0  0.00000000000E+00  0.00000000000E+00  0.34996269501E-01  0.35000000000E-01  0.51099999109E-03 0. -1.
       11   -1    0    0    0    0 -0.00000000000E+00 -0.00000000000E+00 -0.34996269501E-01  0.35000000000E-01  0.51099999109E-03 0.  1.
       22    1    1    2    0    0 -0.75636048397E-02 -0.50832859340E-02 -0.24524104318E-01  0.26162561164E-01  0.00000000000E+00 0.  1.
       22    1    1    2    0    0  0.18732278708E-01 -0.32446717283E-02  0.46586756881E-02  0.19573692022E-01  0.00000000000E+00 0.  1.
       22    1    1    2    0    0 -0.11168673868E-01  0.83279576622E-02  0.19865428630E-01  0.24263746814E-01  0.00000000000E+00 0. -1.
</event>
<event>
 5   0  0.4146200E+04  0.9118800E+02  0.7546771E-02  0.1180000E+00
      -11   -1    0    0    0    0  0.00000000000E+00  0.00000000000E+00  0.34996269501E-01  0.35000000000E-01  0.51099999109E-03 0.  1.
       11   -1    0    0    0    0 -0.00000000000E+00 -0.00000000000E+00 -0.34996269501E-01  0.35000000000E-01  0.51099999109E-03 0. -1.
       22    1    1    2    0    0 -0.53893651865E-02 -0.12887012935E-03 -0.53896852897E-02  0.76230290663E-02  0.00000000000E+00 0. -1.
       22    1    1    2    0    0 -0.10127149958E-01  0.10925233934E-01 -0.23517015489E-01  0.27838281562E-01  0.00000000000E+00 0. -1.
       22    1    1    2    0    0  0.15516515145E-01 -0.10796363805E-01  0.28906700779E-01  0.34538689372E-01  0.00000000000E+00 0.  1.
</event>
<event>
 5   0  0.4146200E+04  0.9118800E+02  0.7546771E-02  0.1180000E+00
      -11   -1    0    0    0    0  0.00000000000E+00  0.00000000000E+00  0.34996269501E-01  0.35000000000E-01  0.51099999109E-03 0. -1.
       11   -1    0    0    0    0 -0.00000000000E+00 -0.00000000000E+00 -0.34996269501E-01  0.35000000000E-01  0.51099999109E-03 0.  1.
       22    1    1    2    0    0  0.23655852543E-02 -0.40879678941E-02 -0.76766454784E-02  0.90132325444E-02  0.00000000000E+00 0. -1.
       22    1    1    2    0    0  0.17455732559E-02 -0.56930147693E-02  0.32998773622E-01  0.33531723841E-01  0.00000000000E+00 0. -1.
       22    1    1    2    0    0 -0.41111585102E-02  0.97809826634E-02 -0.25322128144E-01  0.27455043615E-01  0.00000000000E+00 0.  1.
</event>
<event>
 5   0  0.4146200E+04  0.9118800E+02  0.7546771E-02  0.1180000E+00
      -11   -1    0    0    0    0  0.00000000000E+00  0.00000000000E+00  0.34996269501E-01  0.35000000000E-01  0.51099999109E-03 0. -1.
       11   -1    0    0    0    0 -0.00000000000E+00 -0.00000000000E+00 -0.34996269501E-01  0.35000000000E-01  0.51099999109E-03 0.  1.
       22    1    1    2    0    0  0.12842712550E-01  0.13730565618E-02  0.32341103384E-01  0.34824811816E-01  0.00000000000E+00 0. -1.
       22    1    1    2    0    0 -0.12880244397E-01 -0.59839167790E-03 -0.31468554648E-01  0.34007774110E-01  0.00000000000E+00 0.  1.
       22    1    1    2    0    0  0.37531847383E-04 -0.77466488391E-03 -0.87254873607E-03  0.11674140734E-02  0.00000000000E+00 0. -1.
</event>
<event>
 5   0  0.4146200E+04  0.9118800E+02  0.7546771E-02  0.1180000E+00
      -11   -1    0    0    0    0  0.00000000000E+00  0.00000000000E+00  0.34996269501E-01  0.35000000000E-01  0.51099999109E-03 0.  1.
       11   -1    0    0    0    0 -0.00000000000E+00 -0.00000000000E+00 -0.34996269501E-01  0.35000000000E-01  0.51099999109E-03 0. -1.
       22    1    1    2    0    0 -0.14419832366E-02  0.18814169300E-01 -0.27711556750E-01  0.33525850617E-01  0.00000000000E+00 0. -1.
       22    1    1    2    0    0 -0.12876889201E-02 -0.58774657576E-02  0.28097181491E-03  0.60234285625E-02  0.00000000000E+00 0.  1.
       22    1    1    2    0    0  0.27296721566E-02 -0.12936703543E-01  0.27430584935E-01  0.30450720821E-01  0.00000000000E+00 0.  1.
</event>
<event>
 5   0  0.4146200E+04  0.9118800E+02  0.7546771E-02  0.1180000E+00
      -11   -1    0    0    0    0  0.00000000000E+00  0.00000000000E+00  0.34996269501E-01  0.35000000000E-01  0.51099999109E-03 0.  1.
       11   -1    0    0    0    0 -0.00000000000E+00 -0.00000000000E+00 -0.34996269501E-01  0.35000000000E-01  0.51099999109E-03 0. -1.
       22    1    1    2    0    0  0.16087398328E-01  0.53406096032E-02 -0.12861969541E-01  0.21278081595E-01  0.00000000000E+00 0. -1.
       22    1    1    2    0    0 -0.47194390402E-02 -0.33377056736E-02 -0.16334134923E-01  0.17326781227E-01  0.00000000000E+00 0.  1.
       22    1    1    2    0    0 -0.11367959288E-01 -0.20029039295E-02  0.29196104464E-01  0.31395137177E-01  0.00000000000E+00 0.  1.
</event>
<event>
 5   0  0.4146200E+04  0.9118800E+02  0.7546771E-02  0.1180000E+00
      -11   -1    0    0    0    0  0.00000000000E+00  0.00000000000E+00  0.34996269501E-01  0.35000000000E-01  0.51099999109E-03 0. -1.
       11   -1    0    0    0    0 -0.00000000000E+00 -0.00000000000E+00 -0.34996269501E-01  0.35000000000E-01  0.51099999109E-03 0.  1.
       22    1    1    2    0    0 -0.30228228414E-05 -0.68006948450E-04  0.52571171244E-03  0.53010082728E-03  0.00000000000E+00 0. -1.
       22    1    1    2    0    0  0.18405652141E-01  0.12618185529E-01  0.26371857316E-01  0.34546512054E-01  0.00000000000E+00 0. -1.
       22    1    1    2    0    0 -0.18402629318E-01 -0.12550178580E-01 -0.26897569029E-01  0.34923387119E-01  0.00000000000E+00 0.  1.
</event>
<event>
 5   0  0.4146200E+04  0.9118800E+02  0.7546771E-02  0.1180000E+00
      -11   -1    0    0    0    0  0.00000000000E+00  0.00000000000E+00  0.34996269501E-01  0.35000000000E-01  0.51099999109E-03 0. -1.
       11   -1    0    0    0    0 -0.00000000000E+00 -0.00000000000E+00 -0.34996269501E-01  0.35000000000E-01  0.51099999109E-03 0.  1.
       22    1    1    2    0    0  0.32516658173E-02  0.11155542624E-01 -0.32890636003E-01  0.34882852499E-01  0.00000000000E+00 0.  1.
       22    1    1    2    0    0  0.58170076284E-04 -0.56193328481E-02  0.11945739361E-01  0.13201551965E-01  0.00000000000E+00 0. -1.
       22    1    1    2    0    0 -0.33098358936E-02 -0.55362097763E-02  0.20944896642E-01  0.21915595536E-01  0.00000000000E+00 0. -1.
</event>
<event>
 5   0  0.4146200E+04  0.9118800E+02  0.7546771E-02  0.1180000E+00
      -11   -1    0    0    0    0  0.00000000000E+00  0.00000000000E+00  0.34996269501E-01  0.35000000000E-01  0.51099999109E-03 0.  1.
       11   -1    0    0    0    0 -0.00000000000E+00 -0.00000000000E+00 -0.34996269501E-01  0.35000000000E-01  0.51099999109E-03 0.  1.
       22    1    1    2    0    0  0.72784418611E-02 -0.13939400493E-01 -0.24500326325E-01  0.29112687819E-01  0.00000000000E+00 0.  1.
       22    1    1    2    0    0 -0.72784418611E-02  0.13939400493E-01 -0.64965649395E-03  0.15738635760E-01  0.00000000000E+00 0. -1.
       22    1    1    2    0    0  0.00000000000E+00  0.00000000000E+00  0.25149982819E-01  0.25148676421E-01  0.00000000000E+00 0.  1.
</event>
<event>
 5   0  0.4146200E+04  0.9118800E+02  0.7546771E-02  0.1180000E+00
      -11   -1    0    0    0    0  0.00000000000E+00  0.00000000000E+00  0.34996269501E-01  0.35000000000E-01  0.51099999109E-03 0.  1.
       11   -1    0    0    0    0 -0.00000000000E+00 -0.00000000000E+00 -0.34996269501E-01  0.35000000000E-01  0.51099999109E-03 0. -1.
       22    1    1    2    0    0  0.13676203614E-01 -0.13758618680E-02  0.32162808976E-01  0.34976818357E-01  0.00000000000E+00 0.  1.
       22    1    1    2    0    0  0.37036142662E-04 -0.32099516897E-04 -0.33054125325E-03  0.33415501635E-03  0.00000000000E+00 0. -1.
       22    1    1    2    0    0 -0.13713239757E-01  0.14079613849E-02 -0.31832267723E-01  0.34689026626E-01  0.00000000000E+00 0. -1.
</event>
<event>
 5   0  0.4146200E+04  0.9118800E+02  0.7546771E-02  0.1180000E+00
      -11   -1    0    0    0    0  0.00000000000E+00  0.00000000000E+00  0.34996269501E-01  0.35000000000E-01  0.51099999109E-03 0. -1.
       11   -1    0    0    0    0 -0.00000000000E+00 -0.00000000000E+00 -0.34996269501E-01  0.35000000000E-01  0.51099999109E-03 0.  1.
       22    1    1    2    0    0  0.18211585016E-02 -0.63921094724E-02  0.33422547737E-01  0.34077006603E-01  0.00000000000E+00 0. -1.
       22    1    1    2    0    0 -0.41498632943E-02  0.80129364869E-03 -0.26008545227E-01  0.26349722232E-01  0.00000000000E+00 0.  1.
       22    1    1    2    0    0  0.23287047927E-02  0.55908158237E-02 -0.74140025096E-02  0.95732711650E-02  0.00000000000E+00 0.  1.
</event>
<event>
 5   0  0.4146200E+04  0.9118800E+02  0.7546771E-02  0.1180000E+00
      -11   -1    0    0    0    0  0.00000000000E+00  0.00000000000E+00  0.34996269501E-01  0.35000000000E-01  0.51099999109E-03 0. -1.
       11   -1    0    0    0    0 -0.00000000000E+00 -0.00000000000E+00 -0.34996269501E-01  0.35000000000E-01  0.51099999109E-03 0.  1.
       22    1    1    2    0    0 -0.20694839561E-01  0.11056045331E-01 -0.23689478742E-01  0.33342224369E-01  0.00000000000E+00 0.  1.
       22    1    1    2    0    0  0.10986004242E-02 -0.11178072953E-03  0.10635132946E-01  0.10692308947E-01  0.00000000000E+00 0. -1.
       22    1    1    2    0    0  0.19596239137E-01 -0.10944264602E-01  0.13054345795E-01  0.25965466684E-01  0.00000000000E+00 0. -1.
</event>
<event>
 5   0  0.4146200E+04  0.9118800E+02  0.7546771E-02  0.1180000E+00
      -11   -1    0    0    0    0  0.00000000000E+00  0.00000000000E+00  0.34996269501E-01  0.35000000000E-01  0.51099999109E-03 0.  1.
       11   -1    0    0    0    0 -0.00000000000E+00 -0.00000000000E+00 -0.34996269501E-01  0.35000000000E-01  0.51099999109E-03 0. -1.
       22    1    1    2    0    0  0.39736077654E-03 -0.20915458180E-03 -0.27030069371E-02  0.27400525046E-02  0.00000000000E+00 0.  1.
       22    1    1    2    0    0  0.19288626359E-01  0.10167031469E-01 -0.24130204825E-01  0.32522091271E-01  0.00000000000E+00 0. -1.
       22    1    1    2    0    0 -0.19685987136E-01 -0.99578768873E-02  0.26833211762E-01  0.34737856225E-01  0.00000000000E+00 0.  1.
</event>
<event>
 5   0  0.4146200E+04  0.9118800E+02  0.7546771E-02  0.1180000E+00
      -11   -1    0    0    0    0  0.00000000000E+00  0.00000000000E+00  0.34996269501E-01  0.35000000000E-01  0.51099999109E-03 0. -1.
       11   -1    0    0    0    0 -0.00000000000E+00 -0.00000000000E+00 -0.34996269501E-01  0.35000000000E-01  0.51099999109E-03 0.  1.
       22    1    1    2    0    0  0.74381102644E-03  0.13337417207E-02 -0.35026123407E-02  0.38210489437E-02  0.00000000000E+00 0.  1.
       22    1    1    2    0    0 -0.52106629949E-02 -0.31199460846E-02  0.34388484264E-01  0.34920666122E-01  0.00000000000E+00 0. -1.
       22    1    1    2    0    0  0.44668519685E-02  0.17862043639E-02 -0.30885871924E-01  0.31258284934E-01  0.00000000000E+00 0.  1.
</event>
<event>
 5   0  0.4146200E+04  0.9118800E+02  0.7546771E-02  0.1180000E+00
      -11   -1    0    0    0    0  0.00000000000E+00  0.00000000000E+00  0.34996269501E-01  0.35000000000E-01  0.51099999109E-03 0.  1.
       11   -1    0    0    0    0 -0.00000000000E+00 -0.00000000000E+00 -0.34996269501E-01  0.35000000000E-01  0.51099999109E-03 0. -1.
       22    1    1    2    0    0 -0.10692236386E-01 -0.20129002999E-02 -0.24055847062E-01  0.26401883729E-01  0.00000000000E+00 0. -1.
       22    1    1    2    0    0  0.46839061858E-03 -0.38212020052E-02  0.30114182154E-01  0.30359264506E-01  0.00000000000E+00 0.  1.
       22    1    1    2    0    0  0.10223845767E-01  0.58341023051E-02 -0.60583350922E-02  0.13238851765E-01  0.00000000000E+00 0.  1.
</event>
<event>
 5   0  0.4146200E+04  0.9118800E+02  0.7546771E-02  0.1180000E+00
      -11   -1    0    0    0    0  0.00000000000E+00  0.00000000000E+00  0.34996269501E-01  0.35000000000E-01  0.51099999109E-03 0.  1.
       11   -1    0    0    0    0 -0.00000000000E+00 -0.00000000000E+00 -0.34996269501E-01  0.35000000000E-01  0.51099999109E-03 0. -1.
       22    1    1    2    0    0 -0.93403487746E-02  0.63956146562E-02 -0.13990278005E-01  0.17996496346E-01  0.00000000000E+00 0. -1.
       22    1    1    2    0    0  0.48519911989E-03  0.93350639879E-03  0.31249284791E-01  0.31266989818E-01  0.00000000000E+00 0.  1.
       22    1    1    2    0    0  0.88551496547E-02 -0.73291210549E-02 -0.17259006785E-01  0.20736513836E-01  0.00000000000E+00 0.  1.
</event>
<event>
 5   0  0.4146200E+04  0.9118800E+02  0.7546771E-02  0.1180000E+00
      -11   -1    0    0    0    0  0.00000000000E+00  0.00000000000E+00  0.34996269501E-01  0.35000000000E-01  0.51099999109E-03 0. -1.
       11   -1    0    0    0    0 -0.00000000000E+00 -0.00000000000E+00 -0.34996269501E-01  0.35000000000E-01  0.51099999109E-03 0. -1.
       22    1    1    2    0    0  0.00000000000E+00 -0.00000000000E+00  0.34942847351E-01  0.34939387170E-01  0.00000000000E+00 0. -1.
       22    1    1    2    0    0  0.14173464166E-03  0.47947593852E-03 -0.33904217122E-01  0.33907903570E-01  0.00000000000E+00 0. -1.
       22    1    1    2    0    0 -0.14173464166E-03 -0.47947593852E-03 -0.10386302292E-02  0.11527092596E-02  0.00000000000E+00 0.  1.
</event>
<event>
 5   0  0.4146200E+04  0.9118800E+02  0.7546771E-02  0.1180000E+00
      -11   -1    0    0    0    0  0.00000000000E+00  0.00000000000E+00  0.34996269501E-01  0.35000000000E-01  0.51099999109E-03 0.  1.
       11   -1    0    0    0    0 -0.00000000000E+00 -0.00000000000E+00 -0.34996269501E-01  0.35000000000E-01  0.51099999109E-03 0. -1.
       22    1    1    2    0    0 -0.21262601114E-01 -0.73931315144E-02  0.26749181353E-01  0.34961054086E-01  0.00000000000E+00 0.  1.
       22    1    1    2    0    0  0.36008149263E-04 -0.79499574071E-04 -0.29729590749E-03  0.30984129115E-03  0.00000000000E+00 0.  1.
       22    1    1    2    0    0  0.21226592965E-01  0.74726310885E-02 -0.26451885446E-01  0.34729104623E-01  0.00000000000E+00 0. -1.
</event>
<event>
 5   0  0.4146200E+04  0.9118800E+02  0.7546771E-02  0.1180000E+00
      -11   -1    0    0    0    0  0.00000000000E+00  0.00000000000E+00  0.34996269501E-01  0.35000000000E-01  0.51099999109E-03 0. -1.
       11   -1    0    0    0    0 -0.00000000000E+00 -0.00000000000E+00 -0.34996269501E-01  0.35000000000E-01  0.51099999109E-03 0.  1.
       22    1    1    2    0    0  0.10148780174E-01  0.19319908276E-01 -0.26983792774E-01  0.34704202444E-01  0.00000000000E+00 0.  1.
       22    1    1    2    0    0  0.23287338216E-03  0.20952877076E-03  0.15899284132E-02  0.16204951950E-02  0.00000000000E+00 0. -1.
       22    1    1    2    0    0 -0.10381653556E-01 -0.19529437047E-01  0.25393864361E-01  0.33675302361E-01  0.00000000000E+00 0. -1.
</event>
<event>
 5   0  0.4146200E+04  0.9118800E+02  0.7546771E-02  0.1180000E+00
      -11   -1    0    0    0    0  0.00000000000E+00  0.00000000000E+00  0.34996269501E-01  0.35000000000E-01  0.51099999109E-03 0.  1.
       11   -1    0    0    0    0 -0.00000000000E+00 -0.00000000000E+00 -0.34996269501E-01  0.35000000000E-01  0.51099999109E-03 0. -1.
       22    1    1    2    0    0  0.94022459642E-03  0.66962428260E-03 -0.28797588913E-01  0.28820713838E-01  0.00000000000E+00 0. -1.
       22    1    1    2    0    0 -0.16328623517E-02  0.30943966418E-02  0.34299313561E-01  0.34477303270E-01  0.00000000000E+00 0.  1.
       22    1    1    2    0    0  0.69263775524E-03 -0.37640209244E-02 -0.55017246479E-02  0.67019828917E-02  0.00000000000E+00 0. -1.
</event>
<event>
 5   0  0.4146200E+04  0.9118800E+02  0.7546771E-02  0.1180000E+00
      -11   -1    0    0    0    0  0.00000000000E+00  0.00000000000E+00  0.34996269501E-01  0.35000000000E-01  0.51099999109E-03 0. -1.
       11   -1    0    0    0    0 -0.00000000000E+00 -0.00000000000E+00 -0.34996269501E-01  0.35000000000E-01  0.51099999109E-03 0.  1.
       22    1    1    2    0    0 -0.34865953416E-02 -0.22050948437E-02  0.34695827931E-01  0.34940224186E-01  0.00000000000E+00 0. -1.
       22    1    1    2    0    0  0.95541515341E-04 -0.36286767731E-03 -0.66029702134E-03  0.75946908349E-03  0.00000000000E+00 0. -1.
       22    1    1    2    0    0  0.33910538263E-02  0.25679625210E-02 -0.34035530909E-01  0.34300306731E-01  0.00000000000E+00 0.  1.
</event>
<event>
 5   0  0.4146200E+04  0.9118800E+02  0.7546771E-02  0.1180000E+00
      -11   -1    0    0    0    0  0.00000000000E+00  0.00000000000E+00  0.34996269501E-01  0.35000000000E-01  0.51099999109E-03 0.  1.
       11   -1    0    0    0    0 -0.00000000000E+00 -0.00000000000E+00 -0.34996269501E-01  0.35000000000E-01  0.51099999109E-03 0. -1.
       22    1    1    2    0    0  0.84745514595E-02 -0.16712338904E-01 -0.24711416377E-01  0.31012487701E-01  0.00000000000E+00 0. -1.
       22    1    1    2    0    0 -0.96835730842E-02  0.16540494623E-01  0.28870138985E-01  0.34653202956E-01  0.00000000000E+00 0.  1.
       22    1    1    2    0    0  0.12090216247E-02  0.17184428057E-03 -0.41587226085E-02  0.43343093429E-02  0.00000000000E+00 0.  1.
</event>
<event>
 5   0  0.4146200E+04  0.9118800E+02  0.7546771E-02  0.1180000E+00
      -11   -1    0    0    0    0  0.00000000000E+00  0.00000000000E+00  0.34996269501E-01  0.35000000000E-01  0.51099999109E-03 0.  1.
       11   -1    0    0    0    0 -0.00000000000E+00 -0.00000000000E+00 -0.34996269501E-01  0.35000000000E-01  0.51099999109E-03 0. -1.
       22    1    1    2    0    0 -0.61332266679E-02 -0.53485069008E-02  0.14943439108E-01  0.17015562518E-01  0.00000000000E+00 0.  1.
       22    1    1    2    0    0 -0.37334488697E-02 -0.50583955193E-02  0.16915837249E-01  0.18046372365E-01  0.00000000000E+00 0.  1.
       22    1    1    2    0    0  0.98666755376E-02  0.10406902420E-01 -0.31859276357E-01  0.34938065117E-01  0.00000000000E+00 0. -1.
</event>
<event>
 5   0  0.4146200E+04  0.9118800E+02  0.7546771E-02  0.1180000E+00
      -11   -1    0    0    0    0  0.00000000000E+00  0.00000000000E+00  0.34996269501E-01  0.35000000000E-01  0.51099999109E-03 0.  1.
       11   -1    0    0    0    0 -0.00000000000E+00 -0.00000000000E+00 -0.34996269501E-01  0.35000000000E-01  0.51099999109E-03 0. -1.
       22    1    1    2    0    0  0.36580568754E-02 -0.30419735368E-02 -0.34211919569E-01  0.34541141030E-01  0.00000000000E+00 0. -1.
       22    1    1    2    0    0 -0.33903142412E-02  0.30842078560E-02  0.34645595710E-01  0.34947444411E-01  0.00000000000E+00 0.  1.
       22    1    1    2    0    0 -0.26774263414E-03 -0.42234319228E-04 -0.43367614100E-03  0.51141455898E-03  0.00000000000E+00 0.  1.
</event>
<event>
 5   0  0.4146200E+04  0.9118800E+02  0.7546771E-02  0.1180000E+00
      -11   -1    0    0    0    0  0.00000000000E+00  0.00000000000E+00  0.34996269501E-01  0.35000000000E-01  0.51099999109E-03 0. -1.
       11   -1    0    0    0    0 -0.00000000000E+00 -0.00000000000E+00 -0.34996269501E-01  0.35000000000E-01  0.51099999109E-03 0.  1.
       22    1    1    2    0    0 -0.15810820146E-01 -0.19314295348E-01  0.23351487899E-01  0.34180638168E-01  0.00000000000E+00 0. -1.
       22    1    1    2    0    0  0.91122057811E-03  0.19370011705E-02  0.10308197969E-02  0.23758968686E-02  0.00000000000E+00 0.  1.
       22    1    1    2    0    0  0.14899599568E-01  0.17377294177E-01 -0.24382307696E-01  0.33443464964E-01  0.00000000000E+00 0.  1.
</event>
<event>
 5   0  0.4146200E+04  0.9118800E+02  0.7546771E-02  0.1180000E+00
      -11   -1    0    0    0    0  0.00000000000E+00  0.00000000000E+00  0.34996269501E-01  0.35000000000E-01  0.51099999109E-03 0.  1.
       11   -1    0    0    0    0 -0.00000000000E+00 -0.00000000000E+00 -0.34996269501E-01  0.35000000000E-01  0.51099999109E-03 0. -1.
       22    1    1    2    0    0 -0.73468464810E-02  0.13032224166E-01 -0.31393470059E-01  0.34775925326E-01  0.00000000000E+00 0. -1.
       22    1    1    2    0    0  0.62877154941E-02 -0.12394120466E-01  0.30920416903E-01  0.33900173595E-01  0.00000000000E+00 0.  1.
       22    1    1    2    0    0  0.10591309869E-02 -0.63810369970E-03  0.47305315594E-03  0.13239010792E-02  0.00000000000E+00 0.  1.
</event>
<event>
 5   0  0.4146200E+04  0.9118800E+02  0.7546771E-02  0.1180000E+00
      -11   -1    0    0    0    0  0.00000000000E+00  0.00000000000E+00  0.34996269501E-01  0.35000000000E-01  0.51099999109E-03 0. -1.
       11   -1    0    0    0    0 -0.00000000000E+00 -0.00000000000E+00 -0.34996269501E-01  0.35000000000E-01  0.51099999109E-03 0.  1.
       22    1    1    2    0    0  0.35456080036E-02  0.19438934997E-01 -0.28347481231E-01  0.34554641108E-01  0.00000000000E+00 0.  1.
       22    1    1    2    0    0  0.17249871894E-02 -0.16519158573E-02  0.56288341244E-02  0.61145875088E-02  0.00000000000E+00 0.  1.
       22    1    1    2    0    0 -0.52705951929E-02 -0.17787019140E-01  0.22718647107E-01  0.29330771383E-01  0.00000000000E+00 0. -1.
</event>
<event>
 5   0  0.4146200E+04  0.9118800E+02  0.7546771E-02  0.1180000E+00
      -11   -1    0    0    0    0  0.00000000000E+00  0.00000000000E+00  0.34996269501E-01  0.35000000000E-01  0.51099999109E-03 0.  1.
       11   -1    0    0    0    0 -0.00000000000E+00 -0.00000000000E+00 -0.34996269501E-01  0.35000000000E-01  0.51099999109E-03 0. -1.
       22    1    1    2    0    0 -0.50428196569E-02  0.69702263034E-02  0.33543038389E-01  0.34628738198E-01  0.00000000000E+00 0.  1.
       22    1    1    2    0    0  0.20094744313E-02 -0.42218035416E-02 -0.28476629519E-01  0.28857928571E-01  0.00000000000E+00 0. -1.
       22    1    1    2    0    0  0.30333452256E-02 -0.27484227618E-02 -0.50664088704E-02  0.65133332309E-02  0.00000000000E+00 0. -1.
</event>
<event>
 5   0  0.4146200E+04  0.9118800E+02  0.7546771E-02  0.1180000E+00
      -11   -1    0    0    0    0  0.00000000000E+00  0.00000000000E+00  0.34996269501E-01  0.35000000000E-01  0.51099999109E-03 0.  1.
       11   -1    0    0    0    0 -0.00000000000E+00 -0.00000000000E+00 -0.34996269501E-01  0.35000000000E-01  0.51099999109E-03 0. -1.
       22    1    1    2    0    0 -0.20247143362E-01 -0.48927825002E-02  0.27788066208E-01  0.34728414281E-01  0.00000000000E+00 0.  1.
       22    1    1    2    0    0  0.20400983096E-01  0.54734397338E-02 -0.27049097072E-01  0.34319270188E-01  0.00000000000E+00 0. -1.
       22    1    1    2    0    0 -0.15383973404E-03 -0.58065723357E-03 -0.73896913566E-03  0.95231553076E-03  0.00000000000E+00 0. -1.
</event>
<event>
 5   0  0.4146200E+04  0.9118800E+02  0.7546771E-02  0.1180000E+00
      -11   -1    0    0    0    0  0.00000000000E+00  0.00000000000E+00  0.34996269501E-01  0.35000000000E-01  0.51099999109E-03 0. -1.
       11   -1    0    0    0    0 -0.00000000000E+00 -0.00000000000E+00 -0.34996269501E-01  0.35000000000E-01  0.51099999109E-03 0.  1.
       22    1    1    2    0    0 -0.38189561954E-03 -0.54604700694E-04  0.55378429450E-03  0.67490961054E-03  0.00000000000E+00 0. -1.
       22    1    1    2    0    0  0.80112510295E-02  0.99082047284E-02 -0.32567512327E-01  0.34971352893E-01  0.00000000000E+00 0.  1.
       22    1    1    2    0    0 -0.76293554099E-02 -0.98536000277E-02  0.32013728032E-01  0.34353737497E-01  0.00000000000E+00 0. -1.
</event>
<event>
 5   0  0.4146200E+04  0.9118800E+02  0.7546771E-02  0.1180000E+00
      -11   -1    0    0    0    0  0.00000000000E+00  0.00000000000E+00  0.34996269501E-01  0.35000000000E-01  0.51099999109E-03 0. -1.
       11   -1    0    0    0    0 -0.00000000000E+00 -0.00000000000E+00 -0.34996269501E-01  0.35000000000E-01  0.51099999109E-03 0.  1.
       22    1    1    2    0    0 -0.17347461327E-01  0.31772445941E-02 -0.30047957294E-01  0.34841197386E-01  0.00000000000E+00 0.  1.
       22    1    1    2    0    0 -0.13543867494E-03 -0.56110683024E-03  0.89810159696E-03  0.10676005752E-02  0.00000000000E+00 0.  1.
       22    1    1    2    0    0  0.17482900002E-01 -0.26161377639E-02  0.29149855697E-01  0.34091202039E-01  0.00000000000E+00 0. -1.
</event>
<event>
 5   0  0.4146200E+04  0.9118800E+02  0.7546771E-02  0.1180000E+00
      -11   -1    0    0    0    0  0.00000000000E+00  0.00000000000E+00  0.34996269501E-01  0.35000000000E-01  0.51099999109E-03 0.  1.
       11   -1    0    0    0    0 -0.00000000000E+00 -0.00000000000E+00 -0.34996269501E-01  0.35000000000E-01  0.51099999109E-03 0. -1.
       22    1    1    2    0    0 -0.10338853353E-02 -0.14946695807E-02  0.34611305496E-01  0.34658987639E-01  0.00000000000E+00 0.  1.
       22    1    1    2    0    0  0.45029702322E-03 -0.29085347288E-03 -0.32541366455E-01  0.32545781507E-01  0.00000000000E+00 0. -1.
       22    1    1    2    0    0  0.58358831212E-03  0.17855230536E-02 -0.20699390412E-02  0.27952308541E-02  0.00000000000E+00 0. -1.
</event>
<event>
 5   0  0.4146200E+04  0.9118800E+02  0.7546771E-02  0.1180000E+00
      -11   -1    0    0    0    0  0.00000000000E+00  0.00000000000E+00  0.34996269501E-01  0.35000000000E-01  0.51099999109E-03 0.  1.
       11   -1    0    0    0    0 -0.00000000000E+00 -0.00000000000E+00 -0.34996269501E-01  0.35000000000E-01  0.51099999109E-03 0. -1.
       22    1    1    2    0    0 -0.18281619619E-03 -0.10636793052E-02 -0.19987989450E-01  0.20017106626E-01  0.00000000000E+00 0. -1.
       22    1    1    2    0    0 -0.50465701415E-02  0.57787965726E-02  0.33703422031E-01  0.34565633462E-01  0.00000000000E+00 0.  1.
       22    1    1    2    0    0  0.52293863377E-02 -0.47151172674E-02 -0.13715432581E-01  0.15417259912E-01  0.00000000000E+00 0. -1.
</event>
<event>
 5   0  0.4146200E+04  0.9118800E+02  0.7546771E-02  0.1180000E+00
      -11   -1    0    0    0    0  0.00000000000E+00  0.00000000000E+00  0.34996269501E-01  0.35000000000E-01  0.51099999109E-03 0. -1.
       11   -1    0    0    0    0 -0.00000000000E+00 -0.00000000000E+00 -0.34996269501E-01  0.35000000000E-01  0.51099999109E-03 0.  1.
       22    1    1    2    0    0  0.17431340358E-01 -0.47231790024E-02  0.28601671424E-01  0.33826256884E-01  0.00000000000E+00 0. -1.
       22    1    1    2    0    0 -0.17255086126E-01  0.43246370909E-02 -0.29907027648E-01  0.34797568679E-01  0.00000000000E+00 0.  1.
       22    1    1    2    0    0 -0.17625423115E-03  0.39854191150E-03  0.13053562244E-02  0.13761744373E-02  0.00000000000E+00 0.  1.
</event>
<event>
 5   0  0.4146200E+04  0.9118800E+02  0.7546771E-02  0.1180000E+00
      -11   -1    0    0    0    0  0.00000000000E+00  0.00000000000E+00  0.34996269501E-01  0.35000000000E-01  0.51099999109E-03 0.  1.
       11   -1    0    0    0    0 -0.00000000000E+00 -0.00000000000E+00 -0.34996269501E-01  0.35000000000E-01  0.51099999109E-03 0. -1.
       22    1    1    2    0    0  0.10918315381E-01  0.61811844574E-02 -0.29924388902E-01  0.32448200307E-01  0.00000000000E+00 0. -1.
       22    1    1    2    0    0 -0.11068998695E-01 -0.59835747188E-02  0.32558845290E-01  0.34905648614E-01  0.00000000000E+00 0.  1.
       22    1    1    2    0    0  0.15068331395E-03 -0.19760973865E-03 -0.26344563886E-02  0.26461510791E-02  0.00000000000E+00 0. -1.
</event>
<event>
 5   0  0.4146200E+04  0.9118800E+02  0.7546771E-02  0.1180000E+00
      -11   -1    0    0    0    0  0.00000000000E+00  0.00000000000E+00  0.34996269501E-01  0.35000000000E-01  0.51099999109E-03 0.  1.
       11   -1    0    0    0    0 -0.00000000000E+00 -0.00000000000E+00 -0.34996269501E-01  0.35000000000E-01  0.51099999109E-03 0. -1.
       22    1    1    2    0    0 -0.63697559934E-02  0.73350241563E-02  0.33495161786E-01  0.34875524855E-01  0.00000000000E+00 0.  1.
       22    1    1    2    0    0  0.59224347903E-02 -0.73107628861E-02 -0.26602860245E-01  0.28217630323E-01  0.00000000000E+00 0. -1.
       22    1    1    2    0    0  0.44732120312E-03 -0.24261270234E-04 -0.68923015413E-02  0.69068448226E-02  0.00000000000E+00 0.  1.
</event>
<event>
 5   0  0.4146200E+04  0.9118800E+02  0.7546771E-02  0.1180000E+00
      -11   -1    0    0    0    0  0.00000000000E+00  0.00000000000E+00  0.34996269501E-01  0.35000000000E-01  0.51099999109E-03 0. -1.
       11   -1    0    0    0    0 -0.00000000000E+00 -0.00000000000E+00 -0.34996269501E-01  0.35000000000E-01  0.51099999109E-03 0.  1.
       22    1    1    2    0    0 -0.14668574065E-01 -0.30991041843E-01 -0.36836817547E-02  0.34484507404E-01  0.00000000000E+00 0.  1.
       22    1    1    2    0    0 -0.18289765444E-03 -0.25478916209E-03 -0.57859830968E-03  0.65813757915E-03  0.00000000000E+00 0. -1.
       22    1    1    2    0    0  0.14851471719E-01  0.31245831005E-01  0.42622800644E-02  0.34857355017E-01  0.00000000000E+00 0. -1.
</event>
<event>
 5   0  0.4146200E+04  0.9118800E+02  0.7546771E-02  0.1180000E+00
      -11   -1    0    0    0    0  0.00000000000E+00  0.00000000000E+00  0.34996269501E-01  0.35000000000E-01  0.51099999109E-03 0. -1.
       11   -1    0    0    0    0 -0.00000000000E+00 -0.00000000000E+00 -0.34996269501E-01  0.35000000000E-01  0.51099999109E-03 0.  1.
       22    1    1    2    0    0 -0.11102909599E-01  0.72827634355E-02 -0.30380154266E-01  0.33155195943E-01  0.00000000000E+00 0.  1.
       22    1    1    2    0    0  0.11311465124E-01 -0.79462990870E-02  0.32121464469E-01  0.34969721075E-01  0.00000000000E+00 0. -1.
       22    1    1    2    0    0 -0.20855552445E-03  0.66353565147E-03 -0.17413102027E-02  0.18750829820E-02  0.00000000000E+00 0.  1.
</event>
<event>
 5   0  0.4146200E+04  0.9118800E+02  0.7546771E-02  0.1180000E+00
      -11   -1    0    0    0    0  0.00000000000E+00  0.00000000000E+00  0.34996269501E-01  0.35000000000E-01  0.51099999109E-03 0.  1.
       11   -1    0    0    0    0 -0.00000000000E+00 -0.00000000000E+00 -0.34996269501E-01  0.35000000000E-01  0.51099999109E-03 0. -1.
       22    1    1    2    0    0  0.50652494480E-02 -0.35482334987E-02  0.33529360726E-01  0.34094937214E-01  0.00000000000E+00 0.  1.
       22    1    1    2    0    0 -0.14439969748E-03  0.47815587375E-03 -0.27621428786E-01  0.27625944554E-01  0.00000000000E+00 0. -1.
       22    1    1    2    0    0 -0.49208497505E-02  0.30700776249E-02 -0.59079319397E-02  0.82791182317E-02  0.00000000000E+00 0. -1.
</event>
<event>
 5   0  0.4146200E+04  0.9118800E+02  0.7546771E-02  0.1180000E+00
      -11   -1    0    0    0    0  0.00000000000E+00  0.00000000000E+00  0.34996269501E-01  0.35000000000E-01  0.51099999109E-03 0. -1.
       11   -1    0    0    0    0 -0.00000000000E+00 -0.00000000000E+00 -0.34996269501E-01  0.35000000000E-01  0.51099999109E-03 0.  1.
       22    1    1    2    0    0 -0.13596794933E-01 -0.41556222869E-03  0.11530174432E-02  0.13651921976E-01  0.00000000000E+00 0. -1.
       22    1    1    2    0    0  0.13957957434E-01  0.14606513237E-02 -0.27025388841E-01  0.30452088927E-01  0.00000000000E+00 0.  1.
       22    1    1    2    0    0 -0.36116250183E-03 -0.10450890950E-02  0.25872371398E-01  0.25895989097E-01  0.00000000000E+00 0. -1.
</event>
<event>
 5   0  0.4146200E+04  0.9118800E+02  0.7546771E-02  0.1180000E+00
      -11   -1    0    0    0    0  0.00000000000E+00  0.00000000000E+00  0.34996269501E-01  0.35000000000E-01  0.51099999109E-03 0.  1.
       11   -1    0    0    0    0 -0.00000000000E+00 -0.00000000000E+00 -0.34996269501E-01  0.35000000000E-01  0.51099999109E-03 0. -1.
       22    1    1    2    0    0 -0.47459227426E-02 -0.12272537114E-02  0.11434427929E-01  0.12440903360E-01  0.00000000000E+00 0.  1.
       22    1    1    2    0    0  0.36991672540E-02 -0.10124492424E-01  0.20767829814E-01  0.23398545690E-01  0.00000000000E+00 0.  1.
       22    1    1    2    0    0  0.10467554886E-02  0.11351746136E-01 -0.32202257744E-01  0.34160550949E-01  0.00000000000E+00 0. -1.
</event>
<event>
 5   0  0.4146200E+04  0.9118800E+02  0.7546771E-02  0.1180000E+00
      -11   -1    0    0    0    0  0.00000000000E+00  0.00000000000E+00  0.34996269501E-01  0.35000000000E-01  0.51099999109E-03 0.  1.
       11   -1    0    0    0    0 -0.00000000000E+00 -0.00000000000E+00 -0.34996269501E-01  0.35000000000E-01  0.51099999109E-03 0. -1.
       22    1    1    2    0    0  0.21911801437E-03  0.11769531498E-03 -0.56364139871E-03  0.61608158366E-03  0.00000000000E+00 0. -1.
       22    1    1    2    0    0  0.12342709371E-02 -0.19568830250E-02  0.34895506105E-01  0.34972119785E-01  0.00000000000E+00 0.  1.
       22    1    1    2    0    0 -0.14533889515E-02  0.18391877101E-02 -0.34331864706E-01  0.34411798632E-01  0.00000000000E+00 0. -1.
</event>
<event>
 5   0  0.4146200E+04  0.9118800E+02  0.7546771E-02  0.1180000E+00
      -11   -1    0    0    0    0  0.00000000000E+00  0.00000000000E+00  0.34996269501E-01  0.35000000000E-01  0.51099999109E-03 0.  1.
       11   -1    0    0    0    0 -0.00000000000E+00 -0.00000000000E+00 -0.34996269501E-01  0.35000000000E-01  0.51099999109E-03 0. -1.
       22    1    1    2    0    0 -0.26403161924E-03  0.24401389218E-03  0.22083138582E-02  0.22373881138E-02  0.00000000000E+00 0. -1.
       22    1    1    2    0    0 -0.11768986177E-01 -0.20415773593E-02  0.30558447570E-01  0.32809995301E-01  0.00000000000E+00 0.  1.
       22    1    1    2    0    0  0.12033017796E-01  0.17975634671E-02 -0.32766761428E-01  0.34952616586E-01  0.00000000000E+00 0. -1.
</event>
<event>
 5   0  0.4146200E+04  0.9118800E+02  0.7546771E-02  0.1180000E+00
      -11   -1    0    0    0    0  0.00000000000E+00  0.00000000000E+00  0.34996269501E-01  0.35000000000E-01  0.51099999109E-03 0. -1.
       11   -1    0    0    0    0 -0.00000000000E+00 -0.00000000000E+00 -0.34996269501E-01  0.35000000000E-01  0.51099999109E-03 0.  1.
       22    1    1    2    0    0 -0.19015504967E-01  0.81287119300E-02 -0.28075910160E-01  0.34870074822E-01  0.00000000000E+00 0.  1.
       22    1    1    2    0    0  0.88436057950E-03 -0.13126641030E-02  0.11315420631E-02  0.19456536491E-02  0.00000000000E+00 0.  1.
       22    1    1    2    0    0  0.18131144387E-01 -0.68160478270E-02  0.26944368097E-01  0.33184271529E-01  0.00000000000E+00 0. -1.
</event>
<event>
 5   0  0.4146200E+04  0.9118800E+02  0.7546771E-02  0.1180000E+00
      -11   -1    0    0    0    0  0.00000000000E+00  0.00000000000E+00  0.34996269501E-01  0.35000000000E-01  0.51099999109E-03 0. -1.
       11   -1    0    0    0    0 -0.00000000000E+00 -0.00000000000E+00 -0.34996269501E-01  0.35000000000E-01  0.51099999109E-03 0.  1.
       22    1    1    2    0    0 -0.88229188379E-06  0.95667614335E-04  0.10361064212E-02  0.10405140974E-02  0.00000000000E+00 0. -1.
       22    1    1    2    0    0  0.10312419062E-01 -0.71809581848E-02 -0.32636681993E-01  0.34972348490E-01  0.00000000000E+00 0.  1.
       22    1    1    2    0    0 -0.10311536770E-01  0.70852905705E-02  0.31600575572E-01  0.33987137413E-01  0.00000000000E+00 0. -1.
</event>
<event>
 5   0  0.4146200E+04  0.9118800E+02  0.7546771E-02  0.1180000E+00
      -11   -1    0    0    0    0  0.00000000000E+00  0.00000000000E+00  0.34996269501E-01  0.35000000000E-01  0.51099999109E-03 0.  1.
       11   -1    0    0    0    0 -0.00000000000E+00 -0.00000000000E+00 -0.34996269501E-01  0.35000000000E-01  0.51099999109E-03 0.  1.
       22    1    1    2    0    0 -0.50247053272E-03 -0.40239923872E-03 -0.72356324717E-03  0.96847589347E-03  0.00000000000E+00 0.  1.
       22    1    1    2    0    0 -0.13484661052E-03 -0.24588168171E-03  0.34870930405E-01  0.34872057994E-01  0.00000000000E+00 0.  1.
       22    1    1    2    0    0  0.63731714324E-03  0.64828092043E-03 -0.34147367158E-01  0.34159466113E-01  0.00000000000E+00 0.  1.
</event>
<event>
 5   0  0.4146200E+04  0.9118800E+02  0.7546771E-02  0.1180000E+00
      -11   -1    0    0    0    0  0.00000000000E+00  0.00000000000E+00  0.34996269501E-01  0.35000000000E-01  0.51099999109E-03 0. -1.
       11   -1    0    0    0    0 -0.00000000000E+00 -0.00000000000E+00 -0.34996269501E-01  0.35000000000E-01  0.51099999109E-03 0.  1.
       22    1    1    2    0    0 -0.33373259292E-02  0.11548449204E-01  0.19201764044E-01  0.22654186496E-01  0.00000000000E+00 0. -1.
       22    1    1    2    0    0  0.27698923950E-02 -0.11436299397E-01 -0.32226852090E-01  0.34307888938E-01  0.00000000000E+00 0.  1.
       22    1    1    2    0    0  0.56743353421E-03 -0.11214980698E-03  0.13025088046E-01  0.13037924566E-01  0.00000000000E+00 0. -1.
</event>
<event>
 5   0  0.4146200E+04  0.9118800E+02  0.7546771E-02  0.1180000E+00
      -11   -1    0    0    0    0  0.00000000000E+00  0.00000000000E+00  0.34996269501E-01  0.35000000000E-01  0.51099999109E-03 0.  1.
       11   -1    0    0    0    0 -0.00000000000E+00 -0.00000000000E+00 -0.34996269501E-01  0.35000000000E-01  0.51099999109E-03 0. -1.
       22    1    1    2    0    0 -0.15998420505E-01  0.13693651811E-02  0.29675939559E-01  0.33741458303E-01  0.00000000000E+00 0.  1.
       22    1    1    2    0    0 -0.19583167991E-04  0.22939206679E-03  0.13156335159E-02  0.13356256096E-02  0.00000000000E+00 0.  1.
       22    1    1    2    0    0  0.16018003673E-01 -0.15987572479E-02 -0.30991573075E-01  0.34922916088E-01  0.00000000000E+00 0. -1.
</event>
<event>
 5   0  0.4146200E+04  0.9118800E+02  0.7546771E-02  0.1180000E+00
      -11   -1    0    0    0    0  0.00000000000E+00  0.00000000000E+00  0.34996269501E-01  0.35000000000E-01  0.51099999109E-03 0. -1.
       11   -1    0    0    0    0 -0.00000000000E+00 -0.00000000000E+00 -0.34996269501E-01  0.35000000000E-01  0.51099999109E-03 0.  1.
       22    1    1    2    0    0 -0.41919507034E-02 -0.16558574343E-01 -0.18329908258E-01  0.25054827313E-01  0.00000000000E+00 0.  1.
       22    1    1    2    0    0  0.66645761803E-03  0.22845436358E-02 -0.11470650243E-01  0.11714910259E-01  0.00000000000E+00 0.  1.
       22    1    1    2    0    0  0.35254930853E-02  0.14274030707E-01  0.29800558500E-01  0.33230262428E-01  0.00000000000E+00 0. -1.
</event>
<event>
 5   0  0.4146200E+04  0.9118800E+02  0.7546771E-02  0.1180000E+00
      -11   -1    0    0    0    0  0.00000000000E+00  0.00000000000E+00  0.34996269501E-01  0.35000000000E-01  0.51099999109E-03 0. -1.
       11   -1    0    0    0    0 -0.00000000000E+00 -0.00000000000E+00 -0.34996269501E-01  0.35000000000E-01  0.51099999109E-03 0.  1.
       22    1    1    2    0    0 -0.10427560232E-02  0.57953487032E-03  0.34827354148E-01  0.34847780385E-01  0.00000000000E+00 0. -1.
       22    1    1    2    0    0  0.26062701720E-03 -0.47363745721E-03 -0.34016025442E-01  0.34020321071E-01  0.00000000000E+00 0.  1.
       22    1    1    2    0    0  0.78212900602E-03 -0.10589741311E-03 -0.81132870616E-03  0.11318985439E-02  0.00000000000E+00 0.  1.
</event>
<event>
 5   0  0.4146200E+04  0.9118800E+02  0.7546771E-02  0.1180000E+00
      -11   -1    0    0    0    0  0.00000000000E+00  0.00000000000E+00  0.34996269501E-01  0.35000000000E-01  0.51099999109E-03 0. -1.
       11   -1    0    0    0    0 -0.00000000000E+00 -0.00000000000E+00 -0.34996269501E-01  0.35000000000E-01  0.51099999109E-03 0.  1.
       22    1    1    2    0    0 -0.34072151154E-02 -0.17869620137E-02 -0.33899760223E-01  0.34117386935E-01  0.00000000000E+00 0.  1.
       22    1    1    2    0    0 -0.36099065885E-03  0.41332267340E-04 -0.82968005514E-03  0.90575471624E-03  0.00000000000E+00 0. -1.
       22    1    1    2    0    0  0.37682057743E-02  0.17456297463E-02  0.34729440278E-01  0.34976858349E-01  0.00000000000E+00 0. -1.
</event>
<event>
 5   0  0.4146200E+04  0.9118800E+02  0.7546771E-02  0.1180000E+00
      -11   -1    0    0    0    0  0.00000000000E+00  0.00000000000E+00  0.34996269501E-01  0.35000000000E-01  0.51099999109E-03 0. -1.
       11   -1    0    0    0    0 -0.00000000000E+00 -0.00000000000E+00 -0.34996269501E-01  0.35000000000E-01  0.51099999109E-03 0.  1.
       22    1    1    2    0    0  0.11059419886E-04  0.22950650210E-04  0.75222225340E-03  0.75265354687E-03  0.00000000000E+00 0.  1.
       22    1    1    2    0    0  0.12800750887E-01 -0.10209951593E-02 -0.32528217829E-01  0.34971225450E-01  0.00000000000E+00 0.  1.
       22    1    1    2    0    0 -0.12811810307E-01  0.99804450904E-03  0.31775995575E-01  0.34276121003E-01  0.00000000000E+00 0. -1.
</event>
<event>
 5   0  0.4146200E+04  0.9118800E+02  0.7546771E-02  0.1180000E+00
      -11   -1    0    0    0    0  0.00000000000E+00  0.00000000000E+00  0.34996269501E-01  0.35000000000E-01  0.51099999109E-03 0. -1.
       11   -1    0    0    0    0 -0.00000000000E+00 -0.00000000000E+00 -0.34996269501E-01  0.35000000000E-01  0.51099999109E-03 0.  1.
       22    1    1    2    0    0 -0.14588323056E-01 -0.11478562866E-01  0.29656488234E-01  0.34986909973E-01  0.00000000000E+00 0. -1.
       22    1    1    2    0    0  0.19016798815E-03 -0.11071979972E-04 -0.26888509135E-03  0.32952336003E-03  0.00000000000E+00 0.  1.
       22    1    1    2    0    0  0.14398155068E-01  0.11489634846E-01 -0.29387603143E-01  0.34683566667E-01  0.00000000000E+00 0.  1.
</event>
<event>
 5   0  0.4146200E+04  0.9118800E+02  0.7546771E-02  0.1180000E+00
      -11   -1    0    0    0    0  0.00000000000E+00  0.00000000000E+00  0.34996269501E-01  0.35000000000E-01  0.51099999109E-03 0. -1.
       11   -1    0    0    0    0 -0.00000000000E+00 -0.00000000000E+00 -0.34996269501E-01  0.35000000000E-01  0.51099999109E-03 0.  1.
       22    1    1    2    0    0  0.11368006874E-02 -0.25191864925E-01 -0.10350505606E-01  0.27259041445E-01  0.00000000000E+00 0.  1.
       22    1    1    2    0    0 -0.53999582775E-02  0.28869717418E-01  0.17072947679E-01  0.33972130867E-01  0.00000000000E+00 0. -1.
       22    1    1    2    0    0  0.42631575901E-02 -0.36778524928E-02 -0.67224420729E-02  0.87688276879E-02  0.00000000000E+00 0.  1.
</event>
<event>
 5   0  0.4146200E+04  0.9118800E+02  0.7546771E-02  0.1180000E+00
      -11   -1    0    0    0    0  0.00000000000E+00  0.00000000000E+00  0.34996269501E-01  0.35000000000E-01  0.51099999109E-03 0.  1.
       11   -1    0    0    0    0 -0.00000000000E+00 -0.00000000000E+00 -0.34996269501E-01  0.35000000000E-01  0.51099999109E-03 0.  1.
       22    1    1    2    0    0  0.15379435463E-01  0.10215640544E-01  0.15170544185E-01  0.23896270791E-01  0.00000000000E+00 0. -1.
       22    1    1    2    0    0 -0.15379435463E-01 -0.10215640544E-01 -0.27855971506E-01  0.33419178557E-01  0.00000000000E+00 0.  1.
       22    1    1    2    0    0  0.00000000000E+00  0.00000000000E+00  0.12685427322E-01  0.12684550652E-01  0.00000000000E+00 0.  1.
</event>
<event>
 5   0  0.4146200E+04  0.9118800E+02  0.7546771E-02  0.1180000E+00
      -11   -1    0    0    0    0  0.00000000000E+00  0.00000000000E+00  0.34996269501E-01  0.35000000000E-01  0.51099999109E-03 0.  1.
       11   -1    0    0    0    0 -0.00000000000E+00 -0.00000000000E+00 -0.34996269501E-01  0.35000000000E-01  0.51099999109E-03 0. -1.
       22    1    1    2    0    0  0.37339072873E-03  0.56097204427E-03  0.41747607520E-03  0.79271466753E-03  0.00000000000E+00 0. -1.
       22    1    1    2    0    0 -0.17865396044E-01  0.16437042445E-01  0.24393666640E-01  0.34415108779E-01  0.00000000000E+00 0.  1.
       22    1    1    2    0    0  0.17492005315E-01 -0.16998014489E-01 -0.24811142715E-01  0.34792176554E-01  0.00000000000E+00 0. -1.
</event>
<event>
 5   0  0.4146200E+04  0.9118800E+02  0.7546771E-02  0.1180000E+00
      -11   -1    0    0    0    0  0.00000000000E+00  0.00000000000E+00  0.34996269501E-01  0.35000000000E-01  0.51099999109E-03 0.  1.
       11   -1    0    0    0    0 -0.00000000000E+00 -0.00000000000E+00 -0.34996269501E-01  0.35000000000E-01  0.51099999109E-03 0. -1.
       22    1    1    2    0    0 -0.75966922488E-04 -0.43408419508E-03 -0.17152486890E-02  0.17709540160E-02  0.00000000000E+00 0. -1.
       22    1    1    2    0    0 -0.17389821031E-01 -0.43444031037E-02 -0.28109333212E-01  0.33337881268E-01  0.00000000000E+00 0. -1.
       22    1    1    2    0    0  0.17465787954E-01  0.47784872988E-02  0.29824581901E-01  0.34891164716E-01  0.00000000000E+00 0.  1.
</event>
<event>
 5   0  0.4146200E+04  0.9118800E+02  0.7546771E-02  0.1180000E+00
      -11   -1    0    0    0    0  0.00000000000E+00  0.00000000000E+00  0.34996269501E-01  0.35000000000E-01  0.51099999109E-03 0. -1.
       11   -1    0    0    0    0 -0.00000000000E+00 -0.00000000000E+00 -0.34996269501E-01  0.35000000000E-01  0.51099999109E-03 0.  1.
       22    1    1    2    0    0 -0.12586849418E-01 -0.10448512885E-01 -0.30823388115E-01  0.34895292730E-01  0.00000000000E+00 0.  1.
       22    1    1    2    0    0 -0.23545248918E-03 -0.47944493161E-05  0.68570032898E-03  0.72501434646E-03  0.00000000000E+00 0. -1.
       22    1    1    2    0    0  0.12822301907E-01  0.10453307335E-01  0.30137687786E-01  0.34379692924E-01  0.00000000000E+00 0. -1.
</event>
<event>
 5   0  0.4146200E+04  0.9118800E+02  0.7546771E-02  0.1180000E+00
      -11   -1    0    0    0    0  0.00000000000E+00  0.00000000000E+00  0.34996269501E-01  0.35000000000E-01  0.51099999109E-03 0.  1.
       11   -1    0    0    0    0 -0.00000000000E+00 -0.00000000000E+00 -0.34996269501E-01  0.35000000000E-01  0.51099999109E-03 0. -1.
       22    1    1    2    0    0  0.39486393582E-03  0.12239137136E-02  0.33197004583E-01  0.33221905358E-01  0.00000000000E+00 0.  1.
       22    1    1    2    0    0 -0.67840222698E-02 -0.12875996006E-03 -0.68359118024E-02  0.96316783301E-02  0.00000000000E+00 0.  1.
       22    1    1    2    0    0  0.63891583340E-02 -0.10951537535E-02 -0.26361092781E-01  0.27146416312E-01  0.00000000000E+00 0. -1.
</event>
<event>
 5   0  0.4146200E+04  0.9118800E+02  0.7546771E-02  0.1180000E+00
      -11   -1    0    0    0    0  0.00000000000E+00  0.00000000000E+00  0.34996269501E-01  0.35000000000E-01  0.51099999109E-03 0.  1.
       11   -1    0    0    0    0 -0.00000000000E+00 -0.00000000000E+00 -0.34996269501E-01  0.35000000000E-01  0.51099999109E-03 0. -1.
       22    1    1    2    0    0 -0.50245715172E-05 -0.41731788473E-04  0.33323404732E-02  0.33326055599E-02  0.00000000000E+00 0.  1.
       22    1    1    2    0    0  0.11164301408E-01  0.12735481431E-01 -0.30374990718E-01  0.34777495228E-01  0.00000000000E+00 0. -1.
       22    1    1    2    0    0 -0.11159276836E-01 -0.12693749643E-01  0.27042650245E-01  0.31889899212E-01  0.00000000000E+00 0.  1.
</event>
<event>
 5   0  0.4146200E+04  0.9118800E+02  0.7546771E-02  0.1180000E+00
      -11   -1    0    0    0    0  0.00000000000E+00  0.00000000000E+00  0.34996269501E-01  0.35000000000E-01  0.51099999109E-03 0.  1.
       11   -1    0    0    0    0 -0.00000000000E+00 -0.00000000000E+00 -0.34996269501E-01  0.35000000000E-01  0.51099999109E-03 0.  1.
       22    1    1    2    0    0 -0.71252865486E-02 -0.63907338656E-02 -0.88460768276E-02  0.13033198494E-01  0.00000000000E+00 0. -1.
       22    1    1    2    0    0  0.71252865486E-02  0.63907338656E-02 -0.23110106230E-01  0.25013760167E-01  0.00000000000E+00 0.  1.
       22    1    1    2    0    0 -0.00000000000E+00  0.00000000000E+00  0.31956183058E-01  0.31953041339E-01  0.00000000000E+00 0.  1.
</event>
<event>
 5   0  0.4146200E+04  0.9118800E+02  0.7546771E-02  0.1180000E+00
      -11   -1    0    0    0    0  0.00000000000E+00  0.00000000000E+00  0.34996269501E-01  0.35000000000E-01  0.51099999109E-03 0.  1.
       11   -1    0    0    0    0 -0.00000000000E+00 -0.00000000000E+00 -0.34996269501E-01  0.35000000000E-01  0.51099999109E-03 0. -1.
       22    1    1    2    0    0 -0.27156911212E-02 -0.14630629424E-01 -0.27506705676E-01  0.31273777398E-01  0.00000000000E+00 0. -1.
       22    1    1    2    0    0  0.23909878105E-02  0.14816239565E-01  0.31406712414E-01  0.34808323175E-01  0.00000000000E+00 0.  1.
       22    1    1    2    0    0  0.32470331073E-03 -0.18561014130E-03 -0.39000067383E-02  0.39178994275E-02  0.00000000000E+00 0.  1.
</event>
<event>
 5   0  0.4146200E+04  0.9118800E+02  0.7546771E-02  0.1180000E+00
      -11   -1    0    0    0    0  0.00000000000E+00  0.00000000000E+00  0.34996269501E-01  0.35000000000E-01  0.51099999109E-03 0. -1.
       11   -1    0    0    0    0 -0.00000000000E+00 -0.00000000000E+00 -0.34996269501E-01  0.35000000000E-01  0.51099999109E-03 0.  1.
       22    1    1    2    0    0  0.73563221795E-02  0.51707115741E-02 -0.12586107942E-01  0.15468091263E-01  0.00000000000E+00 0. -1.
       22    1    1    2    0    0 -0.50858886672E-02 -0.47801075718E-02 -0.20350850446E-01  0.21514478981E-01  0.00000000000E+00 0.  1.
       22    1    1    2    0    0 -0.22704335123E-02 -0.39060400229E-03  0.32936958388E-01  0.33017429756E-01  0.00000000000E+00 0. -1.
</event>
<event>
 5   0  0.4146200E+04  0.9118800E+02  0.7546771E-02  0.1180000E+00
      -11   -1    0    0    0    0  0.00000000000E+00  0.00000000000E+00  0.34996269501E-01  0.35000000000E-01  0.51099999109E-03 0.  1.
       11   -1    0    0    0    0 -0.00000000000E+00 -0.00000000000E+00 -0.34996269501E-01  0.35000000000E-01  0.51099999109E-03 0. -1.
       22    1    1    2    0    0 -0.14616621339E-01  0.12049537668E-01  0.14451665479E-01  0.23826195929E-01  0.00000000000E+00 0.  1.
       22    1    1    2    0    0 -0.22291948063E-03  0.51813135846E-04  0.12836014921E-01  0.12838055022E-01  0.00000000000E+00 0. -1.
       22    1    1    2    0    0  0.14839540819E-01 -0.12101350803E-01 -0.27287680400E-01  0.33335749048E-01  0.00000000000E+00 0. -1.
</event>
<event>
 5   0  0.4146200E+04  0.9118800E+02  0.7546771E-02  0.1180000E+00
      -11   -1    0    0    0    0  0.00000000000E+00  0.00000000000E+00  0.34996269501E-01  0.35000000000E-01  0.51099999109E-03 0.  1.
       11   -1    0    0    0    0 -0.00000000000E+00 -0.00000000000E+00 -0.34996269501E-01  0.35000000000E-01  0.51099999109E-03 0. -1.
       22    1    1    2    0    0  0.13699255276E-01 -0.13928538743E-01  0.21942780518E-01  0.29379574597E-01  0.00000000000E+00 0.  1.
       22    1    1    2    0    0 -0.10938153280E-02  0.12844836422E-03  0.64964403242E-02  0.65891325560E-02  0.00000000000E+00 0.  1.
       22    1    1    2    0    0 -0.12605439948E-01  0.13800090379E-01 -0.28439220842E-01  0.34031292847E-01  0.00000000000E+00 0. -1.
</event>
<event>
 5   0  0.4146200E+04  0.9118800E+02  0.7546771E-02  0.1180000E+00
      -11   -1    0    0    0    0  0.00000000000E+00  0.00000000000E+00  0.34996269501E-01  0.35000000000E-01  0.51099999109E-03 0.  1.
       11   -1    0    0    0    0 -0.00000000000E+00 -0.00000000000E+00 -0.34996269501E-01  0.35000000000E-01  0.51099999109E-03 0. -1.
       22    1    1    2    0    0  0.56934597050E-02  0.84421352738E-02 -0.24825971862E-01  0.26833076795E-01  0.00000000000E+00 0. -1.
       22    1    1    2    0    0  0.32374360696E-02 -0.41871976785E-02 -0.76022833000E-02  0.92632784734E-02  0.00000000000E+00 0.  1.
       22    1    1    2    0    0 -0.89308957746E-02 -0.42549375953E-02  0.32428255162E-01  0.33903644732E-01  0.00000000000E+00 0.  1.
</event>
<event>
 5   0  0.4146200E+04  0.9118800E+02  0.7546771E-02  0.1180000E+00
      -11   -1    0    0    0    0  0.00000000000E+00  0.00000000000E+00  0.34996269501E-01  0.35000000000E-01  0.51099999109E-03 0. -1.
       11   -1    0    0    0    0 -0.00000000000E+00 -0.00000000000E+00 -0.34996269501E-01  0.35000000000E-01  0.51099999109E-03 0.  1.
       22    1    1    2    0    0 -0.15830671477E-02  0.15738199763E-02 -0.53366380920E-02  0.57846967973E-02  0.00000000000E+00 0.  1.
       22    1    1    2    0    0 -0.13685341591E-01  0.10124619839E-01  0.29056859700E-01  0.33676365555E-01  0.00000000000E+00 0. -1.
       22    1    1    2    0    0  0.15268408739E-01 -0.11698439816E-01 -0.23720221608E-01  0.30538937648E-01  0.00000000000E+00 0.  1.
</event>
<event>
 5   0  0.4146200E+04  0.9118800E+02  0.7546771E-02  0.1180000E+00
      -11   -1    0    0    0    0  0.00000000000E+00  0.00000000000E+00  0.34996269501E-01  0.35000000000E-01  0.51099999109E-03 0.  1.
       11   -1    0    0    0    0 -0.00000000000E+00 -0.00000000000E+00 -0.34996269501E-01  0.35000000000E-01  0.51099999109E-03 0. -1.
       22    1    1    2    0    0 -0.13582248104E-02 -0.94585276227E-03 -0.31218487328E-01  0.31262331377E-01  0.00000000000E+00 0. -1.
       22    1    1    2    0    0 -0.14274179678E-03  0.15540932928E-02  0.34785355891E-01  0.34820347007E-01  0.00000000000E+00 0.  1.
       22    1    1    2    0    0  0.15009666072E-02 -0.60824053050E-03 -0.35668685628E-02  0.39173216160E-02  0.00000000000E+00 0.  1.
</event>
<event>
 5   0  0.4146200E+04  0.9118800E+02  0.7546771E-02  0.1180000E+00
      -11   -1    0    0    0    0  0.00000000000E+00  0.00000000000E+00  0.34996269501E-01  0.35000000000E-01  0.51099999109E-03 0. -1.
       11   -1    0    0    0    0 -0.00000000000E+00 -0.00000000000E+00 -0.34996269501E-01  0.35000000000E-01  0.51099999109E-03 0.  1.
       22    1    1    2    0    0  0.11076581571E-01 -0.12169589984E-01 -0.30194796130E-01  0.34387720091E-01  0.00000000000E+00 0.  1.
       22    1    1    2    0    0  0.67522897146E-03 -0.16745194127E-03  0.58852667154E-02  0.59262415263E-02  0.00000000000E+00 0.  1.
       22    1    1    2    0    0 -0.11751810543E-01  0.12337041926E-01  0.24309529415E-01  0.29686038383E-01  0.00000000000E+00 0. -1.
</event>
<event>
 5   0  0.4146200E+04  0.9118800E+02  0.7546771E-02  0.1180000E+00
      -11   -1    0    0    0    0  0.00000000000E+00  0.00000000000E+00  0.34996269501E-01  0.35000000000E-01  0.51099999109E-03 0.  1.
       11   -1    0    0    0    0 -0.00000000000E+00 -0.00000000000E+00 -0.34996269501E-01  0.35000000000E-01  0.51099999109E-03 0.  1.
       22    1    1    2    0    0  0.23116590618E-03  0.31122730073E-03 -0.85364617091E-03  0.93755634178E-03  0.00000000000E+00 0.  1.
       22    1    1    2    0    0 -0.23116590618E-03 -0.31122730073E-03 -0.34104056256E-01  0.34106259737E-01  0.00000000000E+00 0.  1.
       22    1    1    2    0    0 -0.00000000000E+00 -0.00000000000E+00  0.34957702427E-01  0.34956183922E-01  0.00000000000E+00 0.  1.
</event>
<event>
 5   0  0.4146200E+04  0.9118800E+02  0.7546771E-02  0.1180000E+00
      -11   -1    0    0    0    0  0.00000000000E+00  0.00000000000E+00  0.34996269501E-01  0.35000000000E-01  0.51099999109E-03 0.  1.
       11   -1    0    0    0    0 -0.00000000000E+00 -0.00000000000E+00 -0.34996269501E-01  0.35000000000E-01  0.51099999109E-03 0. -1.
       22    1    1    2    0    0  0.10094149470E-02  0.10596620051E-01  0.31449785202E-01  0.33202353295E-01  0.00000000000E+00 0.  1.
       22    1    1    2    0    0  0.63741685933E-03  0.20914969368E-02 -0.18373441140E-01  0.18503080798E-01  0.00000000000E+00 0. -1.
       22    1    1    2    0    0 -0.16468318064E-02 -0.12688116988E-01 -0.13076344062E-01  0.18294565907E-01  0.00000000000E+00 0. -1.
</event>
<event>
 5   0  0.4146200E+04  0.9118800E+02  0.7546771E-02  0.1180000E+00
      -11   -1    0    0    0    0  0.00000000000E+00  0.00000000000E+00  0.34996269501E-01  0.35000000000E-01  0.51099999109E-03 0.  1.
       11   -1    0    0    0    0 -0.00000000000E+00 -0.00000000000E+00 -0.34996269501E-01  0.35000000000E-01  0.51099999109E-03 0. -1.
       22    1    1    2    0    0 -0.22635381884E-02 -0.10000219024E-01 -0.32663403164E-01  0.34234863690E-01  0.00000000000E+00 0. -1.
       22    1    1    2    0    0  0.22908188516E-03 -0.22267121578E-03 -0.72247386827E-03  0.78995535999E-03  0.00000000000E+00 0. -1.
       22    1    1    2    0    0  0.20344563032E-02  0.10222890240E-01  0.33385877032E-01  0.34975180950E-01  0.00000000000E+00 0.  1.
</event>
<event>
 5   0  0.4146200E+04  0.9118800E+02  0.7546771E-02  0.1180000E+00
      -11   -1    0    0    0    0  0.00000000000E+00  0.00000000000E+00  0.34996269501E-01  0.35000000000E-01  0.51099999109E-03 0.  1.
       11   -1    0    0    0    0 -0.00000000000E+00 -0.00000000000E+00 -0.34996269501E-01  0.35000000000E-01  0.51099999109E-03 0. -1.
       22    1    1    2    0    0  0.11925200871E-01  0.13877211054E-01 -0.29651108213E-01  0.34842152929E-01  0.00000000000E+00 0. -1.
       22    1    1    2    0    0 -0.20785700359E-03  0.37969767726E-03  0.80011279269E-03  0.90970068764E-03  0.00000000000E+00 0.  1.
       22    1    1    2    0    0 -0.11717343868E-01 -0.14256908732E-01  0.28850995421E-01  0.34248146383E-01  0.00000000000E+00 0.  1.
</event>
<event>
 5   0  0.4146200E+04  0.9118800E+02  0.7546771E-02  0.1180000E+00
      -11   -1    0    0    0    0  0.00000000000E+00  0.00000000000E+00  0.34996269501E-01  0.35000000000E-01  0.51099999109E-03 0. -1.
       11   -1    0    0    0    0 -0.00000000000E+00 -0.00000000000E+00 -0.34996269501E-01  0.35000000000E-01  0.51099999109E-03 0.  1.
       22    1    1    2    0    0 -0.38440915969E-03  0.15938716281E-03 -0.12037973789E-02  0.12736965098E-02  0.00000000000E+00 0. -1.
       22    1    1    2    0    0  0.14321332331E-02  0.47279906670E-03 -0.33733693387E-01  0.33767389803E-01  0.00000000000E+00 0.  1.
       22    1    1    2    0    0 -0.10477240734E-02 -0.63218622950E-03  0.34937490766E-01  0.34958913687E-01  0.00000000000E+00 0. -1.
</event>
<event>
 5   0  0.4146200E+04  0.9118800E+02  0.7546771E-02  0.1180000E+00
      -11   -1    0    0    0    0  0.00000000000E+00  0.00000000000E+00  0.34996269501E-01  0.35000000000E-01  0.51099999109E-03 0. -1.
       11   -1    0    0    0    0 -0.00000000000E+00 -0.00000000000E+00 -0.34996269501E-01  0.35000000000E-01  0.51099999109E-03 0.  1.
       22    1    1    2    0    0  0.94164605186E-04  0.89398843000E-05  0.10116122440E-02  0.10160247175E-02  0.00000000000E+00 0.  1.
       22    1    1    2    0    0 -0.10015900671E-01  0.79712924788E-02 -0.32547681342E-01  0.34974438248E-01  0.00000000000E+00 0.  1.
       22    1    1    2    0    0  0.99217360653E-02 -0.79802323631E-02  0.31536069098E-01  0.34009537034E-01  0.00000000000E+00 0. -1.
</event>
<event>
 5   0  0.4146200E+04  0.9118800E+02  0.7546771E-02  0.1180000E+00
      -11   -1    0    0    0    0  0.00000000000E+00  0.00000000000E+00  0.34996269501E-01  0.35000000000E-01  0.51099999109E-03 0. -1.
       11   -1    0    0    0    0 -0.00000000000E+00 -0.00000000000E+00 -0.34996269501E-01  0.35000000000E-01  0.51099999109E-03 0.  1.
       22    1    1    2    0    0 -0.19666391217E-01  0.42768030252E-02  0.26738371136E-01  0.33466378331E-01  0.00000000000E+00 0. -1.
       22    1    1    2    0    0  0.19607328668E-01 -0.48249034757E-02 -0.28363872742E-01  0.34817184090E-01  0.00000000000E+00 0.  1.
       22    1    1    2    0    0  0.59062548994E-04  0.54810045045E-03  0.16255016065E-02  0.17164375786E-02  0.00000000000E+00 0. -1.
</event>
<event>
 5   0  0.4146200E+04  0.9118800E+02  0.7546771E-02  0.1180000E+00
      -11   -1    0    0    0    0  0.00000000000E+00  0.00000000000E+00  0.34996269501E-01  0.35000000000E-01  0.51099999109E-03 0. -1.
       11   -1    0    0    0    0 -0.00000000000E+00 -0.00000000000E+00 -0.34996269501E-01  0.35000000000E-01  0.51099999109E-03 0.  1.
       22    1    1    2    0    0  0.22091187160E-03 -0.20295637663E-03 -0.53972801881E-03  0.61749468024E-03  0.00000000000E+00 0. -1.
       22    1    1    2    0    0  0.44414832966E-03  0.15149004282E-03  0.34956309981E-01  0.34959459728E-01  0.00000000000E+00 0. -1.
       22    1    1    2    0    0 -0.66506020125E-03  0.51466333809E-04 -0.34416581962E-01  0.34423045592E-01  0.00000000000E+00 0.  1.
</event>
<event>
 5   0  0.4146200E+04  0.9118800E+02  0.7546771E-02  0.1180000E+00
      -11   -1    0    0    0    0  0.00000000000E+00  0.00000000000E+00  0.34996269501E-01  0.35000000000E-01  0.51099999109E-03 0.  1.
       11   -1    0    0    0    0 -0.00000000000E+00 -0.00000000000E+00 -0.34996269501E-01  0.35000000000E-01  0.51099999109E-03 0. -1.
       22    1    1    2    0    0 -0.76636942224E-05  0.36975445689E-04  0.13967068896E-02  0.13972172527E-02  0.00000000000E+00 0.  1.
       22    1    1    2    0    0  0.96291579458E-02 -0.15487843569E-01 -0.29758821474E-01  0.34902456026E-01  0.00000000000E+00 0. -1.
       22    1    1    2    0    0 -0.96214942516E-02  0.15450868124E-01  0.28362114584E-01  0.33700326721E-01  0.00000000000E+00 0.  1.
</event>
<event>
 5   0  0.4146200E+04  0.9118800E+02  0.7546771E-02  0.1180000E+00
      -11   -1    0    0    0    0  0.00000000000E+00  0.00000000000E+00  0.34996269501E-01  0.35000000000E-01  0.51099999109E-03 0.  1.
       11   -1    0    0    0    0 -0.00000000000E+00 -0.00000000000E+00 -0.34996269501E-01  0.35000000000E-01  0.51099999109E-03 0. -1.
       22    1    1    2    0    0 -0.31136509458E-03 -0.10737253890E-02 -0.28802869116E-01  0.28824557303E-01  0.00000000000E+00 0. -1.
       22    1    1    2    0    0 -0.13180171945E-02 -0.88170747621E-03  0.34708471710E-01  0.34744677086E-01  0.00000000000E+00 0.  1.
       22    1    1    2    0    0  0.16293822891E-02  0.19554328652E-02 -0.59056025942E-02  0.64307656103E-02  0.00000000000E+00 0. -1.
</event>
<event>
 5   0  0.4146200E+04  0.9118800E+02  0.7546771E-02  0.1180000E+00
      -11   -1    0    0    0    0  0.00000000000E+00  0.00000000000E+00  0.34996269501E-01  0.35000000000E-01  0.51099999109E-03 0. -1.
       11   -1    0    0    0    0 -0.00000000000E+00 -0.00000000000E+00 -0.34996269501E-01  0.35000000000E-01  0.51099999109E-03 0.  1.
       22    1    1    2    0    0  0.14754589813E-01  0.16519739715E-01  0.26730928913E-01  0.34715159244E-01  0.00000000000E+00 0. -1.
       22    1    1    2    0    0 -0.14486318786E-03  0.44372009546E-03 -0.14144077604E-02  0.14894368664E-02  0.00000000000E+00 0. -1.
       22    1    1    2    0    0 -0.14609726625E-01 -0.16963459811E-01 -0.25316521152E-01  0.33795403890E-01  0.00000000000E+00 0.  1.
</event>
<event>
 5   0  0.4146200E+04  0.9118800E+02  0.7546771E-02  0.1180000E+00
      -11   -1    0    0    0    0  0.00000000000E+00  0.00000000000E+00  0.34996269501E-01  0.35000000000E-01  0.51099999109E-03 0. -1.
       11   -1    0    0    0    0 -0.00000000000E+00 -0.00000000000E+00 -0.34996269501E-01  0.35000000000E-01  0.51099999109E-03 0.  1.
       22    1    1    2    0    0  0.47589353888E-03 -0.28756310350E-03 -0.18715933871E-01  0.18724191514E-01  0.00000000000E+00 0. -1.
       22    1    1    2    0    0  0.74397365555E-02  0.74839583596E-02 -0.13612212866E-01  0.17223578370E-01  0.00000000000E+00 0.  1.
       22    1    1    2    0    0 -0.79156300944E-02 -0.71963952561E-02  0.32328146737E-01  0.34052230116E-01  0.00000000000E+00 0. -1.
</event>
<event>
 5   0  0.4146200E+04  0.9118800E+02  0.7546771E-02  0.1180000E+00
      -11   -1    0    0    0    0  0.00000000000E+00  0.00000000000E+00  0.34996269501E-01  0.35000000000E-01  0.51099999109E-03 0.  1.
       11   -1    0    0    0    0 -0.00000000000E+00 -0.00000000000E+00 -0.34996269501E-01  0.35000000000E-01  0.51099999109E-03 0. -1.
       22    1    1    2    0    0 -0.56584814248E-03 -0.14013428206E-02  0.11998660161E-02  0.19296694738E-02  0.00000000000E+00 0.  1.
       22    1    1    2    0    0 -0.13110273080E-01 -0.16876769997E-01  0.25284063332E-01  0.33105716792E-01  0.00000000000E+00 0.  1.
       22    1    1    2    0    0  0.13676121222E-01  0.18278112818E-01 -0.26483929348E-01  0.34964613734E-01  0.00000000000E+00 0. -1.
</event>
<event>
 5   0  0.4146200E+04  0.9118800E+02  0.7546771E-02  0.1180000E+00
      -11   -1    0    0    0    0  0.00000000000E+00  0.00000000000E+00  0.34996269501E-01  0.35000000000E-01  0.51099999109E-03 0. -1.
       11   -1    0    0    0    0 -0.00000000000E+00 -0.00000000000E+00 -0.34996269501E-01  0.35000000000E-01  0.51099999109E-03 0.  1.
       22    1    1    2    0    0  0.93955757589E-02 -0.15052086161E-01  0.28646984160E-01  0.33697059858E-01  0.00000000000E+00 0. -1.
       22    1    1    2    0    0 -0.96677688689E-02  0.15661879502E-01 -0.18369630184E-01  0.26003913889E-01  0.00000000000E+00 0.  1.
       22    1    1    2    0    0  0.27219311004E-03 -0.60979334086E-03 -0.10277353976E-01  0.10299026253E-01  0.00000000000E+00 0.  1.
</event>
<event>
 5   0  0.4146200E+04  0.9118800E+02  0.7546771E-02  0.1180000E+00
      -11   -1    0    0    0    0  0.00000000000E+00  0.00000000000E+00  0.34996269501E-01  0.35000000000E-01  0.51099999109E-03 0.  1.
       11   -1    0    0    0    0 -0.00000000000E+00 -0.00000000000E+00 -0.34996269501E-01  0.35000000000E-01  0.51099999109E-03 0. -1.
       22    1    1    2    0    0  0.47320901237E-02 -0.33017431648E-02  0.34208923283E-01  0.34692140566E-01  0.00000000000E+00 0.  1.
       22    1    1    2    0    0 -0.30698571451E-02  0.42507756754E-02 -0.31808292022E-01  0.32237564394E-01  0.00000000000E+00 0. -1.
       22    1    1    2    0    0 -0.16622329786E-02 -0.94903251065E-03 -0.24006312609E-02  0.30702950400E-02  0.00000000000E+00 0. -1.
</event>
<event>
 5   0  0.4146200E+04  0.9118800E+02  0.7546771E-02  0.1180000E+00
      -11   -1    0    0    0    0  0.00000000000E+00  0.00000000000E+00  0.34996269501E-01  0.35000000000E-01  0.51099999109E-03 0.  1.
       11   -1    0    0    0    0 -0.00000000000E+00 -0.00000000000E+00 -0.34996269501E-01  0.35000000000E-01  0.51099999109E-03 0. -1.
       22    1    1    2    0    0  0.25609066424E-01 -0.57673188324E-02 -0.11282000502E-01  0.28572185512E-01  0.00000000000E+00 0. -1.
       22    1    1    2    0    0 -0.28293889997E-01  0.43421023107E-02  0.18165838812E-01  0.33902739762E-01  0.00000000000E+00 0.  1.
       22    1    1    2    0    0  0.26848235736E-02  0.14252165216E-02 -0.68838383096E-02  0.75250747257E-02  0.00000000000E+00 0. -1.
</event>
<event>
 5   0  0.4146200E+04  0.9118800E+02  0.7546771E-02  0.1180000E+00
      -11   -1    0    0    0    0  0.00000000000E+00  0.00000000000E+00  0.34996269501E-01  0.35000000000E-01  0.51099999109E-03 0.  1.
       11   -1    0    0    0    0 -0.00000000000E+00 -0.00000000000E+00 -0.34996269501E-01  0.35000000000E-01  0.51099999109E-03 0. -1.
       22    1    1    2    0    0  0.16825952075E-01  0.12906219062E-02  0.30542009302E-01  0.34894020983E-01  0.00000000000E+00 0.  1.
       22    1    1    2    0    0 -0.36777893295E-03  0.36709898002E-03 -0.24599801981E-02  0.25142644212E-02  0.00000000000E+00 0. -1.
       22    1    1    2    0    0 -0.16458173142E-01 -0.16577208863E-02 -0.28082029104E-01  0.32591714596E-01  0.00000000000E+00 0. -1.
</event>
<event>
 5   0  0.4146200E+04  0.9118800E+02  0.7546771E-02  0.1180000E+00
      -11   -1    0    0    0    0  0.00000000000E+00  0.00000000000E+00  0.34996269501E-01  0.35000000000E-01  0.51099999109E-03 0.  1.
       11   -1    0    0    0    0 -0.00000000000E+00 -0.00000000000E+00 -0.34996269501E-01  0.35000000000E-01  0.51099999109E-03 0. -1.
       22    1    1    2    0    0  0.30122171981E-02 -0.22162962203E-01 -0.25605609250E-01  0.33998787789E-01  0.00000000000E+00 0. -1.
       22    1    1    2    0    0  0.33468230242E-03  0.12667575968E-01  0.21843934627E-01  0.25253454677E-01  0.00000000000E+00 0.  1.
       22    1    1    2    0    0 -0.33468995005E-02  0.94953862355E-02  0.37616746229E-02  0.10747757533E-01  0.00000000000E+00 0.  1.
</event>
<event>
 5   0  0.4146200E+04  0.9118800E+02  0.7546771E-02  0.1180000E+00
      -11   -1    0    0    0    0  0.00000000000E+00  0.00000000000E+00  0.34996269501E-01  0.35000000000E-01  0.51099999109E-03 0.  1.
       11   -1    0    0    0    0 -0.00000000000E+00 -0.00000000000E+00 -0.34996269501E-01  0.35000000000E-01  0.51099999109E-03 0. -1.
       22    1    1    2    0    0 -0.16634309156E-03 -0.25226384242E-03 -0.54277759179E-03  0.62122023828E-03  0.00000000000E+00 0.  1.
       22    1    1    2    0    0 -0.19434842979E-02 -0.20929718175E-01 -0.27222047752E-01  0.34392878884E-01  0.00000000000E+00 0. -1.
       22    1    1    2    0    0  0.21098273894E-02  0.21181982018E-01  0.27764825344E-01  0.34985900877E-01  0.00000000000E+00 0.  1.
</event>
<event>
 5   0  0.4146200E+04  0.9118800E+02  0.7546771E-02  0.1180000E+00
      -11   -1    0    0    0    0  0.00000000000E+00  0.00000000000E+00  0.34996269501E-01  0.35000000000E-01  0.51099999109E-03 0. -1.
       11   -1    0    0    0    0 -0.00000000000E+00 -0.00000000000E+00 -0.34996269501E-01  0.35000000000E-01  0.51099999109E-03 0.  1.
       22    1    1    2    0    0 -0.90702887134E-03  0.21235254641E-02  0.34765358702E-01  0.34841960729E-01  0.00000000000E+00 0. -1.
       22    1    1    2    0    0  0.46912277176E-04 -0.21486065101E-02 -0.33786320425E-01  0.33854603211E-01  0.00000000000E+00 0.  1.
       22    1    1    2    0    0  0.86011659416E-03  0.25081045969E-04 -0.97903827741E-03  0.13034360602E-02  0.00000000000E+00 0.  1.
</event>
<event>
 5   0  0.4146200E+04  0.9118800E+02  0.7546771E-02  0.1180000E+00
      -11   -1    0    0    0    0  0.00000000000E+00  0.00000000000E+00  0.34996269501E-01  0.35000000000E-01  0.51099999109E-03 0.  1.
       11   -1    0    0    0    0 -0.00000000000E+00 -0.00000000000E+00 -0.34996269501E-01  0.35000000000E-01  0.51099999109E-03 0. -1.
       22    1    1    2    0    0  0.62953639130E-02 -0.93323013293E-02  0.32739107913E-01  0.34620407881E-01  0.00000000000E+00 0.  1.
       22    1    1    2    0    0  0.95580797470E-03  0.11494332000E-03 -0.52374973381E-03  0.10959446313E-02  0.00000000000E+00 0.  1.
       22    1    1    2    0    0 -0.72511718877E-02  0.92173580093E-02 -0.32215358179E-01  0.34283647488E-01  0.00000000000E+00 0. -1.
</event>
<event>
 5   0  0.4146200E+04  0.9118800E+02  0.7546771E-02  0.1180000E+00
      -11   -1    0    0    0    0  0.00000000000E+00  0.00000000000E+00  0.34996269501E-01  0.35000000000E-01  0.51099999109E-03 0. -1.
       11   -1    0    0    0    0 -0.00000000000E+00 -0.00000000000E+00 -0.34996269501E-01  0.35000000000E-01  0.51099999109E-03 0.  1.
       22    1    1    2    0    0  0.11104955638E-02 -0.11062033923E-01  0.30967503445E-01  0.32902706036E-01  0.00000000000E+00 0. -1.
       22    1    1    2    0    0  0.17788782714E-02 -0.28219592220E-02 -0.16517195428E-01  0.16850685641E-01  0.00000000000E+00 0.  1.
       22    1    1    2    0    0 -0.28893738352E-02  0.13883993145E-01 -0.14450308017E-01  0.20246608323E-01  0.00000000000E+00 0.  1.
</event>
<event>
 5   0  0.4146200E+04  0.9118800E+02  0.7546771E-02  0.1180000E+00
      -11   -1    0    0    0    0  0.00000000000E+00  0.00000000000E+00  0.34996269501E-01  0.35000000000E-01  0.51099999109E-03 0.  1.
       11   -1    0    0    0    0 -0.00000000000E+00 -0.00000000000E+00 -0.34996269501E-01  0.35000000000E-01  0.51099999109E-03 0. -1.
       22    1    1    2    0    0 -0.11601427219E-03 -0.16167383439E-02 -0.17586647895E-02  0.23916948019E-02  0.00000000000E+00 0.  1.
       22    1    1    2    0    0  0.31458822153E-01  0.54754035179E-02 -0.10675603212E-01  0.33669066498E-01  0.00000000000E+00 0. -1.
       22    1    1    2    0    0 -0.31342807881E-01 -0.38586651740E-02  0.12434268001E-01  0.33939238700E-01  0.00000000000E+00 0.  1.
</event>
<event>
 5   0  0.4146200E+04  0.9118800E+02  0.7546771E-02  0.1180000E+00
      -11   -1    0    0    0    0  0.00000000000E+00  0.00000000000E+00  0.34996269501E-01  0.35000000000E-01  0.51099999109E-03 0.  1.
       11   -1    0    0    0    0 -0.00000000000E+00 -0.00000000000E+00 -0.34996269501E-01  0.35000000000E-01  0.51099999109E-03 0. -1.
       22    1    1    2    0    0  0.25510917708E-02  0.11022397870E-02  0.29414689036E-01  0.29545675367E-01  0.00000000000E+00 0.  1.
       22    1    1    2    0    0 -0.85160349643E-02 -0.96211518149E-02 -0.26815446939E-01  0.29734787847E-01  0.00000000000E+00 0. -1.
       22    1    1    2    0    0  0.59649431935E-02  0.85189120279E-02 -0.25992420977E-02  0.10719536787E-01  0.00000000000E+00 0.  1.
</event>
<event>
 5   0  0.4146200E+04  0.9118800E+02  0.7546771E-02  0.1180000E+00
      -11   -1    0    0    0    0  0.00000000000E+00  0.00000000000E+00  0.34996269501E-01  0.35000000000E-01  0.51099999109E-03 0. -1.
       11   -1    0    0    0    0 -0.00000000000E+00 -0.00000000000E+00 -0.34996269501E-01  0.35000000000E-01  0.51099999109E-03 0.  1.
       22    1    1    2    0    0 -0.70619418666E-02  0.85414395257E-02  0.20501620829E-01  0.23305442899E-01  0.00000000000E+00 0. -1.
       22    1    1    2    0    0  0.19339723709E-01  0.41617261657E-02 -0.20155900263E-03  0.19783465415E-01  0.00000000000E+00 0. -1.
       22    1    1    2    0    0 -0.12277781842E-01 -0.12703165691E-01 -0.20300061826E-01  0.26911091686E-01  0.00000000000E+00 0.  1.
</event>
<event>
 5   0  0.4146200E+04  0.9118800E+02  0.7546771E-02  0.1180000E+00
      -11   -1    0    0    0    0  0.00000000000E+00  0.00000000000E+00  0.34996269501E-01  0.35000000000E-01  0.51099999109E-03 0.  1.
       11   -1    0    0    0    0 -0.00000000000E+00 -0.00000000000E+00 -0.34996269501E-01  0.35000000000E-01  0.51099999109E-03 0.  1.
       22    1    1    2    0    0  0.10146924847E-02 -0.30234343477E-02 -0.67258913528E-02  0.74436799087E-02  0.00000000000E+00 0. -1.
       22    1    1    2    0    0 -0.10146924847E-02  0.30234343477E-02 -0.27824827008E-01  0.28006994735E-01  0.00000000000E+00 0.  1.
       22    1    1    2    0    0 -0.00000000000E+00  0.00000000000E+00  0.34550718361E-01  0.34549325356E-01  0.00000000000E+00 0.  1.
</event>
<event>
 5   0  0.4146200E+04  0.9118800E+02  0.7546771E-02  0.1180000E+00
      -11   -1    0    0    0    0  0.00000000000E+00  0.00000000000E+00  0.34996269501E-01  0.35000000000E-01  0.51099999109E-03 0.  1.
       11   -1    0    0    0    0 -0.00000000000E+00 -0.00000000000E+00 -0.34996269501E-01  0.35000000000E-01  0.51099999109E-03 0. -1.
       22    1    1    2    0    0 -0.24264732201E-02 -0.13299808645E-02 -0.25662881874E-01  0.25811627757E-01  0.00000000000E+00 0. -1.
       22    1    1    2    0    0 -0.22700719699E-02 -0.30544775588E-02 -0.85598632738E-02  0.93677275351E-02  0.00000000000E+00 0. -1.
       22    1    1    2    0    0  0.46965451901E-02  0.43844584233E-02  0.34222745148E-01  0.34820644708E-01  0.00000000000E+00 0.  1.
</event>
<event>
 5   0  0.4146200E+04  0.9118800E+02  0.7546771E-02  0.1180000E+00
      -11   -1    0    0    0    0  0.00000000000E+00  0.00000000000E+00  0.34996269501E-01  0.35000000000E-01  0.51099999109E-03 0.  1.
       11   -1    0    0    0    0 -0.00000000000E+00 -0.00000000000E+00 -0.34996269501E-01  0.35000000000E-01  0.51099999109E-03 0. -1.
       22    1    1    2    0    0 -0.81569620005E-02  0.37533954415E-02  0.32918993274E-01  0.34121607884E-01  0.00000000000E+00 0.  1.
       22    1    1    2    0    0  0.10784702448E-01 -0.24837068823E-02 -0.22752082186E-01  0.25300906122E-01  0.00000000000E+00 0. -1.
       22    1    1    2    0    0 -0.26277404472E-02 -0.12696885592E-02 -0.10166911088E-01  0.10577485994E-01  0.00000000000E+00 0. -1.
</event>
<event>
 5   0  0.4146200E+04  0.9118800E+02  0.7546771E-02  0.1180000E+00
      -11   -1    0    0    0    0  0.00000000000E+00  0.00000000000E+00  0.34996269501E-01  0.35000000000E-01  0.51099999109E-03 0. -1.
       11   -1    0    0    0    0 -0.00000000000E+00 -0.00000000000E+00 -0.34996269501E-01  0.35000000000E-01  0.51099999109E-03 0.  1.
       22    1    1    2    0    0 -0.59623147026E-02  0.15934289491E-01 -0.30500584509E-01  0.34924725247E-01  0.00000000000E+00 0.  1.
       22    1    1    2    0    0  0.56769742732E-02 -0.15967337264E-01  0.30324248760E-01  0.34738220436E-01  0.00000000000E+00 0. -1.
       22    1    1    2    0    0  0.28534042937E-03  0.33047773314E-04  0.17633574924E-03  0.33705431672E-03  0.00000000000E+00 0. -1.
</event>
<event>
 5   0  0.4146200E+04  0.9118800E+02  0.7546771E-02  0.1180000E+00
      -11   -1    0    0    0    0  0.00000000000E+00  0.00000000000E+00  0.34996269501E-01  0.35000000000E-01  0.51099999109E-03 0.  1.
       11   -1    0    0    0    0 -0.00000000000E+00 -0.00000000000E+00 -0.34996269501E-01  0.35000000000E-01  0.51099999109E-03 0. -1.
       22    1    1    2    0    0 -0.54769910349E-02 -0.10803854429E-01  0.32403104769E-01  0.34593090351E-01  0.00000000000E+00 0.  1.
       22    1    1    2    0    0  0.54754837929E-02  0.10804415346E-01 -0.32823186697E-01  0.34986824644E-01  0.00000000000E+00 0. -1.
       22    1    1    2    0    0  0.15072420887E-05 -0.56091628628E-06  0.42008192723E-03  0.42008500567E-03  0.00000000000E+00 0.  1.
</event>
<event>
 5   0  0.4146200E+04  0.9118800E+02  0.7546771E-02  0.1180000E+00
      -11   -1    0    0    0    0  0.00000000000E+00  0.00000000000E+00  0.34996269501E-01  0.35000000000E-01  0.51099999109E-03 0. -1.
       11   -1    0    0    0    0 -0.00000000000E+00 -0.00000000000E+00 -0.34996269501E-01  0.35000000000E-01  0.51099999109E-03 0.  1.
       22    1    1    2    0    0 -0.28197858926E-02 -0.34182390483E-02  0.12950876178E-01  0.13687978100E-01  0.00000000000E+00 0.  1.
       22    1    1    2    0    0  0.98902800038E-03  0.21514423751E-01  0.12597247805E-01  0.24950736622E-01  0.00000000000E+00 0. -1.
       22    1    1    2    0    0  0.18307578922E-02 -0.18096184703E-01 -0.25548123983E-01  0.31361285278E-01  0.00000000000E+00 0.  1.
</event>
<event>
 5   0  0.4146200E+04  0.9118800E+02  0.7546771E-02  0.1180000E+00
      -11   -1    0    0    0    0  0.00000000000E+00  0.00000000000E+00  0.34996269501E-01  0.35000000000E-01  0.51099999109E-03 0. -1.
       11   -1    0    0    0    0 -0.00000000000E+00 -0.00000000000E+00 -0.34996269501E-01  0.35000000000E-01  0.51099999109E-03 0.  1.
       22    1    1    2    0    0  0.62764519697E-02 -0.58164132438E-02  0.33841233265E-01  0.34906354453E-01  0.00000000000E+00 0. -1.
       22    1    1    2    0    0  0.25230795256E-04 -0.38841735465E-03 -0.80484718181E-03  0.89402663299E-03  0.00000000000E+00 0.  1.
       22    1    1    2    0    0 -0.63016827650E-02  0.62048305984E-02 -0.33036386083E-01  0.34199618914E-01  0.00000000000E+00 0.  1.
</event>
<event>
 5   0  0.4146200E+04  0.9118800E+02  0.7546771E-02  0.1180000E+00
      -11   -1    0    0    0    0  0.00000000000E+00  0.00000000000E+00  0.34996269501E-01  0.35000000000E-01  0.51099999109E-03 0.  1.
       11   -1    0    0    0    0 -0.00000000000E+00 -0.00000000000E+00 -0.34996269501E-01  0.35000000000E-01  0.51099999109E-03 0. -1.
       22    1    1    2    0    0 -0.36818834891E-02 -0.74342880373E-02 -0.21491851275E-01  0.23037460274E-01  0.00000000000E+00 0. -1.
       22    1    1    2    0    0  0.42170461351E-02  0.12129672359E-01  0.32520410022E-01  0.34964117287E-01  0.00000000000E+00 0.  1.
       22    1    1    2    0    0 -0.53516264600E-03 -0.46953843218E-02 -0.11028558747E-01  0.11998422439E-01  0.00000000000E+00 0. -1.
</event>
<event>
 5   0  0.4146200E+04  0.9118800E+02  0.7546771E-02  0.1180000E+00
      -11   -1    0    0    0    0  0.00000000000E+00  0.00000000000E+00  0.34996269501E-01  0.35000000000E-01  0.51099999109E-03 0.  1.
       11   -1    0    0    0    0 -0.00000000000E+00 -0.00000000000E+00 -0.34996269501E-01  0.35000000000E-01  0.51099999109E-03 0. -1.
       22    1    1    2    0    0  0.32451060363E-02  0.81993704545E-02  0.33285768388E-01  0.34434034997E-01  0.00000000000E+00 0.  1.
       22    1    1    2    0    0 -0.34590189362E-02 -0.80289431154E-02 -0.15635793217E-01  0.17913870857E-01  0.00000000000E+00 0. -1.
       22    1    1    2    0    0  0.21391289990E-03 -0.17042733905E-03 -0.17649975171E-01  0.17652094146E-01  0.00000000000E+00 0.  1.
</event>
<event>
 5   0  0.4146200E+04  0.9118800E+02  0.7546771E-02  0.1180000E+00
      -11   -1    0    0    0    0  0.00000000000E+00  0.00000000000E+00  0.34996269501E-01  0.35000000000E-01  0.51099999109E-03 0.  1.
       11   -1    0    0    0    0 -0.00000000000E+00 -0.00000000000E+00 -0.34996269501E-01  0.35000000000E-01  0.51099999109E-03 0. -1.
       22    1    1    2    0    0  0.17718791180E-02 -0.20272120084E-02  0.21916775804E-01  0.22081535403E-01  0.00000000000E+00 0.  1.
       22    1    1    2    0    0 -0.15518340443E-01  0.21623253632E-03  0.60864564961E-02  0.16670650836E-01  0.00000000000E+00 0.  1.
       22    1    1    2    0    0  0.13746461325E-01  0.18109794721E-02 -0.28003232300E-01  0.31247813761E-01  0.00000000000E+00 0. -1.
</event>
<event>
 5   0  0.4146200E+04  0.9118800E+02  0.7546771E-02  0.1180000E+00
      -11   -1    0    0    0    0  0.00000000000E+00  0.00000000000E+00  0.34996269501E-01  0.35000000000E-01  0.51099999109E-03 0.  1.
       11   -1    0    0    0    0 -0.00000000000E+00 -0.00000000000E+00 -0.34996269501E-01  0.35000000000E-01  0.51099999109E-03 0. -1.
       22    1    1    2    0    0  0.52297120387E-02  0.31945903840E-02 -0.30680667232E-01  0.31286716630E-01  0.00000000000E+00 0. -1.
       22    1    1    2    0    0 -0.27858996085E-02 -0.42718573875E-02  0.34040988816E-01  0.34420908206E-01  0.00000000000E+00 0.  1.
       22    1    1    2    0    0 -0.24438124302E-02  0.10772670035E-02 -0.33603215847E-02  0.42923751634E-02  0.00000000000E+00 0. -1.
</event>
<event>
 5   0  0.4146200E+04  0.9118800E+02  0.7546771E-02  0.1180000E+00
      -11   -1    0    0    0    0  0.00000000000E+00  0.00000000000E+00  0.34996269501E-01  0.35000000000E-01  0.51099999109E-03 0. -1.
       11   -1    0    0    0    0 -0.00000000000E+00 -0.00000000000E+00 -0.34996269501E-01  0.35000000000E-01  0.51099999109E-03 0.  1.
       22    1    1    2    0    0 -0.14666381412E-01 -0.92460579390E-03  0.31556486786E-01  0.34810479713E-01  0.00000000000E+00 0. -1.
       22    1    1    2    0    0 -0.36923183908E-03  0.25943332014E-03 -0.16349125012E-02  0.16960473711E-02  0.00000000000E+00 0. -1.
       22    1    1    2    0    0  0.15035613251E-01  0.66517247376E-03 -0.29921574285E-01  0.33493472915E-01  0.00000000000E+00 0.  1.
</event>
<event>
 5   0  0.4146200E+04  0.9118800E+02  0.7546771E-02  0.1180000E+00
      -11   -1    0    0    0    0  0.00000000000E+00  0.00000000000E+00  0.34996269501E-01  0.35000000000E-01  0.51099999109E-03 0.  1.
       11   -1    0    0    0    0 -0.00000000000E+00 -0.00000000000E+00 -0.34996269501E-01  0.35000000000E-01  0.51099999109E-03 0. -1.
       22    1    1    2    0    0  0.52203829298E-02  0.12614161488E-01 -0.31725751336E-01  0.34538279717E-01  0.00000000000E+00 0. -1.
       22    1    1    2    0    0  0.30623379852E-03 -0.27709720548E-03  0.90696256615E-02  0.90790237163E-02  0.00000000000E+00 0. -1.
       22    1    1    2    0    0 -0.55266167284E-02 -0.12337064282E-01  0.22656125674E-01  0.26382696567E-01  0.00000000000E+00 0.  1.
</event>
<event>
 5   0  0.4146200E+04  0.9118800E+02  0.7546771E-02  0.1180000E+00
      -11   -1    0    0    0    0  0.00000000000E+00  0.00000000000E+00  0.34996269501E-01  0.35000000000E-01  0.51099999109E-03 0.  1.
       11   -1    0    0    0    0 -0.00000000000E+00 -0.00000000000E+00 -0.34996269501E-01  0.35000000000E-01  0.51099999109E-03 0. -1.
       22    1    1    2    0    0  0.86036311581E-02 -0.20294451679E-01 -0.26838706444E-01  0.34730439123E-01  0.00000000000E+00 0. -1.
       22    1    1    2    0    0 -0.88634843697E-04  0.21864054958E-03  0.28135678980E-02  0.28234418964E-02  0.00000000000E+00 0. -1.
       22    1    1    2    0    0 -0.85149963144E-02  0.20075811129E-01  0.24025138546E-01  0.32446118981E-01  0.00000000000E+00 0.  1.
</event>
<event>
 5   0  0.4146200E+04  0.9118800E+02  0.7546771E-02  0.1180000E+00
      -11   -1    0    0    0    0  0.00000000000E+00  0.00000000000E+00  0.34996269501E-01  0.35000000000E-01  0.51099999109E-03 0. -1.
       11   -1    0    0    0    0 -0.00000000000E+00 -0.00000000000E+00 -0.34996269501E-01  0.35000000000E-01  0.51099999109E-03 0.  1.
       22    1    1    2    0    0 -0.56042549850E-02 -0.19474193440E-01 -0.28381678818E-01  0.34873651610E-01  0.00000000000E+00 0.  1.
       22    1    1    2    0    0 -0.16276375891E-03 -0.10105742665E-03  0.76054522501E-03  0.78430458623E-03  0.00000000000E+00 0.  1.
       22    1    1    2    0    0  0.57670187439E-02  0.19575250867E-01  0.27621133593E-01  0.34342043804E-01  0.00000000000E+00 0. -1.
</event>
<event>
 5   0  0.4146200E+04  0.9118800E+02  0.7546771E-02  0.1180000E+00
      -11   -1    0    0    0    0  0.00000000000E+00  0.00000000000E+00  0.34996269501E-01  0.35000000000E-01  0.51099999109E-03 0. -1.
       11   -1    0    0    0    0 -0.00000000000E+00 -0.00000000000E+00 -0.34996269501E-01  0.35000000000E-01  0.51099999109E-03 0. -1.
       22    1    1    2    0    0 -0.49739984259E-03 -0.12089976622E-02  0.34932674518E-01  0.34957128471E-01  0.00000000000E+00 0. -1.
       22    1    1    2    0    0  0.10547787834E-03  0.81875738884E-03 -0.33453427062E-01  0.33463611154E-01  0.00000000000E+00 0. -1.
       22    1    1    2    0    0  0.39192196425E-03  0.39024027339E-03 -0.14792474557E-02  0.15792603751E-02  0.00000000000E+00 0.  1.
</event>
<event>
 5   0  0.4146200E+04  0.9118800E+02  0.7546771E-02  0.1180000E+00
      -11   -1    0    0    0    0  0.00000000000E+00  0.00000000000E+00  0.34996269501E-01  0.35000000000E-01  0.51099999109E-03 0.  1.
       11   -1    0    0    0    0 -0.00000000000E+00 -0.00000000000E+00 -0.34996269501E-01  0.35000000000E-01  0.51099999109E-03 0. -1.
       22    1    1    2    0    0  0.10024025145E-02  0.30160636730E-04 -0.49564890541E-02  0.50569263598E-02  0.00000000000E+00 0. -1.
       22    1    1    2    0    0  0.17377833693E-01 -0.40348459061E-02 -0.24309154259E-01  0.30153010897E-01  0.00000000000E+00 0. -1.
       22    1    1    2    0    0 -0.18380236208E-01  0.40046852694E-02  0.29265643313E-01  0.34790062743E-01  0.00000000000E+00 0.  1.
</event>
<event>
 5   0  0.4146200E+04  0.9118800E+02  0.7546771E-02  0.1180000E+00
      -11   -1    0    0    0    0  0.00000000000E+00  0.00000000000E+00  0.34996269501E-01  0.35000000000E-01  0.51099999109E-03 0. -1.
       11   -1    0    0    0    0 -0.00000000000E+00 -0.00000000000E+00 -0.34996269501E-01  0.35000000000E-01  0.51099999109E-03 0.  1.
       22    1    1    2    0    0 -0.32928006039E-02 -0.28130192441E-02 -0.67931302132E-02  0.80561921016E-02  0.00000000000E+00 0.  1.
       22    1    1    2    0    0 -0.42100299203E-02 -0.15754597107E-02 -0.26835826562E-01  0.27209704381E-01  0.00000000000E+00 0.  1.
       22    1    1    2    0    0  0.75028305242E-02  0.43884789548E-02  0.33628956775E-01  0.34734103518E-01  0.00000000000E+00 0. -1.
</event>
<event>
 5   0  0.4146200E+04  0.9118800E+02  0.7546771E-02  0.1180000E+00
      -11   -1    0    0    0    0  0.00000000000E+00  0.00000000000E+00  0.34996269501E-01  0.35000000000E-01  0.51099999109E-03 0.  1.
       11   -1    0    0    0    0 -0.00000000000E+00 -0.00000000000E+00 -0.34996269501E-01  0.35000000000E-01  0.51099999109E-03 0. -1.
       22    1    1    2    0    0  0.34980022359E-02 -0.48827424282E-02 -0.11552807332E-01  0.13020927406E-01  0.00000000000E+00 0. -1.
       22    1    1    2    0    0 -0.62224876337E-03 -0.27027850809E-03 -0.22453902995E-01  0.22464149299E-01  0.00000000000E+00 0. -1.
       22    1    1    2    0    0 -0.28757534726E-02  0.51530209363E-02  0.34006710327E-01  0.34514923295E-01  0.00000000000E+00 0.  1.
</event>
<event>
 5   0  0.4146200E+04  0.9118800E+02  0.7546771E-02  0.1180000E+00
      -11   -1    0    0    0    0  0.00000000000E+00  0.00000000000E+00  0.34996269501E-01  0.35000000000E-01  0.51099999109E-03 0. -1.
       11   -1    0    0    0    0 -0.00000000000E+00 -0.00000000000E+00 -0.34996269501E-01  0.35000000000E-01  0.51099999109E-03 0.  1.
       22    1    1    2    0    0  0.84498433853E-02 -0.54725002421E-02 -0.16067147242E-01  0.18960520368E-01  0.00000000000E+00 0.  1.
       22    1    1    2    0    0 -0.79609485725E-02  0.34112516862E-02  0.32927011074E-01  0.34047046840E-01  0.00000000000E+00 0. -1.
       22    1    1    2    0    0 -0.48889481282E-03  0.20612485558E-02 -0.16859863832E-01  0.16992432792E-01  0.00000000000E+00 0.  1.
</event>
<event>
 5   0  0.4146200E+04  0.9118800E+02  0.7546771E-02  0.1180000E+00
      -11   -1    0    0    0    0  0.00000000000E+00  0.00000000000E+00  0.34996269501E-01  0.35000000000E-01  0.51099999109E-03 0. -1.
       11   -1    0    0    0    0 -0.00000000000E+00 -0.00000000000E+00 -0.34996269501E-01  0.35000000000E-01  0.51099999109E-03 0.  1.
       22    1    1    2    0    0 -0.20817304155E-01 -0.99004893148E-02  0.22214626971E-01  0.32013582936E-01  0.00000000000E+00 0. -1.
       22    1    1    2    0    0  0.12206996782E-02  0.96654547455E-03  0.38630390449E-02  0.41650196304E-02  0.00000000000E+00 0.  1.
       22    1    1    2    0    0  0.19596604476E-01  0.89339438402E-02 -0.26077666016E-01  0.33821397434E-01  0.00000000000E+00 0.  1.
</event>
<event>
 5   0  0.4146200E+04  0.9118800E+02  0.7546771E-02  0.1180000E+00
      -11   -1    0    0    0    0  0.00000000000E+00  0.00000000000E+00  0.34996269501E-01  0.35000000000E-01  0.51099999109E-03 0. -1.
       11   -1    0    0    0    0 -0.00000000000E+00 -0.00000000000E+00 -0.34996269501E-01  0.35000000000E-01  0.51099999109E-03 0.  1.
       22    1    1    2    0    0 -0.29281307261E-01 -0.14407640346E-01  0.11687864469E-01  0.34663831743E-01  0.00000000000E+00 0. -1.
       22    1    1    2    0    0 -0.29379913365E-03 -0.10950899078E-03 -0.40414181597E-03  0.51150831607E-03  0.00000000000E+00 0. -1.
       22    1    1    2    0    0  0.29575106394E-01  0.14517149337E-01 -0.11283722653E-01  0.34824659941E-01  0.00000000000E+00 0.  1.
</event>
<event>
 5   0  0.4146200E+04  0.9118800E+02  0.7546771E-02  0.1180000E+00
      -11   -1    0    0    0    0  0.00000000000E+00  0.00000000000E+00  0.34996269501E-01  0.35000000000E-01  0.51099999109E-03 0. -1.
       11   -1    0    0    0    0 -0.00000000000E+00 -0.00000000000E+00 -0.34996269501E-01  0.35000000000E-01  0.51099999109E-03 0.  1.
       22    1    1    2    0    0 -0.25281605021E-02  0.92237824039E-03  0.34514693284E-01  0.34619451608E-01  0.00000000000E+00 0. -1.
       22    1    1    2    0    0 -0.72431854032E-03 -0.16547931610E-02 -0.19984680616E-02  0.26938545519E-02  0.00000000000E+00 0. -1.
       22    1    1    2    0    0  0.32524790424E-02  0.73241492065E-03 -0.32516225222E-01  0.32686693841E-01  0.00000000000E+00 0.  1.
</event>
<event>
 5   0  0.4146200E+04  0.9118800E+02  0.7546771E-02  0.1180000E+00
      -11   -1    0    0    0    0  0.00000000000E+00  0.00000000000E+00  0.34996269501E-01  0.35000000000E-01  0.51099999109E-03 0. -1.
       11   -1    0    0    0    0 -0.00000000000E+00 -0.00000000000E+00 -0.34996269501E-01  0.35000000000E-01  0.51099999109E-03 0.  1.
       22    1    1    2    0    0 -0.12141412938E-01 -0.63020758664E-03 -0.32664227562E-01  0.34853447921E-01  0.00000000000E+00 0.  1.
       22    1    1    2    0    0  0.83424695165E-03  0.24727235654E-03  0.40274884560E-03  0.95881084019E-03  0.00000000000E+00 0. -1.
       22    1    1    2    0    0  0.11307165986E-01  0.38293523010E-03  0.32261478717E-01  0.34187741239E-01  0.00000000000E+00 0. -1.
</event>
<event>
 5   0  0.4146200E+04  0.9118800E+02  0.7546771E-02  0.1180000E+00
      -11   -1    0    0    0    0  0.00000000000E+00  0.00000000000E+00  0.34996269501E-01  0.35000000000E-01  0.51099999109E-03 0. -1.
       11   -1    0    0    0    0 -0.00000000000E+00 -0.00000000000E+00 -0.34996269501E-01  0.35000000000E-01  0.51099999109E-03 0.  1.
       22    1    1    2    0    0 -0.18560789819E-01  0.82965095400E-02  0.28470828579E-01  0.34984611892E-01  0.00000000000E+00 0. -1.
       22    1    1    2    0    0  0.18411684376E-01 -0.82513640628E-02 -0.27947588103E-01  0.34469447503E-01  0.00000000000E+00 0.  1.
       22    1    1    2    0    0  0.14910544369E-03 -0.45145477224E-04 -0.52324047647E-03  0.54594060452E-03  0.00000000000E+00 0.  1.
</event>
<event>
 5   0  0.4146200E+04  0.9118800E+02  0.7546771E-02  0.1180000E+00
      -11   -1    0    0    0    0  0.00000000000E+00  0.00000000000E+00  0.34996269501E-01  0.35000000000E-01  0.51099999109E-03 0. -1.
       11   -1    0    0    0    0 -0.00000000000E+00 -0.00000000000E+00 -0.34996269501E-01  0.35000000000E-01  0.51099999109E-03 0.  1.
       22    1    1    2    0    0 -0.32335385918E-02 -0.29397493557E-03 -0.31065384359E-01  0.31234600981E-01  0.00000000000E+00 0.  1.
       22    1    1    2    0    0  0.13094782003E-02  0.97291024845E-04 -0.37103889250E-02  0.39358842304E-02  0.00000000000E+00 0. -1.
       22    1    1    2    0    0  0.19240603915E-02  0.19668391073E-03  0.34775773284E-01  0.34829514789E-01  0.00000000000E+00 0. -1.
</event>
<event>
 5   0  0.4146200E+04  0.9118800E+02  0.7546771E-02  0.1180000E+00
      -11   -1    0    0    0    0  0.00000000000E+00  0.00000000000E+00  0.34996269501E-01  0.35000000000E-01  0.51099999109E-03 0.  1.
       11   -1    0    0    0    0 -0.00000000000E+00 -0.00000000000E+00 -0.34996269501E-01  0.35000000000E-01  0.51099999109E-03 0. -1.
       22    1    1    2    0    0  0.11280059606E-01  0.27547952177E-02  0.32898941171E-01  0.34887948801E-01  0.00000000000E+00 0.  1.
       22    1    1    2    0    0  0.32877223711E-03 -0.32929655864E-04 -0.12020240914E-02  0.12466103892E-02  0.00000000000E+00 0. -1.
       22    1    1    2    0    0 -0.11608831843E-01 -0.27218655619E-02 -0.31696917079E-01  0.33865440810E-01  0.00000000000E+00 0. -1.
</event>
<event>
 5   0  0.4146200E+04  0.9118800E+02  0.7546771E-02  0.1180000E+00
      -11   -1    0    0    0    0  0.00000000000E+00  0.00000000000E+00  0.34996269501E-01  0.35000000000E-01  0.51099999109E-03 0. -1.
       11   -1    0    0    0    0 -0.00000000000E+00 -0.00000000000E+00 -0.34996269501E-01  0.35000000000E-01  0.51099999109E-03 0.  1.
       22    1    1    2    0    0  0.20339016424E-03  0.11602666470E-02 -0.16938986514E-01  0.16979895475E-01  0.00000000000E+00 0.  1.
       22    1    1    2    0    0  0.58856646635E-02  0.62445371630E-02  0.33119303637E-01  0.34212915198E-01  0.00000000000E+00 0. -1.
       22    1    1    2    0    0 -0.60890548278E-02 -0.74048038100E-02 -0.16180317124E-01  0.18807189327E-01  0.00000000000E+00 0.  1.
</event>
<event>
 5   0  0.4146200E+04  0.9118800E+02  0.7546771E-02  0.1180000E+00
      -11   -1    0    0    0    0  0.00000000000E+00  0.00000000000E+00  0.34996269501E-01  0.35000000000E-01  0.51099999109E-03 0.  1.
       11   -1    0    0    0    0 -0.00000000000E+00 -0.00000000000E+00 -0.34996269501E-01  0.35000000000E-01  0.51099999109E-03 0. -1.
       22    1    1    2    0    0 -0.77608300177E-02 -0.95814771387E-02  0.32685237761E-01  0.34933650742E-01  0.00000000000E+00 0.  1.
       22    1    1    2    0    0  0.76112287741E-02  0.86066861478E-02 -0.27766134719E-01  0.30049360844E-01  0.00000000000E+00 0. -1.
       22    1    1    2    0    0  0.14960124362E-03  0.97479099084E-03 -0.49191030418E-02  0.50169884137E-02  0.00000000000E+00 0.  1.
</event>
<event>
 5   0  0.4146200E+04  0.9118800E+02  0.7546771E-02  0.1180000E+00
      -11   -1    0    0    0    0  0.00000000000E+00  0.00000000000E+00  0.34996269501E-01  0.35000000000E-01  0.51099999109E-03 0.  1.
       11   -1    0    0    0    0 -0.00000000000E+00 -0.00000000000E+00 -0.34996269501E-01  0.35000000000E-01  0.51099999109E-03 0.  1.
       22    1    1    2    0    0  0.84199175933E-04 -0.19068604516E-02 -0.30962922944E-01  0.31021698914E-01  0.00000000000E+00 0.  1.
       22    1    1    2    0    0 -0.22557827612E-02  0.39757319863E-03 -0.36257542406E-02  0.42886727699E-02  0.00000000000E+00 0. -1.
       22    1    1    2    0    0  0.21715835852E-02  0.15092872530E-02  0.34588677185E-01  0.34689628316E-01  0.00000000000E+00 0.  1.
</event>
<event>
 5   0  0.4146200E+04  0.9118800E+02  0.7546771E-02  0.1180000E+00
      -11   -1    0    0    0    0  0.00000000000E+00  0.00000000000E+00  0.34996269501E-01  0.35000000000E-01  0.51099999109E-03 0. -1.
       11   -1    0    0    0    0 -0.00000000000E+00 -0.00000000000E+00 -0.34996269501E-01  0.35000000000E-01  0.51099999109E-03 0.  1.
       22    1    1    2    0    0  0.13700538077E-01 -0.27681454324E-02  0.31802190199E-01  0.34738259516E-01  0.00000000000E+00 0. -1.
       22    1    1    2    0    0 -0.14221203145E-03  0.25308208677E-03  0.24104006717E-03  0.37732627594E-03  0.00000000000E+00 0. -1.
       22    1    1    2    0    0 -0.13558326046E-01  0.25150633456E-02 -0.32043230266E-01  0.34884414208E-01  0.00000000000E+00 0.  1.
</event>
<event>
 5   0  0.4146200E+04  0.9118800E+02  0.7546771E-02  0.1180000E+00
      -11   -1    0    0    0    0  0.00000000000E+00  0.00000000000E+00  0.34996269501E-01  0.35000000000E-01  0.51099999109E-03 0.  1.
       11   -1    0    0    0    0 -0.00000000000E+00 -0.00000000000E+00 -0.34996269501E-01  0.35000000000E-01  0.51099999109E-03 0. -1.
       22    1    1    2    0    0 -0.10843909667E-01  0.21167209288E-02  0.32779485195E-01  0.34591408384E-01  0.00000000000E+00 0.  1.
       22    1    1    2    0    0  0.11795397865E-01 -0.23402305141E-02 -0.31909081592E-01  0.34099817855E-01  0.00000000000E+00 0. -1.
       22    1    1    2    0    0 -0.95148819812E-03  0.22350958528E-03 -0.87040360286E-03  0.13087737611E-02  0.00000000000E+00 0.  1.
</event>
<event>
 5   0  0.4146200E+04  0.9118800E+02  0.7546771E-02  0.1180000E+00
      -11   -1    0    0    0    0  0.00000000000E+00  0.00000000000E+00  0.34996269501E-01  0.35000000000E-01  0.51099999109E-03 0. -1.
       11   -1    0    0    0    0 -0.00000000000E+00 -0.00000000000E+00 -0.34996269501E-01  0.35000000000E-01  0.51099999109E-03 0.  1.
       22    1    1    2    0    0 -0.94856125113E-02 -0.13720343802E-01  0.29347076264E-01  0.33756118912E-01  0.00000000000E+00 0. -1.
       22    1    1    2    0    0  0.32527036696E-02 -0.13775663856E-02 -0.12557082328E-02  0.37489429810E-02  0.00000000000E+00 0. -1.
       22    1    1    2    0    0  0.62329088417E-02  0.15097910188E-01 -0.28091368032E-01  0.32494938107E-01  0.00000000000E+00 0.  1.
</event>
<event>
 5   0  0.4146200E+04  0.9118800E+02  0.7546771E-02  0.1180000E+00
      -11   -1    0    0    0    0  0.00000000000E+00  0.00000000000E+00  0.34996269501E-01  0.35000000000E-01  0.51099999109E-03 0.  1.
       11   -1    0    0    0    0 -0.00000000000E+00 -0.00000000000E+00 -0.34996269501E-01  0.35000000000E-01  0.51099999109E-03 0. -1.
       22    1    1    2    0    0  0.72290168881E-03 -0.11506764679E-04 -0.14504030695E-02  0.16206135632E-02  0.00000000000E+00 0. -1.
       22    1    1    2    0    0  0.85607583998E-03  0.88828761884E-03  0.34879613360E-01  0.34901423307E-01  0.00000000000E+00 0.  1.
       22    1    1    2    0    0 -0.15789775288E-02 -0.87678085416E-03 -0.33429210290E-01  0.33477963130E-01  0.00000000000E+00 0. -1.
</event>
<event>
 5   0  0.4146200E+04  0.9118800E+02  0.7546771E-02  0.1180000E+00
      -11   -1    0    0    0    0  0.00000000000E+00  0.00000000000E+00  0.34996269501E-01  0.35000000000E-01  0.51099999109E-03 0. -1.
       11   -1    0    0    0    0 -0.00000000000E+00 -0.00000000000E+00 -0.34996269501E-01  0.35000000000E-01  0.51099999109E-03 0.  1.
       22    1    1    2    0    0  0.14992239062E-03 -0.56369619670E-03  0.34663082282E-01  0.34667989607E-01  0.00000000000E+00 0. -1.
       22    1    1    2    0    0  0.19704780194E-02  0.42325671803E-03 -0.31005317976E-02  0.36980031506E-02  0.00000000000E+00 0. -1.
       22    1    1    2    0    0 -0.21204004100E-02  0.14043947867E-03 -0.31562550484E-01  0.31634007242E-01  0.00000000000E+00 0.  1.
</event>
<event>
 5   0  0.4146200E+04  0.9118800E+02  0.7546771E-02  0.1180000E+00
      -11   -1    0    0    0    0  0.00000000000E+00  0.00000000000E+00  0.34996269501E-01  0.35000000000E-01  0.51099999109E-03 0.  1.
       11   -1    0    0    0    0 -0.00000000000E+00 -0.00000000000E+00 -0.34996269501E-01  0.35000000000E-01  0.51099999109E-03 0.  1.
       22    1    1    2    0    0  0.97630813228E-03  0.39237794594E-02  0.34460245402E-01  0.34696653095E-01  0.00000000000E+00 0.  1.
       22    1    1    2    0    0 -0.85244348783E-03 -0.40422201231E-02 -0.97069574295E-02  0.10549465672E-01  0.00000000000E+00 0. -1.
       22    1    1    2    0    0 -0.12386464444E-03  0.11844066373E-03 -0.24753287973E-01  0.24753881233E-01  0.00000000000E+00 0.  1.
</event>
<event>
 5   0  0.4146200E+04  0.9118800E+02  0.7546771E-02  0.1180000E+00
      -11   -1    0    0    0    0  0.00000000000E+00  0.00000000000E+00  0.34996269501E-01  0.35000000000E-01  0.51099999109E-03 0. -1.
       11   -1    0    0    0    0 -0.00000000000E+00 -0.00000000000E+00 -0.34996269501E-01  0.35000000000E-01  0.51099999109E-03 0.  1.
       22    1    1    2    0    0 -0.52298989359E-03 -0.95509746739E-05  0.16490360136E-02  0.17300085040E-02  0.00000000000E+00 0.  1.
       22    1    1    2    0    0 -0.26646459773E-02 -0.11610504856E-01 -0.32785934290E-01  0.34882970751E-01  0.00000000000E+00 0.  1.
       22    1    1    2    0    0  0.31876358709E-02  0.11620055831E-01  0.31136898276E-01  0.33387020745E-01  0.00000000000E+00 0. -1.
</event>
<event>
 5   0  0.4146200E+04  0.9118800E+02  0.7546771E-02  0.1180000E+00
      -11   -1    0    0    0    0  0.00000000000E+00  0.00000000000E+00  0.34996269501E-01  0.35000000000E-01  0.51099999109E-03 0.  1.
       11   -1    0    0    0    0 -0.00000000000E+00 -0.00000000000E+00 -0.34996269501E-01  0.35000000000E-01  0.51099999109E-03 0. -1.
       22    1    1    2    0    0  0.97197314329E-03  0.29525639738E-03  0.76104933646E-02  0.76779891498E-02  0.00000000000E+00 0.  1.
       22    1    1    2    0    0 -0.55025722871E-02 -0.14621846053E-01 -0.30889052619E-01  0.34615173775E-01  0.00000000000E+00 0. -1.
       22    1    1    2    0    0  0.45305991438E-02  0.14326589655E-01  0.23278559254E-01  0.27706837075E-01  0.00000000000E+00 0.  1.
</event>
<event>
 5   0  0.4146200E+04  0.9118800E+02  0.7546771E-02  0.1180000E+00
      -11   -1    0    0    0    0  0.00000000000E+00  0.00000000000E+00  0.34996269501E-01  0.35000000000E-01  0.51099999109E-03 0. -1.
       11   -1    0    0    0    0 -0.00000000000E+00 -0.00000000000E+00 -0.34996269501E-01  0.35000000000E-01  0.51099999109E-03 0.  1.
       22    1    1    2    0    0  0.15958769254E-01 -0.64160793748E-02  0.29520117056E-01  0.34165563096E-01  0.00000000000E+00 0. -1.
       22    1    1    2    0    0 -0.23677120186E-04 -0.26136690572E-04  0.89658481923E-03  0.89727814566E-03  0.00000000000E+00 0. -1.
       22    1    1    2    0    0 -0.15935092134E-01  0.64422160653E-02 -0.30416701875E-01  0.34937158759E-01  0.00000000000E+00 0.  1.
</event>
<event>
 5   0  0.4146200E+04  0.9118800E+02  0.7546771E-02  0.1180000E+00
      -11   -1    0    0    0    0  0.00000000000E+00  0.00000000000E+00  0.34996269501E-01  0.35000000000E-01  0.51099999109E-03 0.  1.
       11   -1    0    0    0    0 -0.00000000000E+00 -0.00000000000E+00 -0.34996269501E-01  0.35000000000E-01  0.51099999109E-03 0.  1.
       22    1    1    2    0    0 -0.51564522564E-02 -0.43989817301E-02 -0.67764534597E-02  0.95843811290E-02  0.00000000000E+00 0. -1.
       22    1    1    2    0    0 -0.95885337444E-04 -0.33249332350E-03  0.33129282754E-01  0.33131089955E-01  0.00000000000E+00 0.  1.
       22    1    1    2    0    0  0.52523375938E-02  0.47314750536E-02 -0.26352829294E-01  0.27284528916E-01  0.00000000000E+00 0.  1.
</event>
<event>
 5   0  0.4146200E+04  0.9118800E+02  0.7546771E-02  0.1180000E+00
      -11   -1    0    0    0    0  0.00000000000E+00  0.00000000000E+00  0.34996269501E-01  0.35000000000E-01  0.51099999109E-03 0.  1.
       11   -1    0    0    0    0 -0.00000000000E+00 -0.00000000000E+00 -0.34996269501E-01  0.35000000000E-01  0.51099999109E-03 0. -1.
       22    1    1    2    0    0 -0.16398672930E-02  0.41700888850E-03 -0.36100120119E-02  0.39868844827E-02  0.00000000000E+00 0. -1.
       22    1    1    2    0    0  0.19728629287E-02 -0.91420641656E-03  0.34774734699E-01  0.34842648219E-01  0.00000000000E+00 0.  1.
       22    1    1    2    0    0 -0.33299563561E-03  0.49719752806E-03 -0.31164722687E-01  0.31170467299E-01  0.00000000000E+00 0. -1.
</event>
<event>
 5   0  0.4146200E+04  0.9118800E+02  0.7546771E-02  0.1180000E+00
      -11   -1    0    0    0    0  0.00000000000E+00  0.00000000000E+00  0.34996269501E-01  0.35000000000E-01  0.51099999109E-03 0. -1.
       11   -1    0    0    0    0 -0.00000000000E+00 -0.00000000000E+00 -0.34996269501E-01  0.35000000000E-01  0.51099999109E-03 0.  1.
       22    1    1    2    0    0 -0.68405065360E-05 -0.14582791874E-03 -0.43846187319E-03  0.46212702653E-03  0.00000000000E+00 0.  1.
       22    1    1    2    0    0  0.12751962013E-01  0.78324518666E-02 -0.31183354640E-01  0.34588458249E-01  0.00000000000E+00 0.  1.
       22    1    1    2    0    0 -0.12745121507E-01 -0.76866239478E-02  0.31621816514E-01  0.34949414724E-01  0.00000000000E+00 0. -1.
</event>
<event>
 5   0  0.4146200E+04  0.9118800E+02  0.7546771E-02  0.1180000E+00
      -11   -1    0    0    0    0  0.00000000000E+00  0.00000000000E+00  0.34996269501E-01  0.35000000000E-01  0.51099999109E-03 0. -1.
       11   -1    0    0    0    0 -0.00000000000E+00 -0.00000000000E+00 -0.34996269501E-01  0.35000000000E-01  0.51099999109E-03 0.  1.
       22    1    1    2    0    0  0.19804722280E-02 -0.32432736656E-03  0.29786484422E-01  0.29854013343E-01  0.00000000000E+00 0. -1.
       22    1    1    2    0    0  0.10903618909E-01  0.55173418076E-02 -0.18857956251E-01  0.22471147721E-01  0.00000000000E+00 0.  1.
       22    1    1    2    0    0 -0.12884091137E-01 -0.51930144411E-02 -0.10928528171E-01  0.17674838935E-01  0.00000000000E+00 0. -1.
</event>
<event>
 5   0  0.4146200E+04  0.9118800E+02  0.7546771E-02  0.1180000E+00
      -11   -1    0    0    0    0  0.00000000000E+00  0.00000000000E+00  0.34996269501E-01  0.35000000000E-01  0.51099999109E-03 0. -1.
       11   -1    0    0    0    0 -0.00000000000E+00 -0.00000000000E+00 -0.34996269501E-01  0.35000000000E-01  0.51099999109E-03 0.  1.
       22    1    1    2    0    0  0.48891173887E-02  0.19791787241E-02  0.20431265992E-01  0.21101119574E-01  0.00000000000E+00 0. -1.
       22    1    1    2    0    0 -0.21116782792E-01 -0.13110546847E-02  0.19483057915E-02  0.21246959202E-01  0.00000000000E+00 0. -1.
       22    1    1    2    0    0  0.16227665403E-01 -0.66812403941E-03 -0.22379571783E-01  0.27651921224E-01  0.00000000000E+00 0.  1.
</event>
<event>
 5   0  0.4146200E+04  0.9118800E+02  0.7546771E-02  0.1180000E+00
      -11   -1    0    0    0    0  0.00000000000E+00  0.00000000000E+00  0.34996269501E-01  0.35000000000E-01  0.51099999109E-03 0. -1.
       11   -1    0    0    0    0 -0.00000000000E+00 -0.00000000000E+00 -0.34996269501E-01  0.35000000000E-01  0.51099999109E-03 0.  1.
       22    1    1    2    0    0 -0.86060022213E-02  0.14094447369E-01  0.28398523157E-01  0.32851070581E-01  0.00000000000E+00 0. -1.
       22    1    1    2    0    0  0.17281121439E-02 -0.72701381236E-03  0.22999145185E-02  0.29672423996E-02  0.00000000000E+00 0.  1.
       22    1    1    2    0    0  0.68778900774E-02 -0.13367433556E-01 -0.30698437675E-01  0.34181687019E-01  0.00000000000E+00 0.  1.
</event>
<event>
 5   0  0.4146200E+04  0.9118800E+02  0.7546771E-02  0.1180000E+00
      -11   -1    0    0    0    0  0.00000000000E+00  0.00000000000E+00  0.34996269501E-01  0.35000000000E-01  0.51099999109E-03 0. -1.
       11   -1    0    0    0    0 -0.00000000000E+00 -0.00000000000E+00 -0.34996269501E-01  0.35000000000E-01  0.51099999109E-03 0.  1.
       22    1    1    2    0    0 -0.10360839819E-02 -0.34322406858E-03 -0.11149794727E-02  0.15602730541E-02  0.00000000000E+00 0.  1.
       22    1    1    2    0    0 -0.60327687182E-02  0.10108863648E-02 -0.33016086255E-01  0.33577941290E-01  0.00000000000E+00 0.  1.
       22    1    1    2    0    0  0.70688527001E-02 -0.66766229621E-03  0.34131065728E-01  0.34861785656E-01  0.00000000000E+00 0. -1.
</event>
<event>
 5   0  0.4146200E+04  0.9118800E+02  0.7546771E-02  0.1180000E+00
      -11   -1    0    0    0    0  0.00000000000E+00  0.00000000000E+00  0.34996269501E-01  0.35000000000E-01  0.51099999109E-03 0.  1.
       11   -1    0    0    0    0 -0.00000000000E+00 -0.00000000000E+00 -0.34996269501E-01  0.35000000000E-01  0.51099999109E-03 0. -1.
       22    1    1    2    0    0  0.83081795659E-02  0.80899760805E-02  0.32701966322E-01  0.34697149191E-01  0.00000000000E+00 0.  1.
       22    1    1    2    0    0  0.62770251240E-03 -0.13900509116E-03 -0.61211439862E-02  0.61548140963E-02  0.00000000000E+00 0.  1.
       22    1    1    2    0    0 -0.89358820783E-02 -0.79509709893E-02 -0.26580822335E-01  0.29148036713E-01  0.00000000000E+00 0. -1.
</event>
<event>
 5   0  0.4146200E+04  0.9118800E+02  0.7546771E-02  0.1180000E+00
      -11   -1    0    0    0    0  0.00000000000E+00  0.00000000000E+00  0.34996269501E-01  0.35000000000E-01  0.51099999109E-03 0.  1.
       11   -1    0    0    0    0 -0.00000000000E+00 -0.00000000000E+00 -0.34996269501E-01  0.35000000000E-01  0.51099999109E-03 0. -1.
       22    1    1    2    0    0 -0.14300158418E-06 -0.44153289820E-04  0.64537009195E-03  0.64687872823E-03  0.00000000000E+00 0.  1.
       22    1    1    2    0    0  0.12658625936E-01  0.18040320123E-02 -0.32556759418E-01  0.34977677537E-01  0.00000000000E+00 0. -1.
       22    1    1    2    0    0 -0.12658482934E-01 -0.17598787225E-02  0.31911389326E-01  0.34375443735E-01  0.00000000000E+00 0.  1.
</event>
<event>
 5   0  0.4146200E+04  0.9118800E+02  0.7546771E-02  0.1180000E+00
      -11   -1    0    0    0    0  0.00000000000E+00  0.00000000000E+00  0.34996269501E-01  0.35000000000E-01  0.51099999109E-03 0. -1.
       11   -1    0    0    0    0 -0.00000000000E+00 -0.00000000000E+00 -0.34996269501E-01  0.35000000000E-01  0.51099999109E-03 0.  1.
       22    1    1    2    0    0  0.11635505056E-01 -0.40503304825E-02  0.28635571973E-01  0.31173484521E-01  0.00000000000E+00 0. -1.
       22    1    1    2    0    0  0.69733021096E-03 -0.99954411668E-03  0.36769673505E-02  0.38736864562E-02  0.00000000000E+00 0. -1.
       22    1    1    2    0    0 -0.12332835267E-01  0.50498745992E-02 -0.32312539324E-01  0.34952829023E-01  0.00000000000E+00 0.  1.
</event>
<event>
 5   0  0.4146200E+04  0.9118800E+02  0.7546771E-02  0.1180000E+00
      -11   -1    0    0    0    0  0.00000000000E+00  0.00000000000E+00  0.34996269501E-01  0.35000000000E-01  0.51099999109E-03 0. -1.
       11   -1    0    0    0    0 -0.00000000000E+00 -0.00000000000E+00 -0.34996269501E-01  0.35000000000E-01  0.51099999109E-03 0.  1.
       22    1    1    2    0    0  0.34203618424E-02  0.11073081659E-02 -0.11333082323E-01  0.11889649341E-01  0.00000000000E+00 0.  1.
       22    1    1    2    0    0 -0.94690102386E-02 -0.18872666227E-02 -0.22104462668E-01  0.24121177418E-01  0.00000000000E+00 0.  1.
       22    1    1    2    0    0  0.60486483962E-02  0.77995845680E-03  0.33437544991E-01  0.33989173241E-01  0.00000000000E+00 0. -1.
</event>
<event>
 5   0  0.4146200E+04  0.9118800E+02  0.7546771E-02  0.1180000E+00
      -11   -1    0    0    0    0  0.00000000000E+00  0.00000000000E+00  0.34996269501E-01  0.35000000000E-01  0.51099999109E-03 0. -1.
       11   -1    0    0    0    0 -0.00000000000E+00 -0.00000000000E+00 -0.34996269501E-01  0.35000000000E-01  0.51099999109E-03 0.  1.
       22    1    1    2    0    0 -0.45483496204E-02  0.58475757428E-02  0.26278939526E-01  0.27303191918E-01  0.00000000000E+00 0. -1.
       22    1    1    2    0    0  0.15846074050E-01  0.50695975003E-03 -0.25091131953E-01  0.29680296051E-01  0.00000000000E+00 0.  1.
       22    1    1    2    0    0 -0.11297724430E-01 -0.63545354928E-02 -0.11878075722E-02  0.13016512031E-01  0.00000000000E+00 0. -1.
</event>
<event>
 5   0  0.4146200E+04  0.9118800E+02  0.7546771E-02  0.1180000E+00
      -11   -1    0    0    0    0  0.00000000000E+00  0.00000000000E+00  0.34996269501E-01  0.35000000000E-01  0.51099999109E-03 0.  1.
       11   -1    0    0    0    0 -0.00000000000E+00 -0.00000000000E+00 -0.34996269501E-01  0.35000000000E-01  0.51099999109E-03 0. -1.
       22    1    1    2    0    0 -0.28760804718E-02  0.76696648508E-03 -0.32941267465E-01  0.33075476998E-01  0.00000000000E+00 0. -1.
       22    1    1    2    0    0  0.20450333054E-02  0.44305660174E-03  0.34626471856E-01  0.34689638418E-01  0.00000000000E+00 0.  1.
       22    1    1    2    0    0  0.83104716632E-03 -0.12100230868E-02 -0.16852043909E-02  0.22348845837E-02  0.00000000000E+00 0.  1.
</event>
<event>
 5   0  0.4146200E+04  0.9118800E+02  0.7546771E-02  0.1180000E+00
      -11   -1    0    0    0    0  0.00000000000E+00  0.00000000000E+00  0.34996269501E-01  0.35000000000E-01  0.51099999109E-03 0.  1.
       11   -1    0    0    0    0 -0.00000000000E+00 -0.00000000000E+00 -0.34996269501E-01  0.35000000000E-01  0.51099999109E-03 0. -1.
       22    1    1    2    0    0 -0.20518718351E-03  0.58401271330E-04  0.50184565840E-03  0.54530867738E-03  0.00000000000E+00 0.  1.
       22    1    1    2    0    0 -0.33239966678E-02 -0.18991117757E-01 -0.29141482099E-01  0.34941915896E-01  0.00000000000E+00 0. -1.
       22    1    1    2    0    0  0.35291838514E-02  0.18932716486E-01  0.28639636441E-01  0.34512775427E-01  0.00000000000E+00 0.  1.
</event>
<event>
 5   0  0.4146200E+04  0.9118800E+02  0.7546771E-02  0.1180000E+00
      -11   -1    0    0    0    0  0.00000000000E+00  0.00000000000E+00  0.34996269501E-01  0.35000000000E-01  0.51099999109E-03 0.  1.
       11   -1    0    0    0    0 -0.00000000000E+00 -0.00000000000E+00 -0.34996269501E-01  0.35000000000E-01  0.51099999109E-03 0. -1.
       22    1    1    2    0    0 -0.33724539845E-04  0.20210589169E-01 -0.28026877092E-01  0.34553941764E-01  0.00000000000E+00 0. -1.
       22    1    1    2    0    0  0.43255486695E-03  0.28008985918E-03  0.32537815252E-02  0.32943357838E-02  0.00000000000E+00 0. -1.
       22    1    1    2    0    0 -0.39883032711E-03 -0.20490679028E-01  0.24773095567E-01  0.32151722452E-01  0.00000000000E+00 0.  1.
</event>
<event>
 5   0  0.4146200E+04  0.9118800E+02  0.7546771E-02  0.1180000E+00
      -11   -1    0    0    0    0  0.00000000000E+00  0.00000000000E+00  0.34996269501E-01  0.35000000000E-01  0.51099999109E-03 0.  1.
       11   -1    0    0    0    0 -0.00000000000E+00 -0.00000000000E+00 -0.34996269501E-01  0.35000000000E-01  0.51099999109E-03 0. -1.
       22    1    1    2    0    0  0.25858003044E-02 -0.74272576582E-02 -0.95390510741E-02  0.12363009946E-01  0.00000000000E+00 0. -1.
       22    1    1    2    0    0 -0.54549468456E-02 -0.13513213496E-03 -0.23241422184E-01  0.23873382896E-01  0.00000000000E+00 0. -1.
       22    1    1    2    0    0  0.28691465412E-02  0.75623897932E-02  0.32780473258E-01  0.33763607157E-01  0.00000000000E+00 0.  1.
</event>
<event>
 5   0  0.4146200E+04  0.9118800E+02  0.7546771E-02  0.1180000E+00
      -11   -1    0    0    0    0  0.00000000000E+00  0.00000000000E+00  0.34996269501E-01  0.35000000000E-01  0.51099999109E-03 0. -1.
       11   -1    0    0    0    0 -0.00000000000E+00 -0.00000000000E+00 -0.34996269501E-01  0.35000000000E-01  0.51099999109E-03 0.  1.
       22    1    1    2    0    0 -0.50159692654E-04 -0.11909266625E-04  0.42756207346E-03  0.43065897421E-03  0.00000000000E+00 0.  1.
       22    1    1    2    0    0 -0.41080720399E-02 -0.12130368775E-01 -0.32549383000E-01  0.34978342387E-01  0.00000000000E+00 0.  1.
       22    1    1    2    0    0  0.41582317325E-02  0.12142278041E-01  0.32121820926E-01  0.34590998638E-01  0.00000000000E+00 0. -1.
</event>
<event>
 5   0  0.4146200E+04  0.9118800E+02  0.7546771E-02  0.1180000E+00
      -11   -1    0    0    0    0  0.00000000000E+00  0.00000000000E+00  0.34996269501E-01  0.35000000000E-01  0.51099999109E-03 0.  1.
       11   -1    0    0    0    0 -0.00000000000E+00 -0.00000000000E+00 -0.34996269501E-01  0.35000000000E-01  0.51099999109E-03 0. -1.
       22    1    1    2    0    0  0.18122518071E-02 -0.52554285312E-03 -0.30353476568E-01  0.30412069835E-01  0.00000000000E+00 0. -1.
       22    1    1    2    0    0  0.14968558316E-02  0.24748863599E-02 -0.40466736043E-02  0.49740533908E-02  0.00000000000E+00 0. -1.
       22    1    1    2    0    0 -0.33091076387E-02 -0.19493435068E-02  0.34400150172E-01  0.34613876774E-01  0.00000000000E+00 0.  1.
</event>
<event>
 5   0  0.4146200E+04  0.9118800E+02  0.7546771E-02  0.1180000E+00
      -11   -1    0    0    0    0  0.00000000000E+00  0.00000000000E+00  0.34996269501E-01  0.35000000000E-01  0.51099999109E-03 0.  1.
       11   -1    0    0    0    0 -0.00000000000E+00 -0.00000000000E+00 -0.34996269501E-01  0.35000000000E-01  0.51099999109E-03 0. -1.
       22    1    1    2    0    0  0.45872794861E-02  0.14947968426E-01  0.31049134469E-01  0.34763970493E-01  0.00000000000E+00 0.  1.
       22    1    1    2    0    0 -0.42697709739E-02 -0.13872462596E-01 -0.30854268323E-01  0.34097830377E-01  0.00000000000E+00 0. -1.
       22    1    1    2    0    0 -0.31750851227E-03 -0.10755058300E-02 -0.19486614637E-03  0.11381991305E-02  0.00000000000E+00 0. -1.
</event>
<event>
 5   0  0.4146200E+04  0.9118800E+02  0.7546771E-02  0.1180000E+00
      -11   -1    0    0    0    0  0.00000000000E+00  0.00000000000E+00  0.34996269501E-01  0.35000000000E-01  0.51099999109E-03 0.  1.
       11   -1    0    0    0    0 -0.00000000000E+00 -0.00000000000E+00 -0.34996269501E-01  0.35000000000E-01  0.51099999109E-03 0. -1.
       22    1    1    2    0    0  0.14094028279E-01  0.16631535265E-01 -0.27373393693E-01  0.34993603425E-01  0.00000000000E+00 0. -1.
       22    1    1    2    0    0 -0.26177552920E-03 -0.42903465831E-03  0.45632348051E-03  0.67884334318E-03  0.00000000000E+00 0.  1.
       22    1    1    2    0    0 -0.13832252750E-01 -0.16202500607E-01  0.26917070213E-01  0.34327553232E-01  0.00000000000E+00 0.  1.
</event>
<event>
 5   0  0.4146200E+04  0.9118800E+02  0.7546771E-02  0.1180000E+00
      -11   -1    0    0    0    0  0.00000000000E+00  0.00000000000E+00  0.34996269501E-01  0.35000000000E-01  0.51099999109E-03 0. -1.
       11   -1    0    0    0    0 -0.00000000000E+00 -0.00000000000E+00 -0.34996269501E-01  0.35000000000E-01  0.51099999109E-03 0.  1.
       22    1    1    2    0    0  0.13556155370E-02 -0.16168427794E-01  0.30955602316E-01  0.34950036703E-01  0.00000000000E+00 0. -1.
       22    1    1    2    0    0 -0.14242203856E-02  0.16182650927E-01 -0.30208332831E-01  0.34299416426E-01  0.00000000000E+00 0.  1.
       22    1    1    2    0    0  0.68604848615E-04 -0.14223132865E-04 -0.74726948487E-03  0.75054687114E-03  0.00000000000E+00 0.  1.
</event>
<event>
 5   0  0.4146200E+04  0.9118800E+02  0.7546771E-02  0.1180000E+00
      -11   -1    0    0    0    0  0.00000000000E+00  0.00000000000E+00  0.34996269501E-01  0.35000000000E-01  0.51099999109E-03 0. -1.
       11   -1    0    0    0    0 -0.00000000000E+00 -0.00000000000E+00 -0.34996269501E-01  0.35000000000E-01  0.51099999109E-03 0.  1.
       22    1    1    2    0    0  0.11505162406E-01 -0.97602114277E-02 -0.29132555996E-01  0.32807564798E-01  0.00000000000E+00 0.  1.
       22    1    1    2    0    0  0.35095156870E-03  0.23866332177E-02  0.20786688353E-01  0.20926194060E-01  0.00000000000E+00 0. -1.
       22    1    1    2    0    0 -0.11856113974E-01  0.73735782100E-02  0.83458676428E-02  0.16266241142E-01  0.00000000000E+00 0. -1.
</event>
<event>
 5   0  0.4146200E+04  0.9118800E+02  0.7546771E-02  0.1180000E+00
      -11   -1    0    0    0    0  0.00000000000E+00  0.00000000000E+00  0.34996269501E-01  0.35000000000E-01  0.51099999109E-03 0. -1.
       11   -1    0    0    0    0 -0.00000000000E+00 -0.00000000000E+00 -0.34996269501E-01  0.35000000000E-01  0.51099999109E-03 0.  1.
       22    1    1    2    0    0  0.17531820943E-01  0.55241620973E-02 -0.29303222260E-01  0.34591327631E-01  0.00000000000E+00 0.  1.
       22    1    1    2    0    0 -0.17495138862E-01 -0.58164957756E-02  0.29674023664E-01  0.34935071022E-01  0.00000000000E+00 0. -1.
       22    1    1    2    0    0 -0.36682080855E-04  0.29233367822E-03 -0.37080140444E-03  0.47360134714E-03  0.00000000000E+00 0.  1.
</event>
<event>
 5   0  0.4146200E+04  0.9118800E+02  0.7546771E-02  0.1180000E+00
      -11   -1    0    0    0    0  0.00000000000E+00  0.00000000000E+00  0.34996269501E-01  0.35000000000E-01  0.51099999109E-03 0. -1.
       11   -1    0    0    0    0 -0.00000000000E+00 -0.00000000000E+00 -0.34996269501E-01  0.35000000000E-01  0.51099999109E-03 0. -1.
       22    1    1    2    0    0  0.19558281572E-03 -0.21552152131E-03 -0.34604404486E-01  0.34605628328E-01  0.00000000000E+00 0. -1.
       22    1    1    2    0    0  0.00000000000E+00 -0.00000000000E+00  0.34945920694E-01  0.34945667444E-01  0.00000000000E+00 0. -1.
       22    1    1    2    0    0 -0.19558281572E-03  0.21552152131E-03 -0.34151620750E-03  0.44870422768E-03  0.00000000000E+00 0.  1.
</event>
<event>
 5   0  0.4146200E+04  0.9118800E+02  0.7546771E-02  0.1180000E+00
      -11   -1    0    0    0    0  0.00000000000E+00  0.00000000000E+00  0.34996269501E-01  0.35000000000E-01  0.51099999109E-03 0. -1.
       11   -1    0    0    0    0 -0.00000000000E+00 -0.00000000000E+00 -0.34996269501E-01  0.35000000000E-01  0.51099999109E-03 0.  1.
       22    1    1    2    0    0  0.10075417686E-01  0.54770801003E-02  0.32103483730E-01  0.34090264235E-01  0.00000000000E+00 0. -1.
       22    1    1    2    0    0  0.97966227565E-04  0.12959284337E-02  0.25117808177E-03  0.13236760615E-02  0.00000000000E+00 0. -1.
       22    1    1    2    0    0 -0.10173383913E-01 -0.67730085340E-02 -0.32354661812E-01  0.34586059704E-01  0.00000000000E+00 0.  1.
</event>
<event>
 5   0  0.4146200E+04  0.9118800E+02  0.7546771E-02  0.1180000E+00
      -11   -1    0    0    0    0  0.00000000000E+00  0.00000000000E+00  0.34996269501E-01  0.35000000000E-01  0.51099999109E-03 0.  1.
       11   -1    0    0    0    0 -0.00000000000E+00 -0.00000000000E+00 -0.34996269501E-01  0.35000000000E-01  0.51099999109E-03 0.  1.
       22    1    1    2    0    0 -0.30388638126E-02  0.59420300219E-02  0.33628963165E-01  0.34284830138E-01  0.00000000000E+00 0.  1.
       22    1    1    2    0    0  0.31831207679E-02 -0.58775372118E-02 -0.96677120296E-02  0.11753397695E-01  0.00000000000E+00 0. -1.
       22    1    1    2    0    0 -0.14425695524E-03 -0.64492810085E-04 -0.23961251135E-01  0.23961772167E-01  0.00000000000E+00 0.  1.
</event>
<event>
 5   0  0.4146200E+04  0.9118800E+02  0.7546771E-02  0.1180000E+00
      -11   -1    0    0    0    0  0.00000000000E+00  0.00000000000E+00  0.34996269501E-01  0.35000000000E-01  0.51099999109E-03 0.  1.
       11   -1    0    0    0    0 -0.00000000000E+00 -0.00000000000E+00 -0.34996269501E-01  0.35000000000E-01  0.51099999109E-03 0. -1.
       22    1    1    2    0    0  0.40072220018E-03 -0.13390795113E-03 -0.20060636922E-02  0.20500734520E-02  0.00000000000E+00 0.  1.
       22    1    1    2    0    0 -0.16859956959E-01  0.32314987900E-03 -0.28598328444E-01  0.33199803679E-01  0.00000000000E+00 0. -1.
       22    1    1    2    0    0  0.16459234759E-01 -0.18924192787E-03  0.30604392136E-01  0.34750122869E-01  0.00000000000E+00 0.  1.
</event>
<event>
 5   0  0.4146200E+04  0.9118800E+02  0.7546771E-02  0.1180000E+00
      -11   -1    0    0    0    0  0.00000000000E+00  0.00000000000E+00  0.34996269501E-01  0.35000000000E-01  0.51099999109E-03 0.  1.
       11   -1    0    0    0    0 -0.00000000000E+00 -0.00000000000E+00 -0.34996269501E-01  0.35000000000E-01  0.51099999109E-03 0. -1.
       22    1    1    2    0    0  0.43048776383E-05 -0.20325210980E-03 -0.22024445851E-02  0.22118074289E-02  0.00000000000E+00 0. -1.
       22    1    1    2    0    0  0.16723273644E-01 -0.51416252651E-02  0.30104874084E-01  0.34819644388E-01  0.00000000000E+00 0.  1.
       22    1    1    2    0    0 -0.16727578521E-01  0.53448773749E-02 -0.27902429499E-01  0.32968548183E-01  0.00000000000E+00 0. -1.
</event>
<event>
 5   0  0.4146200E+04  0.9118800E+02  0.7546771E-02  0.1180000E+00
      -11   -1    0    0    0    0  0.00000000000E+00  0.00000000000E+00  0.34996269501E-01  0.35000000000E-01  0.51099999109E-03 0. -1.
       11   -1    0    0    0    0 -0.00000000000E+00 -0.00000000000E+00 -0.34996269501E-01  0.35000000000E-01  0.51099999109E-03 0.  1.
       22    1    1    2    0    0 -0.76170275028E-02 -0.22216250963E-01 -0.25289853243E-01  0.34513150999E-01  0.00000000000E+00 0.  1.
       22    1    1    2    0    0  0.75096972506E-02  0.21976508075E-01  0.21375884611E-01  0.31564076145E-01  0.00000000000E+00 0. -1.
       22    1    1    2    0    0  0.10733025215E-03  0.23974288778E-03  0.39139686315E-02  0.39227728565E-02  0.00000000000E+00 0. -1.
</event>
<event>
 5   0  0.4146200E+04  0.9118800E+02  0.7546771E-02  0.1180000E+00
      -11   -1    0    0    0    0  0.00000000000E+00  0.00000000000E+00  0.34996269501E-01  0.35000000000E-01  0.51099999109E-03 0. -1.
       11   -1    0    0    0    0 -0.00000000000E+00 -0.00000000000E+00 -0.34996269501E-01  0.35000000000E-01  0.51099999109E-03 0.  1.
       22    1    1    2    0    0 -0.12466804180E-01 -0.67393981531E-03 -0.26078241558E-01  0.28912801388E-01  0.00000000000E+00 0. -1.
       22    1    1    2    0    0  0.21712454629E-01  0.80825297325E-03  0.13888094100E-01  0.25786878769E-01  0.00000000000E+00 0.  1.
       22    1    1    2    0    0 -0.92456504492E-02 -0.13431315794E-03  0.12190147458E-01  0.15300319843E-01  0.00000000000E+00 0.  1.
</event>
<event>
 5   0  0.4146200E+04  0.9118800E+02  0.7546771E-02  0.1180000E+00
      -11   -1    0    0    0    0  0.00000000000E+00  0.00000000000E+00  0.34996269501E-01  0.35000000000E-01  0.51099999109E-03 0.  1.
       11   -1    0    0    0    0 -0.00000000000E+00 -0.00000000000E+00 -0.34996269501E-01  0.35000000000E-01  0.51099999109E-03 0. -1.
       22    1    1    2    0    0  0.45787405329E-03  0.18893983309E-02 -0.21856640265E-02  0.29251669932E-02  0.00000000000E+00 0.  1.
       22    1    1    2    0    0 -0.23354258635E-02  0.21514291653E-02  0.34403809902E-01  0.34550036139E-01  0.00000000000E+00 0.  1.
       22    1    1    2    0    0  0.18775518102E-02 -0.40408274961E-02 -0.32218145876E-01  0.32524796868E-01  0.00000000000E+00 0. -1.
</event>
<event>
 5   0  0.4146200E+04  0.9118800E+02  0.7546771E-02  0.1180000E+00
      -11   -1    0    0    0    0  0.00000000000E+00  0.00000000000E+00  0.34996269501E-01  0.35000000000E-01  0.51099999109E-03 0.  1.
       11   -1    0    0    0    0 -0.00000000000E+00 -0.00000000000E+00 -0.34996269501E-01  0.35000000000E-01  0.51099999109E-03 0. -1.
       22    1    1    2    0    0  0.15824095797E-01  0.55007036074E-02 -0.27681243725E-01  0.32356004112E-01  0.00000000000E+00 0. -1.
       22    1    1    2    0    0  0.57360204088E-03 -0.91585074032E-04  0.17680623421E-01  0.17690162568E-01  0.00000000000E+00 0.  1.
       22    1    1    2    0    0 -0.16397697838E-01 -0.54091185333E-02  0.10000620303E-01  0.19953833319E-01  0.00000000000E+00 0.  1.
</event>
<event>
 5   0  0.4146200E+04  0.9118800E+02  0.7546771E-02  0.1180000E+00
      -11   -1    0    0    0    0  0.00000000000E+00  0.00000000000E+00  0.34996269501E-01  0.35000000000E-01  0.51099999109E-03 0. -1.
       11   -1    0    0    0    0 -0.00000000000E+00 -0.00000000000E+00 -0.34996269501E-01  0.35000000000E-01  0.51099999109E-03 0.  1.
       22    1    1    2    0    0  0.27252441617E-03 -0.51250626331E-03 -0.30755218812E-03  0.65690225738E-03  0.00000000000E+00 0.  1.
       22    1    1    2    0    0  0.10680716115E-01 -0.17123761911E-01 -0.27828781809E-01  0.34376474742E-01  0.00000000000E+00 0.  1.
       22    1    1    2    0    0 -0.10953240532E-01  0.17636268174E-01  0.28136333997E-01  0.34966623000E-01  0.00000000000E+00 0. -1.
</event>
<event>
 5   0  0.4146200E+04  0.9118800E+02  0.7546771E-02  0.1180000E+00
      -11   -1    0    0    0    0  0.00000000000E+00  0.00000000000E+00  0.34996269501E-01  0.35000000000E-01  0.51099999109E-03 0.  1.
       11   -1    0    0    0    0 -0.00000000000E+00 -0.00000000000E+00 -0.34996269501E-01  0.35000000000E-01  0.51099999109E-03 0. -1.
       22    1    1    2    0    0  0.14421620285E-04 -0.15057629407E-04  0.42018307896E-03  0.42070005370E-03  0.00000000000E+00 0.  1.
       22    1    1    2    0    0  0.10544024132E-01 -0.13935866838E-01  0.29865871664E-01  0.34602819533E-01  0.00000000000E+00 0.  1.
       22    1    1    2    0    0 -0.10558445752E-01  0.13950924468E-01 -0.30286054743E-01  0.34976480413E-01  0.00000000000E+00 0. -1.
</event>
<event>
 5   0  0.4146200E+04  0.9118800E+02  0.7546771E-02  0.1180000E+00
      -11   -1    0    0    0    0  0.00000000000E+00  0.00000000000E+00  0.34996269501E-01  0.35000000000E-01  0.51099999109E-03 0.  1.
       11   -1    0    0    0    0 -0.00000000000E+00 -0.00000000000E+00 -0.34996269501E-01  0.35000000000E-01  0.51099999109E-03 0. -1.
       22    1    1    2    0    0 -0.14417269641E-01  0.29063079183E-02  0.28731118513E-01  0.32276639550E-01  0.00000000000E+00 0.  1.
       22    1    1    2    0    0  0.14747507789E-01 -0.25674803864E-02 -0.31520332173E-01  0.34894301566E-01  0.00000000000E+00 0. -1.
       22    1    1    2    0    0 -0.33023814760E-03 -0.33882753191E-03  0.27892136599E-02  0.28290588843E-02  0.00000000000E+00 0.  1.
</event>
<event>
 5   0  0.4146200E+04  0.9118800E+02  0.7546771E-02  0.1180000E+00
      -11   -1    0    0    0    0  0.00000000000E+00  0.00000000000E+00  0.34996269501E-01  0.35000000000E-01  0.51099999109E-03 0. -1.
       11   -1    0    0    0    0 -0.00000000000E+00 -0.00000000000E+00 -0.34996269501E-01  0.35000000000E-01  0.51099999109E-03 0.  1.
       22    1    1    2    0    0  0.17807822126E-03  0.97883673430E-03 -0.32175966577E-02  0.33679016400E-02  0.00000000000E+00 0. -1.
       22    1    1    2    0    0  0.13468359130E-01 -0.10354315113E-01  0.30388121386E-01  0.34814457636E-01  0.00000000000E+00 0. -1.
       22    1    1    2    0    0 -0.13646437351E-01  0.93754783786E-02 -0.27170524729E-01  0.31817640724E-01  0.00000000000E+00 0.  1.
</event>
<event>
 5   0  0.4146200E+04  0.9118800E+02  0.7546771E-02  0.1180000E+00
      -11   -1    0    0    0    0  0.00000000000E+00  0.00000000000E+00  0.34996269501E-01  0.35000000000E-01  0.51099999109E-03 0.  1.
       11   -1    0    0    0    0 -0.00000000000E+00 -0.00000000000E+00 -0.34996269501E-01  0.35000000000E-01  0.51099999109E-03 0. -1.
       22    1    1    2    0    0  0.82393966034E-02 -0.11704815068E-01 -0.22084435914E-01  0.26317535253E-01  0.00000000000E+00 0. -1.
       22    1    1    2    0    0  0.68804556155E-02  0.87131190797E-03 -0.65484191149E-02  0.95384299978E-02  0.00000000000E+00 0. -1.
       22    1    1    2    0    0 -0.15119852219E-01  0.10833503161E-01  0.28632855029E-01  0.34144034749E-01  0.00000000000E+00 0.  1.
</event>
<event>
 5   0  0.4146200E+04  0.9118800E+02  0.7546771E-02  0.1180000E+00
      -11   -1    0    0    0    0  0.00000000000E+00  0.00000000000E+00  0.34996269501E-01  0.35000000000E-01  0.51099999109E-03 0.  1.
       11   -1    0    0    0    0 -0.00000000000E+00 -0.00000000000E+00 -0.34996269501E-01  0.35000000000E-01  0.51099999109E-03 0. -1.
       22    1    1    2    0    0 -0.17994965942E-01  0.10311843371E-01  0.28087130983E-01  0.34914751034E-01  0.00000000000E+00 0.  1.
       22    1    1    2    0    0  0.22570188695E-03 -0.35035944527E-04 -0.13913482723E-02  0.14099712316E-02  0.00000000000E+00 0. -1.
       22    1    1    2    0    0  0.17769264055E-01 -0.10276807426E-01 -0.26695782711E-01  0.33675277734E-01  0.00000000000E+00 0. -1.
</event>
<event>
 5   0  0.4146200E+04  0.9118800E+02  0.7546771E-02  0.1180000E+00
      -11   -1    0    0    0    0  0.00000000000E+00  0.00000000000E+00  0.34996269501E-01  0.35000000000E-01  0.51099999109E-03 0.  1.
       11   -1    0    0    0    0 -0.00000000000E+00 -0.00000000000E+00 -0.34996269501E-01  0.35000000000E-01  0.51099999109E-03 0. -1.
       22    1    1    2    0    0  0.48507236281E-02  0.14705116096E-01  0.28369430693E-01  0.32320188071E-01  0.00000000000E+00 0.  1.
       22    1    1    2    0    0 -0.56507536177E-04  0.19195862110E-05  0.28435077189E-02  0.28440697835E-02  0.00000000000E+00 0.  1.
       22    1    1    2    0    0 -0.47942160919E-02 -0.14707035682E-01 -0.31212938412E-01  0.34835742145E-01  0.00000000000E+00 0. -1.
</event>
<event>
 5   0  0.4146200E+04  0.9118800E+02  0.7546771E-02  0.1180000E+00
      -11   -1    0    0    0    0  0.00000000000E+00  0.00000000000E+00  0.34996269501E-01  0.35000000000E-01  0.51099999109E-03 0. -1.
       11   -1    0    0    0    0 -0.00000000000E+00 -0.00000000000E+00 -0.34996269501E-01  0.35000000000E-01  0.51099999109E-03 0.  1.
       22    1    1    2    0    0  0.14375607505E-01  0.84747505204E-02 -0.26821784832E-01  0.31589359428E-01  0.00000000000E+00 0.  1.
       22    1    1    2    0    0 -0.28275759661E-03  0.17687927921E-02  0.19384783252E-01  0.19467367606E-01  0.00000000000E+00 0.  1.
       22    1    1    2    0    0 -0.14092849909E-01 -0.10243543312E-01  0.74370015800E-02  0.18943272966E-01  0.00000000000E+00 0. -1.
</event>
<event>
 5   0  0.4146200E+04  0.9118800E+02  0.7546771E-02  0.1180000E+00
      -11   -1    0    0    0    0  0.00000000000E+00  0.00000000000E+00  0.34996269501E-01  0.35000000000E-01  0.51099999109E-03 0. -1.
       11   -1    0    0    0    0 -0.00000000000E+00 -0.00000000000E+00 -0.34996269501E-01  0.35000000000E-01  0.51099999109E-03 0.  1.
       22    1    1    2    0    0 -0.24546697776E-02  0.15710656113E-01  0.15695158479E-01  0.22342518187E-01  0.00000000000E+00 0. -1.
       22    1    1    2    0    0  0.11441136000E-02 -0.96824057880E-03  0.14210730917E-01  0.14289554190E-01  0.00000000000E+00 0. -1.
       22    1    1    2    0    0  0.13105561776E-02 -0.14742415534E-01 -0.29905889397E-01  0.33367927623E-01  0.00000000000E+00 0.  1.
</event>
<event>
 5   0  0.4146200E+04  0.9118800E+02  0.7546771E-02  0.1180000E+00
      -11   -1    0    0    0    0  0.00000000000E+00  0.00000000000E+00  0.34996269501E-01  0.35000000000E-01  0.51099999109E-03 0. -1.
       11   -1    0    0    0    0 -0.00000000000E+00 -0.00000000000E+00 -0.34996269501E-01  0.35000000000E-01  0.51099999109E-03 0. -1.
       22    1    1    2    0    0 -0.31881345570E-02  0.11177876977E-02 -0.28647452639E-01  0.28845973618E-01  0.00000000000E+00 0. -1.
       22    1    1    2    0    0  0.31881345570E-02 -0.11177876977E-02 -0.57979364116E-02  0.67104186102E-02  0.00000000000E+00 0.  1.
       22    1    1    2    0    0 -0.00000000000E+00 -0.00000000000E+00  0.34445389050E-01  0.34443607772E-01  0.00000000000E+00 0. -1.
</event>
<event>
 5   0  0.4146200E+04  0.9118800E+02  0.7546771E-02  0.1180000E+00
      -11   -1    0    0    0    0  0.00000000000E+00  0.00000000000E+00  0.34996269501E-01  0.35000000000E-01  0.51099999109E-03 0. -1.
       11   -1    0    0    0    0 -0.00000000000E+00 -0.00000000000E+00 -0.34996269501E-01  0.35000000000E-01  0.51099999109E-03 0.  1.
       22    1    1    2    0    0  0.43802080491E-02  0.12707664817E-01  0.32181174448E-01  0.34875477868E-01  0.00000000000E+00 0. -1.
       22    1    1    2    0    0 -0.33464407892E-02 -0.12505546845E-01 -0.30587614885E-01  0.33214297407E-01  0.00000000000E+00 0.  1.
       22    1    1    2    0    0 -0.10337672599E-02 -0.20211797180E-03 -0.15935595627E-02  0.19102247255E-02  0.00000000000E+00 0.  1.
</event>
<event>
 5   0  0.4146200E+04  0.9118800E+02  0.7546771E-02  0.1180000E+00
      -11   -1    0    0    0    0  0.00000000000E+00  0.00000000000E+00  0.34996269501E-01  0.35000000000E-01  0.51099999109E-03 0.  1.
       11   -1    0    0    0    0 -0.00000000000E+00 -0.00000000000E+00 -0.34996269501E-01  0.35000000000E-01  0.51099999109E-03 0. -1.
       22    1    1    2    0    0 -0.17909686850E-01 -0.87938949107E-02 -0.26363423116E-01  0.33062358493E-01  0.00000000000E+00 0. -1.
       22    1    1    2    0    0 -0.84837536788E-03 -0.38997244829E-03 -0.17093857160E-02  0.19477727797E-02  0.00000000000E+00 0.  1.
       22    1    1    2    0    0  0.18758062217E-01  0.91838673590E-02  0.28072808832E-01  0.34989868727E-01  0.00000000000E+00 0.  1.
</event>
<event>
 5   0  0.4146200E+04  0.9118800E+02  0.7546771E-02  0.1180000E+00
      -11   -1    0    0    0    0  0.00000000000E+00  0.00000000000E+00  0.34996269501E-01  0.35000000000E-01  0.51099999109E-03 0.  1.
       11   -1    0    0    0    0 -0.00000000000E+00 -0.00000000000E+00 -0.34996269501E-01  0.35000000000E-01  0.51099999109E-03 0. -1.
       22    1    1    2    0    0 -0.21974869003E-03  0.16603667119E-01  0.29995483561E-01  0.34284968796E-01  0.00000000000E+00 0.  1.
       22    1    1    2    0    0 -0.33579932497E-04  0.51234838104E-04  0.74728671431E-03  0.74979334078E-03  0.00000000000E+00 0.  1.
       22    1    1    2    0    0  0.25332862252E-03 -0.16654901957E-01 -0.30742770276E-01  0.34965237863E-01  0.00000000000E+00 0. -1.
</event>
<event>
 5   0  0.4146200E+04  0.9118800E+02  0.7546771E-02  0.1180000E+00
      -11   -1    0    0    0    0  0.00000000000E+00  0.00000000000E+00  0.34996269501E-01  0.35000000000E-01  0.51099999109E-03 0.  1.
       11   -1    0    0    0    0 -0.00000000000E+00 -0.00000000000E+00 -0.34996269501E-01  0.35000000000E-01  0.51099999109E-03 0. -1.
       22    1    1    2    0    0 -0.45119565659E-02 -0.10412643494E-01  0.32671003429E-01  0.34585768196E-01  0.00000000000E+00 0.  1.
       22    1    1    2    0    0  0.21425764588E-03 -0.77817010598E-03 -0.24531785067E-03  0.84358514717E-03  0.00000000000E+00 0.  1.
       22    1    1    2    0    0  0.42976989200E-02  0.11190813600E-01 -0.32425685579E-01  0.34570646657E-01  0.00000000000E+00 0. -1.
</event>
<event>
 5   0  0.4146200E+04  0.9118800E+02  0.7546771E-02  0.1180000E+00
      -11   -1    0    0    0    0  0.00000000000E+00  0.00000000000E+00  0.34996269501E-01  0.35000000000E-01  0.51099999109E-03 0.  1.
       11   -1    0    0    0    0 -0.00000000000E+00 -0.00000000000E+00 -0.34996269501E-01  0.35000000000E-01  0.51099999109E-03 0. -1.
       22    1    1    2    0    0 -0.11883137892E-03  0.14260404981E-03 -0.63481613566E-02  0.63508746973E-02  0.00000000000E+00 0. -1.
       22    1    1    2    0    0  0.65170437862E-02  0.83532063640E-02  0.33156535057E-01  0.34808098673E-01  0.00000000000E+00 0.  1.
       22    1    1    2    0    0 -0.63982124073E-02 -0.84958104138E-02 -0.26808373700E-01  0.28841026630E-01  0.00000000000E+00 0. -1.
</event>
<event>
 5   0  0.4146200E+04  0.9118800E+02  0.7546771E-02  0.1180000E+00
      -11   -1    0    0    0    0  0.00000000000E+00  0.00000000000E+00  0.34996269501E-01  0.35000000000E-01  0.51099999109E-03 0. -1.
       11   -1    0    0    0    0 -0.00000000000E+00 -0.00000000000E+00 -0.34996269501E-01  0.35000000000E-01  0.51099999109E-03 0.  1.
       22    1    1    2    0    0  0.49134536709E-02  0.20241843473E-02  0.34254211167E-01  0.34663963015E-01  0.00000000000E+00 0. -1.
       22    1    1    2    0    0  0.74172385357E-03 -0.25362532798E-03 -0.18301093587E-01  0.18317873965E-01  0.00000000000E+00 0. -1.
       22    1    1    2    0    0 -0.56551775244E-02 -0.17705590194E-02 -0.15953117580E-01  0.17018163020E-01  0.00000000000E+00 0.  1.
</event>
<event>
 5   0  0.4146200E+04  0.9118800E+02  0.7546771E-02  0.1180000E+00
      -11   -1    0    0    0    0  0.00000000000E+00  0.00000000000E+00  0.34996269501E-01  0.35000000000E-01  0.51099999109E-03 0.  1.
       11   -1    0    0    0    0 -0.00000000000E+00 -0.00000000000E+00 -0.34996269501E-01  0.35000000000E-01  0.51099999109E-03 0. -1.
       22    1    1    2    0    0  0.94903439886E-04 -0.19662316519E-03  0.49376215979E-02  0.49424461935E-02  0.00000000000E+00 0.  1.
       22    1    1    2    0    0 -0.95968308696E-02  0.90067555254E-02  0.27303427956E-01  0.30310031112E-01  0.00000000000E+00 0.  1.
       22    1    1    2    0    0  0.95019274297E-02 -0.88101323602E-02 -0.32241049554E-01  0.34747522695E-01  0.00000000000E+00 0. -1.
</event>
<event>
 5   0  0.4146200E+04  0.9118800E+02  0.7546771E-02  0.1180000E+00
      -11   -1    0    0    0    0  0.00000000000E+00  0.00000000000E+00  0.34996269501E-01  0.35000000000E-01  0.51099999109E-03 0. -1.
       11   -1    0    0    0    0 -0.00000000000E+00 -0.00000000000E+00 -0.34996269501E-01  0.35000000000E-01  0.51099999109E-03 0.  1.
       22    1    1    2    0    0  0.16739777812E-01 -0.14382117368E-01  0.22165004926E-01  0.31278633355E-01  0.00000000000E+00 0. -1.
       22    1    1    2    0    0 -0.14701126493E-01  0.17729596753E-01 -0.24917924451E-01  0.33931765061E-01  0.00000000000E+00 0.  1.
       22    1    1    2    0    0 -0.20386513182E-02 -0.33474793845E-02  0.27529195251E-02  0.47896015846E-02  0.00000000000E+00 0. -1.
</event>
<event>
 5   0  0.4146200E+04  0.9118800E+02  0.7546771E-02  0.1180000E+00
      -11   -1    0    0    0    0  0.00000000000E+00  0.00000000000E+00  0.34996269501E-01  0.35000000000E-01  0.51099999109E-03 0.  1.
       11   -1    0    0    0    0 -0.00000000000E+00 -0.00000000000E+00 -0.34996269501E-01  0.35000000000E-01  0.51099999109E-03 0. -1.
       22    1    1    2    0    0  0.17570038720E-02 -0.21999734871E-01 -0.26577490749E-01  0.34546177958E-01  0.00000000000E+00 0. -1.
       22    1    1    2    0    0 -0.15515302032E-02  0.22036460321E-01  0.27057595438E-01  0.34930306331E-01  0.00000000000E+00 0.  1.
       22    1    1    2    0    0 -0.20547366881E-03 -0.36725450830E-04 -0.48010468939E-03  0.52351571140E-03  0.00000000000E+00 0.  1.
</event>
<event>
 5   0  0.4146200E+04  0.9118800E+02  0.7546771E-02  0.1180000E+00
      -11   -1    0    0    0    0  0.00000000000E+00  0.00000000000E+00  0.34996269501E-01  0.35000000000E-01  0.51099999109E-03 0.  1.
       11   -1    0    0    0    0 -0.00000000000E+00 -0.00000000000E+00 -0.34996269501E-01  0.35000000000E-01  0.51099999109E-03 0. -1.
       22    1    1    2    0    0 -0.47585753975E-02  0.19481220940E-01  0.28649043926E-01  0.34970412165E-01  0.00000000000E+00 0.  1.
       22    1    1    2    0    0  0.47728631535E-02 -0.19435688318E-01 -0.28210280621E-01  0.34588236957E-01  0.00000000000E+00 0. -1.
       22    1    1    2    0    0 -0.14287755947E-04 -0.45532622749E-04 -0.43876330497E-03  0.44135087798E-03  0.00000000000E+00 0.  1.
</event>
<event>
 5   0  0.4146200E+04  0.9118800E+02  0.7546771E-02  0.1180000E+00
      -11   -1    0    0    0    0  0.00000000000E+00  0.00000000000E+00  0.34996269501E-01  0.35000000000E-01  0.51099999109E-03 0.  1.
       11   -1    0    0    0    0 -0.00000000000E+00 -0.00000000000E+00 -0.34996269501E-01  0.35000000000E-01  0.51099999109E-03 0. -1.
       22    1    1    2    0    0  0.24591784342E-01  0.16435884785E-02 -0.21919536121E-01  0.32983682389E-01  0.00000000000E+00 0. -1.
       22    1    1    2    0    0 -0.24031942676E-01 -0.23746327170E-02  0.24424676974E-01  0.34347314227E-01  0.00000000000E+00 0.  1.
       22    1    1    2    0    0 -0.55984166649E-03  0.73104423850E-03 -0.25051408531E-02  0.26690033841E-02  0.00000000000E+00 0.  1.
</event>
<event>
 5   0  0.4146200E+04  0.9118800E+02  0.7546771E-02  0.1180000E+00
      -11   -1    0    0    0    0  0.00000000000E+00  0.00000000000E+00  0.34996269501E-01  0.35000000000E-01  0.51099999109E-03 0.  1.
       11   -1    0    0    0    0 -0.00000000000E+00 -0.00000000000E+00 -0.34996269501E-01  0.35000000000E-01  0.51099999109E-03 0. -1.
       22    1    1    2    0    0  0.13056324948E-02  0.25195690429E-03  0.34956018566E-01  0.34981300611E-01  0.00000000000E+00 0.  1.
       22    1    1    2    0    0 -0.12639758800E-02 -0.39674885803E-04 -0.34382327979E-01  0.34405576384E-01  0.00000000000E+00 0. -1.
       22    1    1    2    0    0 -0.41656614820E-04 -0.21228201848E-03 -0.57369058700E-03  0.61312300441E-03  0.00000000000E+00 0. -1.
</event>
<event>
 5   0  0.4146200E+04  0.9118800E+02  0.7546771E-02  0.1180000E+00
      -11   -1    0    0    0    0  0.00000000000E+00  0.00000000000E+00  0.34996269501E-01  0.35000000000E-01  0.51099999109E-03 0.  1.
       11   -1    0    0    0    0 -0.00000000000E+00 -0.00000000000E+00 -0.34996269501E-01  0.35000000000E-01  0.51099999109E-03 0. -1.
       22    1    1    2    0    0  0.18624958776E-01  0.27869550224E-01 -0.92147553114E-02  0.34763668312E-01  0.00000000000E+00 0. -1.
       22    1    1    2    0    0 -0.18290645803E-01 -0.27943262118E-01  0.95716759877E-02  0.34741770290E-01  0.00000000000E+00 0.  1.
       22    1    1    2    0    0 -0.33431297218E-03  0.73711893691E-04 -0.35692067634E-03  0.49456139744E-03  0.00000000000E+00 0. -1.
</event>
<event>
 5   0  0.4146200E+04  0.9118800E+02  0.7546771E-02  0.1180000E+00
      -11   -1    0    0    0    0  0.00000000000E+00  0.00000000000E+00  0.34996269501E-01  0.35000000000E-01  0.51099999109E-03 0.  1.
       11   -1    0    0    0    0 -0.00000000000E+00 -0.00000000000E+00 -0.34996269501E-01  0.35000000000E-01  0.51099999109E-03 0. -1.
       22    1    1    2    0    0 -0.77807852803E-05 -0.25030525061E-04  0.46076246765E-03  0.46150744241E-03  0.00000000000E+00 0. -1.
       22    1    1    2    0    0  0.13299652604E-01 -0.10055626224E-01 -0.30738453573E-01  0.34969256587E-01  0.00000000000E+00 0. -1.
       22    1    1    2    0    0 -0.13291871818E-01  0.10080656750E-01  0.30277691106E-01  0.34569235971E-01  0.00000000000E+00 0.  1.
</event>
<event>
 5   0  0.4146200E+04  0.9118800E+02  0.7546771E-02  0.1180000E+00
      -11   -1    0    0    0    0  0.00000000000E+00  0.00000000000E+00  0.34996269501E-01  0.35000000000E-01  0.51099999109E-03 0.  1.
       11   -1    0    0    0    0 -0.00000000000E+00 -0.00000000000E+00 -0.34996269501E-01  0.35000000000E-01  0.51099999109E-03 0. -1.
       22    1    1    2    0    0  0.93065520083E-02  0.10072334272E-01 -0.26511644162E-01  0.29848469042E-01  0.00000000000E+00 0. -1.
       22    1    1    2    0    0 -0.64109672010E-03 -0.82337393262E-03 -0.55648763538E-02  0.56618723468E-02  0.00000000000E+00 0.  1.
       22    1    1    2    0    0 -0.86654552882E-02 -0.92489603394E-02  0.32076520516E-01  0.34489658611E-01  0.00000000000E+00 0.  1.
</event>
<event>
 5   0  0.4146200E+04  0.9118800E+02  0.7546771E-02  0.1180000E+00
      -11   -1    0    0    0    0  0.00000000000E+00  0.00000000000E+00  0.34996269501E-01  0.35000000000E-01  0.51099999109E-03 0.  1.
       11   -1    0    0    0    0 -0.00000000000E+00 -0.00000000000E+00 -0.34996269501E-01  0.35000000000E-01  0.51099999109E-03 0. -1.
       22    1    1    2    0    0  0.17365479599E-01 -0.10590478463E-01  0.28432208966E-01  0.34958670204E-01  0.00000000000E+00 0.  1.
       22    1    1    2    0    0 -0.17260125001E-01  0.10699723083E-01 -0.28044637092E-01  0.34625101570E-01  0.00000000000E+00 0. -1.
       22    1    1    2    0    0 -0.10535459785E-03 -0.10924462038E-03 -0.38757187369E-03  0.41622822543E-03  0.00000000000E+00 0.  1.
</event>
<event>
 5   0  0.4146200E+04  0.9118800E+02  0.7546771E-02  0.1180000E+00
      -11   -1    0    0    0    0  0.00000000000E+00  0.00000000000E+00  0.34996269501E-01  0.35000000000E-01  0.51099999109E-03 0. -1.
       11   -1    0    0    0    0 -0.00000000000E+00 -0.00000000000E+00 -0.34996269501E-01  0.35000000000E-01  0.51099999109E-03 0. -1.
       22    1    1    2    0    0  0.22091485341E-03 -0.11237978308E-02 -0.14258655550E-02  0.18288842276E-02  0.00000000000E+00 0.  1.
       22    1    1    2    0    0  0.35844381227E-04  0.14684503507E-02 -0.33355133665E-01  0.33387461315E-01  0.00000000000E+00 0. -1.
       22    1    1    2    0    0 -0.25675923464E-03 -0.34465251990E-03  0.34780999220E-01  0.34783654457E-01  0.00000000000E+00 0. -1.
</event>
<event>
 5   0  0.4146200E+04  0.9118800E+02  0.7546771E-02  0.1180000E+00
      -11   -1    0    0    0    0  0.00000000000E+00  0.00000000000E+00  0.34996269501E-01  0.35000000000E-01  0.51099999109E-03 0.  1.
       11   -1    0    0    0    0 -0.00000000000E+00 -0.00000000000E+00 -0.34996269501E-01  0.35000000000E-01  0.51099999109E-03 0. -1.
       22    1    1    2    0    0 -0.38532543273E-03 -0.72768258551E-04  0.26608203262E-02  0.26895605062E-02  0.00000000000E+00 0.  1.
       22    1    1    2    0    0 -0.16512241464E-01 -0.64065958189E-02 -0.29814562190E-01  0.34678620312E-01  0.00000000000E+00 0. -1.
       22    1    1    2    0    0  0.16897566897E-01  0.64793640775E-02  0.27153741864E-01  0.32631819182E-01  0.00000000000E+00 0.  1.
</event>
<event>
 5   0  0.4146200E+04  0.9118800E+02  0.7546771E-02  0.1180000E+00
      -11   -1    0    0    0    0  0.00000000000E+00  0.00000000000E+00  0.34996269501E-01  0.35000000000E-01  0.51099999109E-03 0. -1.
       11   -1    0    0    0    0 -0.00000000000E+00 -0.00000000000E+00 -0.34996269501E-01  0.35000000000E-01  0.51099999109E-03 0.  1.
       22    1    1    2    0    0  0.11896600600E-03  0.39297261060E-03 -0.18085102018E-04  0.41098352057E-03  0.00000000000E+00 0. -1.
       22    1    1    2    0    0 -0.13809513399E-01  0.94779510475E-02  0.30471446288E-01  0.34771299304E-01  0.00000000000E+00 0. -1.
       22    1    1    2    0    0  0.13690547393E-01 -0.98709236581E-02 -0.30453361186E-01  0.34817717176E-01  0.00000000000E+00 0.  1.
</event>
<event>
 5   0  0.4146200E+04  0.9118800E+02  0.7546771E-02  0.1180000E+00
      -11   -1    0    0    0    0  0.00000000000E+00  0.00000000000E+00  0.34996269501E-01  0.35000000000E-01  0.51099999109E-03 0. -1.
       11   -1    0    0    0    0 -0.00000000000E+00 -0.00000000000E+00 -0.34996269501E-01  0.35000000000E-01  0.51099999109E-03 0.  1.
       22    1    1    2    0    0  0.47685616840E-02  0.68515284997E-02  0.33612549555E-01  0.34633598006E-01  0.00000000000E+00 0. -1.
       22    1    1    2    0    0  0.11038375502E-02  0.76548546784E-03 -0.32406805568E-02  0.35080529942E-02  0.00000000000E+00 0.  1.
       22    1    1    2    0    0 -0.58723992342E-02 -0.76170139676E-02 -0.30371868998E-01  0.31858348999E-01  0.00000000000E+00 0.  1.
</event>
<event>
 5   0  0.4146200E+04  0.9118800E+02  0.7546771E-02  0.1180000E+00
      -11   -1    0    0    0    0  0.00000000000E+00  0.00000000000E+00  0.34996269501E-01  0.35000000000E-01  0.51099999109E-03 0. -1.
       11   -1    0    0    0    0 -0.00000000000E+00 -0.00000000000E+00 -0.34996269501E-01  0.35000000000E-01  0.51099999109E-03 0.  1.
       22    1    1    2    0    0 -0.35978562258E-02 -0.23728891496E-03 -0.76935443653E-02  0.84965581474E-02  0.00000000000E+00 0.  1.
       22    1    1    2    0    0  0.13915227349E-01 -0.24715633756E-01  0.16850239066E-01  0.32991311898E-01  0.00000000000E+00 0. -1.
       22    1    1    2    0    0 -0.10317371124E-01  0.24952922671E-01 -0.91566947004E-02  0.28512129955E-01  0.00000000000E+00 0.  1.
</event>
<event>
 5   0  0.4146200E+04  0.9118800E+02  0.7546771E-02  0.1180000E+00
      -11   -1    0    0    0    0  0.00000000000E+00  0.00000000000E+00  0.34996269501E-01  0.35000000000E-01  0.51099999109E-03 0. -1.
       11   -1    0    0    0    0 -0.00000000000E+00 -0.00000000000E+00 -0.34996269501E-01  0.35000000000E-01  0.51099999109E-03 0. -1.
       22    1    1    2    0    0  0.00000000000E+00  0.00000000000E+00  0.20999436160E-01  0.20997690718E-01  0.00000000000E+00 0. -1.
       22    1    1    2    0    0  0.79407904765E-02  0.17973511608E-01 -0.21784478287E-01  0.29337122680E-01  0.00000000000E+00 0. -1.
       22    1    1    2    0    0 -0.79407904765E-02 -0.17973511608E-01  0.78504212676E-03  0.19665186601E-01  0.00000000000E+00 0.  1.
</event>
<event>
 5   0  0.4146200E+04  0.9118800E+02  0.7546771E-02  0.1180000E+00
      -11   -1    0    0    0    0  0.00000000000E+00  0.00000000000E+00  0.34996269501E-01  0.35000000000E-01  0.51099999109E-03 0.  1.
       11   -1    0    0    0    0 -0.00000000000E+00 -0.00000000000E+00 -0.34996269501E-01  0.35000000000E-01  0.51099999109E-03 0. -1.
       22    1    1    2    0    0  0.51286000385E-03 -0.90186825137E-04 -0.64173344406E-03  0.82642656069E-03  0.00000000000E+00 0.  1.
       22    1    1    2    0    0  0.31373209795E-03  0.43673665206E-03  0.34899720645E-01  0.34903863222E-01  0.00000000000E+00 0.  1.
       22    1    1    2    0    0 -0.82659210181E-03 -0.34654982693E-03 -0.34257987201E-01  0.34269710217E-01  0.00000000000E+00 0. -1.
</event>
<event>
 5   0  0.4146200E+04  0.9118800E+02  0.7546771E-02  0.1180000E+00
      -11   -1    0    0    0    0  0.00000000000E+00  0.00000000000E+00  0.34996269501E-01  0.35000000000E-01  0.51099999109E-03 0. -1.
       11   -1    0    0    0    0 -0.00000000000E+00 -0.00000000000E+00 -0.34996269501E-01  0.35000000000E-01  0.51099999109E-03 0.  1.
       22    1    1    2    0    0 -0.10518846892E-01  0.60833937253E-02  0.31704849028E-01  0.33953663588E-01  0.00000000000E+00 0. -1.
       22    1    1    2    0    0 -0.89574884380E-04 -0.26512281748E-03  0.10718488485E-02  0.11077787334E-02  0.00000000000E+00 0.  1.
       22    1    1    2    0    0  0.10608421777E-01 -0.58182709078E-02 -0.32776697877E-01  0.34938557678E-01  0.00000000000E+00 0.  1.
</event>
<event>
 5   0  0.4146200E+04  0.9118800E+02  0.7546771E-02  0.1180000E+00
      -11   -1    0    0    0    0  0.00000000000E+00  0.00000000000E+00  0.34996269501E-01  0.35000000000E-01  0.51099999109E-03 0. -1.
       11   -1    0    0    0    0 -0.00000000000E+00 -0.00000000000E+00 -0.34996269501E-01  0.35000000000E-01  0.51099999109E-03 0.  1.
       22    1    1    2    0    0  0.17330308738E-02  0.56778700879E-02  0.34434632804E-01  0.34942603525E-01  0.00000000000E+00 0. -1.
       22    1    1    2    0    0 -0.62088926719E-03 -0.57479615076E-03 -0.15997356980E-02  0.18097094796E-02  0.00000000000E+00 0.  1.
       22    1    1    2    0    0 -0.11121416066E-02 -0.51030739372E-02 -0.32834897106E-01  0.33247686995E-01  0.00000000000E+00 0.  1.
</event>
<event>
 5   0  0.4146200E+04  0.9118800E+02  0.7546771E-02  0.1180000E+00
      -11   -1    0    0    0    0  0.00000000000E+00  0.00000000000E+00  0.34996269501E-01  0.35000000000E-01  0.51099999109E-03 0. -1.
       11   -1    0    0    0    0 -0.00000000000E+00 -0.00000000000E+00 -0.34996269501E-01  0.35000000000E-01  0.51099999109E-03 0.  1.
       22    1    1    2    0    0  0.22457124208E-02  0.30915410980E-02  0.34736933969E-01  0.34946465231E-01  0.00000000000E+00 0. -1.
       22    1    1    2    0    0 -0.24164524687E-02 -0.26354005709E-02 -0.33877670964E-01  0.34065835799E-01  0.00000000000E+00 0.  1.
       22    1    1    2    0    0  0.17074004791E-03 -0.45614052711E-03 -0.85926300450E-03  0.98769897000E-03  0.00000000000E+00 0.  1.
</event>
<event>
 5   0  0.4146200E+04  0.9118800E+02  0.7546771E-02  0.1180000E+00
      -11   -1    0    0    0    0  0.00000000000E+00  0.00000000000E+00  0.34996269501E-01  0.35000000000E-01  0.51099999109E-03 0.  1.
       11   -1    0    0    0    0 -0.00000000000E+00 -0.00000000000E+00 -0.34996269501E-01  0.35000000000E-01  0.51099999109E-03 0. -1.
       22    1    1    2    0    0  0.19908380714E-01 -0.15781500500E-01 -0.16857924179E-01  0.30489161817E-01  0.00000000000E+00 0. -1.
       22    1    1    2    0    0 -0.21016107034E-01  0.13618492242E-01  0.22311590533E-01  0.33540231930E-01  0.00000000000E+00 0.  1.
       22    1    1    2    0    0  0.11077263197E-02  0.21630082577E-02 -0.54536663537E-02  0.59706062523E-02  0.00000000000E+00 0. -1.
</event>
<event>
 5   0  0.4146200E+04  0.9118800E+02  0.7546771E-02  0.1180000E+00
      -11   -1    0    0    0    0  0.00000000000E+00  0.00000000000E+00  0.34996269501E-01  0.35000000000E-01  0.51099999109E-03 0. -1.
       11   -1    0    0    0    0 -0.00000000000E+00 -0.00000000000E+00 -0.34996269501E-01  0.35000000000E-01  0.51099999109E-03 0.  1.
       22    1    1    2    0    0  0.28439419582E-02 -0.13957922836E-01  0.19502166935E-01  0.24150489248E-01  0.00000000000E+00 0. -1.
       22    1    1    2    0    0 -0.24644022408E-03  0.11295204782E-02  0.11833656297E-01  0.11889994561E-01  0.00000000000E+00 0. -1.
       22    1    1    2    0    0 -0.25975017341E-02  0.12828402358E-01 -0.31335823232E-01  0.33959516191E-01  0.00000000000E+00 0.  1.
</event>
<event>
 5   0  0.4146200E+04  0.9118800E+02  0.7546771E-02  0.1180000E+00
      -11   -1    0    0    0    0  0.00000000000E+00  0.00000000000E+00  0.34996269501E-01  0.35000000000E-01  0.51099999109E-03 0. -1.
       11   -1    0    0    0    0 -0.00000000000E+00 -0.00000000000E+00 -0.34996269501E-01  0.35000000000E-01  0.51099999109E-03 0.  1.
       22    1    1    2    0    0 -0.36685842887E-02  0.12344342839E-01 -0.32225023369E-01  0.34702931316E-01  0.00000000000E+00 0.  1.
       22    1    1    2    0    0  0.37798298451E-02 -0.12688781126E-01  0.27120130878E-01  0.30179360148E-01  0.00000000000E+00 0. -1.
       22    1    1    2    0    0 -0.11124555641E-03  0.34443828688E-03  0.51048924910E-02  0.51177085352E-02  0.00000000000E+00 0.  1.
</event>
<event>
 5   0  0.4146200E+04  0.9118800E+02  0.7546771E-02  0.1180000E+00
      -11   -1    0    0    0    0  0.00000000000E+00  0.00000000000E+00  0.34996269501E-01  0.35000000000E-01  0.51099999109E-03 0. -1.
       11   -1    0    0    0    0 -0.00000000000E+00 -0.00000000000E+00 -0.34996269501E-01  0.35000000000E-01  0.51099999109E-03 0.  1.
       22    1    1    2    0    0  0.37883165094E-03  0.16179454117E-02 -0.14092405664E-02  0.21788115451E-02  0.00000000000E+00 0.  1.
       22    1    1    2    0    0 -0.54721226619E-02  0.96457662615E-02 -0.31112186985E-01  0.33029579352E-01  0.00000000000E+00 0.  1.
       22    1    1    2    0    0  0.50932910110E-02 -0.11263711673E-01  0.32521427551E-01  0.34791609103E-01  0.00000000000E+00 0. -1.
</event>
<event>
 5   0  0.4146200E+04  0.9118800E+02  0.7546771E-02  0.1180000E+00
      -11   -1    0    0    0    0  0.00000000000E+00  0.00000000000E+00  0.34996269501E-01  0.35000000000E-01  0.51099999109E-03 0. -1.
       11   -1    0    0    0    0 -0.00000000000E+00 -0.00000000000E+00 -0.34996269501E-01  0.35000000000E-01  0.51099999109E-03 0.  1.
       22    1    1    2    0    0  0.55068692292E-04  0.71524862181E-04 -0.79321073232E-03  0.79833052844E-03  0.00000000000E+00 0. -1.
       22    1    1    2    0    0  0.18255995697E-01 -0.10424772884E-01  0.27872708128E-01  0.34911962519E-01  0.00000000000E+00 0. -1.
       22    1    1    2    0    0 -0.18311064390E-01  0.10353248022E-01 -0.27079497396E-01  0.34289706952E-01  0.00000000000E+00 0.  1.
</event>
<event>
 5   0  0.4146200E+04  0.9118800E+02  0.7546771E-02  0.1180000E+00
      -11   -1    0    0    0    0  0.00000000000E+00  0.00000000000E+00  0.34996269501E-01  0.35000000000E-01  0.51099999109E-03 0. -1.
       11   -1    0    0    0    0 -0.00000000000E+00 -0.00000000000E+00 -0.34996269501E-01  0.35000000000E-01  0.51099999109E-03 0.  1.
       22    1    1    2    0    0 -0.30758260305E-03 -0.52985149278E-03  0.57809087612E-02  0.58132827015E-02  0.00000000000E+00 0.  1.
       22    1    1    2    0    0  0.14129658679E-01  0.87038526811E-02  0.24686774106E-01  0.29746279122E-01  0.00000000000E+00 0. -1.
       22    1    1    2    0    0 -0.13822076076E-01 -0.81740011884E-02 -0.30467682867E-01  0.34440438176E-01  0.00000000000E+00 0.  1.
</event>
<event>
 5   0  0.4146200E+04  0.9118800E+02  0.7546771E-02  0.1180000E+00
      -11   -1    0    0    0    0  0.00000000000E+00  0.00000000000E+00  0.34996269501E-01  0.35000000000E-01  0.51099999109E-03 0.  1.
       11   -1    0    0    0    0 -0.00000000000E+00 -0.00000000000E+00 -0.34996269501E-01  0.35000000000E-01  0.51099999109E-03 0. -1.
       22    1    1    2    0    0 -0.12578379933E-01 -0.27855525453E-02 -0.26906602407E-01  0.29831865476E-01  0.00000000000E+00 0. -1.
       22    1    1    2    0    0  0.83803429706E-02 -0.89741194084E-02  0.21842303925E-02  0.12471400477E-01  0.00000000000E+00 0.  1.
       22    1    1    2    0    0  0.41980369622E-02  0.11759671954E-01  0.24722372015E-01  0.27696734046E-01  0.00000000000E+00 0.  1.
</event>
<event>
 5   0  0.4146200E+04  0.9118800E+02  0.7546771E-02  0.1180000E+00
      -11   -1    0    0    0    0  0.00000000000E+00  0.00000000000E+00  0.34996269501E-01  0.35000000000E-01  0.51099999109E-03 0.  1.
       11   -1    0    0    0    0 -0.00000000000E+00 -0.00000000000E+00 -0.34996269501E-01  0.35000000000E-01  0.51099999109E-03 0. -1.
       22    1    1    2    0    0  0.12188289568E-01  0.12965125694E-01  0.30122377660E-01  0.34985804589E-01  0.00000000000E+00 0.  1.
       22    1    1    2    0    0 -0.37077648461E-04 -0.12053815970E-03 -0.50369871149E-03  0.51924617660E-03  0.00000000000E+00 0.  1.
       22    1    1    2    0    0 -0.12151211919E-01 -0.12844587534E-01 -0.29618678949E-01  0.34494949234E-01  0.00000000000E+00 0. -1.
</event>
<event>
 5   0  0.4146200E+04  0.9118800E+02  0.7546771E-02  0.1180000E+00
      -11   -1    0    0    0    0  0.00000000000E+00  0.00000000000E+00  0.34996269501E-01  0.35000000000E-01  0.51099999109E-03 0. -1.
       11   -1    0    0    0    0 -0.00000000000E+00 -0.00000000000E+00 -0.34996269501E-01  0.35000000000E-01  0.51099999109E-03 0.  1.
       22    1    1    2    0    0  0.11638276660E-03  0.37478979866E-04  0.29436785623E-02  0.29462167436E-02  0.00000000000E+00 0. -1.
       22    1    1    2    0    0 -0.16069619477E-01 -0.68415205473E-02  0.27171990674E-01  0.32301023989E-01  0.00000000000E+00 0. -1.
       22    1    1    2    0    0  0.15953236710E-01  0.68040415675E-02 -0.30115669236E-01  0.34752759268E-01  0.00000000000E+00 0.  1.
</event>
<event>
 5   0  0.4146200E+04  0.9118800E+02  0.7546771E-02  0.1180000E+00
      -11   -1    0    0    0    0  0.00000000000E+00  0.00000000000E+00  0.34996269501E-01  0.35000000000E-01  0.51099999109E-03 0. -1.
       11   -1    0    0    0    0 -0.00000000000E+00 -0.00000000000E+00 -0.34996269501E-01  0.35000000000E-01  0.51099999109E-03 0.  1.
       22    1    1    2    0    0  0.62815515169E-02 -0.52818901549E-02  0.30915098657E-01  0.31985927813E-01  0.00000000000E+00 0. -1.
       22    1    1    2    0    0  0.22832477696E-02 -0.32210471531E-02  0.84550911430E-03  0.40377284210E-02  0.00000000000E+00 0. -1.
       22    1    1    2    0    0 -0.85647992864E-02  0.85029373079E-02 -0.31760607772E-01  0.33976343766E-01  0.00000000000E+00 0.  1.
</event>
<event>
 5   0  0.4146200E+04  0.9118800E+02  0.7546771E-02  0.1180000E+00
      -11   -1    0    0    0    0  0.00000000000E+00  0.00000000000E+00  0.34996269501E-01  0.35000000000E-01  0.51099999109E-03 0. -1.
       11   -1    0    0    0    0 -0.00000000000E+00 -0.00000000000E+00 -0.34996269501E-01  0.35000000000E-01  0.51099999109E-03 0.  1.
       22    1    1    2    0    0  0.30019451306E-03  0.10461792689E-03 -0.43878253120E-03  0.54184108924E-03  0.00000000000E+00 0.  1.
       22    1    1    2    0    0 -0.74190935484E-02  0.19569836199E-01 -0.27497006090E-01  0.34555850183E-01  0.00000000000E+00 0.  1.
       22    1    1    2    0    0  0.71188990353E-02 -0.19674454126E-01  0.27935788621E-01  0.34902308728E-01  0.00000000000E+00 0. -1.
</event>
<event>
 5   0  0.4146200E+04  0.9118800E+02  0.7546771E-02  0.1180000E+00
      -11   -1    0    0    0    0  0.00000000000E+00  0.00000000000E+00  0.34996269501E-01  0.35000000000E-01  0.51099999109E-03 0.  1.
       11   -1    0    0    0    0 -0.00000000000E+00 -0.00000000000E+00 -0.34996269501E-01  0.35000000000E-01  0.51099999109E-03 0. -1.
       22    1    1    2    0    0 -0.54311023778E-02 -0.83442677959E-02 -0.28715275969E-01  0.30392281127E-01  0.00000000000E+00 0. -1.
       22    1    1    2    0    0  0.11738372496E-02 -0.17377867933E-02 -0.43225585686E-02  0.48044052084E-02  0.00000000000E+00 0. -1.
       22    1    1    2    0    0  0.42572651281E-02  0.10082054589E-01  0.33037834538E-01  0.34803313665E-01  0.00000000000E+00 0.  1.
</event>
<event>
 5   0  0.4146200E+04  0.9118800E+02  0.7546771E-02  0.1180000E+00
      -11   -1    0    0    0    0  0.00000000000E+00  0.00000000000E+00  0.34996269501E-01  0.35000000000E-01  0.51099999109E-03 0.  1.
       11   -1    0    0    0    0 -0.00000000000E+00 -0.00000000000E+00 -0.34996269501E-01  0.35000000000E-01  0.51099999109E-03 0. -1.
       22    1    1    2    0    0  0.32325626552E-03  0.29310428899E-03  0.30129274232E-02  0.30443614101E-02  0.00000000000E+00 0. -1.
       22    1    1    2    0    0  0.12818853642E-01  0.18839061047E-01 -0.25804589077E-01  0.34425427336E-01  0.00000000000E+00 0. -1.
       22    1    1    2    0    0 -0.13142109908E-01 -0.19132165336E-01  0.22791661654E-01  0.32530211254E-01  0.00000000000E+00 0.  1.
</event>
<event>
 5   0  0.4146200E+04  0.9118800E+02  0.7546771E-02  0.1180000E+00
      -11   -1    0    0    0    0  0.00000000000E+00  0.00000000000E+00  0.34996269501E-01  0.35000000000E-01  0.51099999109E-03 0.  1.
       11   -1    0    0    0    0 -0.00000000000E+00 -0.00000000000E+00 -0.34996269501E-01  0.35000000000E-01  0.51099999109E-03 0. -1.
       22    1    1    2    0    0  0.13935248325E-01 -0.48876179420E-02 -0.24261672730E-01  0.28402618166E-01  0.00000000000E+00 0. -1.
       22    1    1    2    0    0 -0.13883124087E-01  0.53626592421E-02 -0.22755914370E-02  0.15055814988E-01  0.00000000000E+00 0.  1.
       22    1    1    2    0    0 -0.52124238129E-04 -0.47504130012E-03  0.26537264167E-01  0.26541566846E-01  0.00000000000E+00 0.  1.
</event>
<event>
 5   0  0.4146200E+04  0.9118800E+02  0.7546771E-02  0.1180000E+00
      -11   -1    0    0    0    0  0.00000000000E+00  0.00000000000E+00  0.34996269501E-01  0.35000000000E-01  0.51099999109E-03 0.  1.
       11   -1    0    0    0    0 -0.00000000000E+00 -0.00000000000E+00 -0.34996269501E-01  0.35000000000E-01  0.51099999109E-03 0.  1.
       22    1    1    2    0    0  0.59712204361E-03  0.18436877324E-03  0.27228650579E-01  0.27235821246E-01  0.00000000000E+00 0.  1.
       22    1    1    2    0    0 -0.15631967844E-01  0.19784064849E-02 -0.64503649242E-02  0.17025854415E-01  0.00000000000E+00 0. -1.
       22    1    1    2    0    0  0.15034845800E-01 -0.21627752581E-02 -0.20778285655E-01  0.25738324340E-01  0.00000000000E+00 0.  1.
</event>
<event>
 5   0  0.4146200E+04  0.9118800E+02  0.7546771E-02  0.1180000E+00
      -11   -1    0    0    0    0  0.00000000000E+00  0.00000000000E+00  0.34996269501E-01  0.35000000000E-01  0.51099999109E-03 0. -1.
       11   -1    0    0    0    0 -0.00000000000E+00 -0.00000000000E+00 -0.34996269501E-01  0.35000000000E-01  0.51099999109E-03 0.  1.
       22    1    1    2    0    0 -0.16661041973E-02  0.64100353217E-04 -0.46383087900E-02  0.49288863329E-02  0.00000000000E+00 0.  1.
       22    1    1    2    0    0 -0.77929511413E-04  0.29744255249E-04 -0.30194464967E-01  0.30194580182E-01  0.00000000000E+00 0.  1.
       22    1    1    2    0    0  0.17440337087E-02 -0.93844608467E-04  0.34832773757E-01  0.34876533485E-01  0.00000000000E+00 0. -1.
</event>
<event>
 5   0  0.4146200E+04  0.9118800E+02  0.7546771E-02  0.1180000E+00
      -11   -1    0    0    0    0  0.00000000000E+00  0.00000000000E+00  0.34996269501E-01  0.35000000000E-01  0.51099999109E-03 0. -1.
       11   -1    0    0    0    0 -0.00000000000E+00 -0.00000000000E+00 -0.34996269501E-01  0.35000000000E-01  0.51099999109E-03 0.  1.
       22    1    1    2    0    0 -0.27346078863E-02  0.16622936752E-01  0.29767399871E-01  0.34203774669E-01  0.00000000000E+00 0. -1.
       22    1    1    2    0    0  0.28481107431E-02 -0.16694180199E-01 -0.30588775415E-01  0.34963989600E-01  0.00000000000E+00 0.  1.
       22    1    1    2    0    0 -0.11350285675E-03  0.71243446839E-04  0.82137554452E-03  0.83223573123E-03  0.00000000000E+00 0.  1.
</event>
<event>
 5   0  0.4146200E+04  0.9118800E+02  0.7546771E-02  0.1180000E+00
      -11   -1    0    0    0    0  0.00000000000E+00  0.00000000000E+00  0.34996269501E-01  0.35000000000E-01  0.51099999109E-03 0. -1.
       11   -1    0    0    0    0 -0.00000000000E+00 -0.00000000000E+00 -0.34996269501E-01  0.35000000000E-01  0.51099999109E-03 0.  1.
       22    1    1    2    0    0  0.62389577107E-02 -0.11849315611E-01  0.30983688454E-01  0.33753811992E-01  0.00000000000E+00 0. -1.
       22    1    1    2    0    0  0.14600477643E-02  0.23062788006E-03 -0.14859580578E-01  0.14932918792E-01  0.00000000000E+00 0.  1.
       22    1    1    2    0    0 -0.76990054750E-02  0.11618687731E-01 -0.16124107875E-01  0.21313269216E-01  0.00000000000E+00 0.  1.
</event>
<event>
 5   0  0.4146200E+04  0.9118800E+02  0.7546771E-02  0.1180000E+00
      -11   -1    0    0    0    0  0.00000000000E+00  0.00000000000E+00  0.34996269501E-01  0.35000000000E-01  0.51099999109E-03 0. -1.
       11   -1    0    0    0    0 -0.00000000000E+00 -0.00000000000E+00 -0.34996269501E-01  0.35000000000E-01  0.51099999109E-03 0.  1.
       22    1    1    2    0    0 -0.17239756563E-01  0.72521278369E-02 -0.19676490139E-01  0.27147132973E-01  0.00000000000E+00 0.  1.
       22    1    1    2    0    0  0.16318740033E-01 -0.98634489389E-02  0.28115265069E-01  0.33971414912E-01  0.00000000000E+00 0. -1.
       22    1    1    2    0    0  0.92101653008E-03  0.26113211020E-02 -0.84387749301E-02  0.88814521148E-02  0.00000000000E+00 0.  1.
</event>
<event>
 5   0  0.4146200E+04  0.9118800E+02  0.7546771E-02  0.1180000E+00
      -11   -1    0    0    0    0  0.00000000000E+00  0.00000000000E+00  0.34996269501E-01  0.35000000000E-01  0.51099999109E-03 0.  1.
       11   -1    0    0    0    0 -0.00000000000E+00 -0.00000000000E+00 -0.34996269501E-01  0.35000000000E-01  0.51099999109E-03 0. -1.
       22    1    1    2    0    0  0.11240997887E-01  0.13277617937E-01 -0.27507781113E-01  0.32547399179E-01  0.00000000000E+00 0. -1.
       22    1    1    2    0    0 -0.53683697055E-03  0.34879836507E-03 -0.26200357953E-02  0.26971173132E-02  0.00000000000E+00 0.  1.
       22    1    1    2    0    0 -0.10704160916E-01 -0.13626416302E-01  0.30127816909E-01  0.34755483507E-01  0.00000000000E+00 0.  1.
</event>
<event>
 5   0  0.4146200E+04  0.9118800E+02  0.7546771E-02  0.1180000E+00
      -11   -1    0    0    0    0  0.00000000000E+00  0.00000000000E+00  0.34996269501E-01  0.35000000000E-01  0.51099999109E-03 0. -1.
       11   -1    0    0    0    0 -0.00000000000E+00 -0.00000000000E+00 -0.34996269501E-01  0.35000000000E-01  0.51099999109E-03 0.  1.
       22    1    1    2    0    0  0.14533677215E-01  0.13142000548E-01  0.28283486742E-01  0.34407783626E-01  0.00000000000E+00 0. -1.
       22    1    1    2    0    0 -0.14557951495E-01 -0.12953997631E-01 -0.28950932194E-01  0.34898373619E-01  0.00000000000E+00 0.  1.
       22    1    1    2    0    0  0.24274280104E-04 -0.18800291638E-03  0.66744545168E-03  0.69384275467E-03  0.00000000000E+00 0.  1.
</event>
<event>
 5   0  0.4146200E+04  0.9118800E+02  0.7546771E-02  0.1180000E+00
      -11   -1    0    0    0    0  0.00000000000E+00  0.00000000000E+00  0.34996269501E-01  0.35000000000E-01  0.51099999109E-03 0. -1.
       11   -1    0    0    0    0 -0.00000000000E+00 -0.00000000000E+00 -0.34996269501E-01  0.35000000000E-01  0.51099999109E-03 0.  1.
       22    1    1    2    0    0  0.15993195315E-02 -0.92889936246E-02 -0.25806250988E-01  0.27473729554E-01  0.00000000000E+00 0.  1.
       22    1    1    2    0    0 -0.45312944712E-02  0.92833538236E-02  0.33095080234E-01  0.34669837373E-01  0.00000000000E+00 0. -1.
       22    1    1    2    0    0  0.29319749397E-02  0.56398010135E-05 -0.72888292460E-02  0.78564330731E-02  0.00000000000E+00 0.  1.
</event>
<event>
 5   0  0.4146200E+04  0.9118800E+02  0.7546771E-02  0.1180000E+00
      -11   -1    0    0    0    0  0.00000000000E+00  0.00000000000E+00  0.34996269501E-01  0.35000000000E-01  0.51099999109E-03 0. -1.
       11   -1    0    0    0    0 -0.00000000000E+00 -0.00000000000E+00 -0.34996269501E-01  0.35000000000E-01  0.51099999109E-03 0. -1.
       22    1    1    2    0    0 -0.42631185289E-02 -0.36924017417E-03  0.34587964269E-01  0.34851654053E-01  0.00000000000E+00 0. -1.
       22    1    1    2    0    0  0.20905149402E-02  0.13354123221E-02 -0.28572773098E-01  0.28680253508E-01  0.00000000000E+00 0. -1.
       22    1    1    2    0    0  0.21726035887E-02 -0.96617214792E-03 -0.60151911715E-02  0.64680924392E-02  0.00000000000E+00 0. -1.
</event>
<event>
 5   0  0.4146200E+04  0.9118800E+02  0.7546771E-02  0.1180000E+00
      -11   -1    0    0    0    0  0.00000000000E+00  0.00000000000E+00  0.34996269501E-01  0.35000000000E-01  0.51099999109E-03 0. -1.
       11   -1    0    0    0    0 -0.00000000000E+00 -0.00000000000E+00 -0.34996269501E-01  0.35000000000E-01  0.51099999109E-03 0.  1.
       22    1    1    2    0    0  0.23280593275E-01  0.63817924961E-02  0.25072533930E-01  0.34804385591E-01  0.00000000000E+00 0. -1.
       22    1    1    2    0    0 -0.23536262784E-01 -0.65015451680E-02 -0.24773740458E-01  0.34784536388E-01  0.00000000000E+00 0.  1.
       22    1    1    2    0    0  0.25566950956E-03  0.11975267186E-03 -0.29879347212E-03  0.41107802120E-03  0.00000000000E+00 0. -1.
</event>
<event>
 5   0  0.4146200E+04  0.9118800E+02  0.7546771E-02  0.1180000E+00
      -11   -1    0    0    0    0  0.00000000000E+00  0.00000000000E+00  0.34996269501E-01  0.35000000000E-01  0.51099999109E-03 0. -1.
       11   -1    0    0    0    0 -0.00000000000E+00 -0.00000000000E+00 -0.34996269501E-01  0.35000000000E-01  0.51099999109E-03 0.  1.
       22    1    1    2    0    0 -0.78500688935E-02  0.54704088012E-02 -0.14493613123E-01  0.17367031279E-01  0.00000000000E+00 0.  1.
       22    1    1    2    0    0  0.76316347104E-02 -0.58001900193E-02  0.32876711041E-01  0.34245615507E-01  0.00000000000E+00 0. -1.
       22    1    1    2    0    0  0.21843418307E-03  0.32978121807E-03 -0.18383097918E-01  0.18387353214E-01  0.00000000000E+00 0.  1.
</event>
<event>
 5   0  0.4146200E+04  0.9118800E+02  0.7546771E-02  0.1180000E+00
      -11   -1    0    0    0    0  0.00000000000E+00  0.00000000000E+00  0.34996269501E-01  0.35000000000E-01  0.51099999109E-03 0.  1.
       11   -1    0    0    0    0 -0.00000000000E+00 -0.00000000000E+00 -0.34996269501E-01  0.35000000000E-01  0.51099999109E-03 0. -1.
       22    1    1    2    0    0  0.24964307395E-03  0.21256998965E-01 -0.27666145177E-01  0.34890369956E-01  0.00000000000E+00 0. -1.
       22    1    1    2    0    0  0.88117864880E-04  0.12209835311E-03  0.59016394620E-03  0.60906998723E-03  0.00000000000E+00 0.  1.
       22    1    1    2    0    0 -0.33776093883E-03 -0.21379097318E-01  0.27075981231E-01  0.34500560057E-01  0.00000000000E+00 0.  1.
</event>
<event>
 5   0  0.4146200E+04  0.9118800E+02  0.7546771E-02  0.1180000E+00
      -11   -1    0    0    0    0  0.00000000000E+00  0.00000000000E+00  0.34996269501E-01  0.35000000000E-01  0.51099999109E-03 0.  1.
       11   -1    0    0    0    0 -0.00000000000E+00 -0.00000000000E+00 -0.34996269501E-01  0.35000000000E-01  0.51099999109E-03 0.  1.
       22    1    1    2    0    0  0.00000000000E+00  0.00000000000E+00  0.34888999910E-01  0.34886816080E-01  0.00000000000E+00 0.  1.
       22    1    1    2    0    0  0.56767940699E-03  0.80763927100E-03 -0.22237914915E-02  0.24330617951E-02  0.00000000000E+00 0. -1.
       22    1    1    2    0    0 -0.56767940699E-03 -0.80763927100E-03 -0.32665208419E-01  0.32680122125E-01  0.00000000000E+00 0.  1.
</event>
<event>
 5   0  0.4146200E+04  0.9118800E+02  0.7546771E-02  0.1180000E+00
      -11   -1    0    0    0    0  0.00000000000E+00  0.00000000000E+00  0.34996269501E-01  0.35000000000E-01  0.51099999109E-03 0. -1.
       11   -1    0    0    0    0 -0.00000000000E+00 -0.00000000000E+00 -0.34996269501E-01  0.35000000000E-01  0.51099999109E-03 0.  1.
       22    1    1    2    0    0  0.22195413286E-01  0.63599818030E-02  0.14162293558E-01  0.27086090495E-01  0.00000000000E+00 0. -1.
       22    1    1    2    0    0 -0.20499928389E-02  0.17422663172E-02  0.10042657369E-01  0.10396774961E-01  0.00000000000E+00 0. -1.
       22    1    1    2    0    0 -0.20145420447E-01 -0.81022481202E-02 -0.24204950927E-01  0.32517134544E-01  0.00000000000E+00 0.  1.
</event>
<event>
 5   0  0.4146200E+04  0.9118800E+02  0.7546771E-02  0.1180000E+00
      -11   -1    0    0    0    0  0.00000000000E+00  0.00000000000E+00  0.34996269501E-01  0.35000000000E-01  0.51099999109E-03 0. -1.
       11   -1    0    0    0    0 -0.00000000000E+00 -0.00000000000E+00 -0.34996269501E-01  0.35000000000E-01  0.51099999109E-03 0.  1.
       22    1    1    2    0    0 -0.71526061828E-02 -0.10220865928E-01 -0.12687407884E-01  0.17793150208E-01  0.00000000000E+00 0.  1.
       22    1    1    2    0    0  0.75363296977E-02  0.99237886599E-02  0.31247449037E-01  0.33640465484E-01  0.00000000000E+00 0. -1.
       22    1    1    2    0    0 -0.38372351490E-03  0.29707726769E-03 -0.18560041153E-01  0.18566384307E-01  0.00000000000E+00 0.  1.
</event>
<event>
 5   0  0.4146200E+04  0.9118800E+02  0.7546771E-02  0.1180000E+00
      -11   -1    0    0    0    0  0.00000000000E+00  0.00000000000E+00  0.34996269501E-01  0.35000000000E-01  0.51099999109E-03 0. -1.
       11   -1    0    0    0    0 -0.00000000000E+00 -0.00000000000E+00 -0.34996269501E-01  0.35000000000E-01  0.51099999109E-03 0.  1.
       22    1    1    2    0    0  0.18679687114E-03 -0.85720052540E-03  0.12461535459E-02  0.15240027795E-02  0.00000000000E+00 0. -1.
       22    1    1    2    0    0  0.69514359645E-03 -0.21620740704E-01  0.25557719951E-01  0.33483379494E-01  0.00000000000E+00 0. -1.
       22    1    1    2    0    0 -0.88194046759E-03  0.22477941230E-01 -0.26803873497E-01  0.34992617727E-01  0.00000000000E+00 0.  1.
</event>
<event>
 5   0  0.4146200E+04  0.9118800E+02  0.7546771E-02  0.1180000E+00
      -11   -1    0    0    0    0  0.00000000000E+00  0.00000000000E+00  0.34996269501E-01  0.35000000000E-01  0.51099999109E-03 0.  1.
       11   -1    0    0    0    0 -0.00000000000E+00 -0.00000000000E+00 -0.34996269501E-01  0.35000000000E-01  0.51099999109E-03 0. -1.
       22    1    1    2    0    0  0.90274155179E-03  0.28388741696E-02  0.34825105562E-01  0.34952283563E-01  0.00000000000E+00 0.  1.
       22    1    1    2    0    0 -0.90650790250E-03 -0.30677960624E-02 -0.34511437981E-01  0.34659377963E-01  0.00000000000E+00 0. -1.
       22    1    1    2    0    0  0.37663507140E-05  0.22892189283E-03 -0.31366758109E-03  0.38833847329E-03  0.00000000000E+00 0.  1.
</event>
<event>
 5   0  0.4146200E+04  0.9118800E+02  0.7546771E-02  0.1180000E+00
      -11   -1    0    0    0    0  0.00000000000E+00  0.00000000000E+00  0.34996269501E-01  0.35000000000E-01  0.51099999109E-03 0. -1.
       11   -1    0    0    0    0 -0.00000000000E+00 -0.00000000000E+00 -0.34996269501E-01  0.35000000000E-01  0.51099999109E-03 0.  1.
       22    1    1    2    0    0  0.14394640104E-01  0.58307445848E-02 -0.31289610411E-01  0.34931976266E-01  0.00000000000E+00 0.  1.
       22    1    1    2    0    0 -0.14463170402E-01 -0.58962548414E-02  0.30440527294E-01  0.34213664246E-01  0.00000000000E+00 0. -1.
       22    1    1    2    0    0  0.68530297140E-04  0.65510256583E-04  0.84908311697E-03  0.85435948807E-03  0.00000000000E+00 0. -1.
</event>
<event>
 5   0  0.4146200E+04  0.9118800E+02  0.7546771E-02  0.1180000E+00
      -11   -1    0    0    0    0  0.00000000000E+00  0.00000000000E+00  0.34996269501E-01  0.35000000000E-01  0.51099999109E-03 0.  1.
       11   -1    0    0    0    0 -0.00000000000E+00 -0.00000000000E+00 -0.34996269501E-01  0.35000000000E-01  0.51099999109E-03 0. -1.
       22    1    1    2    0    0  0.10957026051E-03  0.23707531234E-03  0.13872456437E-02  0.14116163862E-02  0.00000000000E+00 0. -1.
       22    1    1    2    0    0  0.65976715964E-02 -0.22439137979E-01 -0.25862260748E-01  0.34869767919E-01  0.00000000000E+00 0. -1.
       22    1    1    2    0    0 -0.67072418569E-02  0.22202062667E-01  0.24475015105E-01  0.33718615694E-01  0.00000000000E+00 0.  1.
</event>
<event>
 5   0  0.4146200E+04  0.9118800E+02  0.7546771E-02  0.1180000E+00
      -11   -1    0    0    0    0  0.00000000000E+00  0.00000000000E+00  0.34996269501E-01  0.35000000000E-01  0.51099999109E-03 0. -1.
       11   -1    0    0    0    0 -0.00000000000E+00 -0.00000000000E+00 -0.34996269501E-01  0.35000000000E-01  0.51099999109E-03 0.  1.
       22    1    1    2    0    0  0.53104366983E-02  0.13826745719E-01  0.31598270435E-01  0.34897425830E-01  0.00000000000E+00 0. -1.
       22    1    1    2    0    0 -0.56143268489E-03 -0.36823634292E-03 -0.37563399255E-02  0.38158739890E-02  0.00000000000E+00 0.  1.
       22    1    1    2    0    0 -0.47490040134E-02 -0.13458509376E-01 -0.27841930509E-01  0.31286700181E-01  0.00000000000E+00 0.  1.
</event>
<event>
 5   0  0.4146200E+04  0.9118800E+02  0.7546771E-02  0.1180000E+00
      -11   -1    0    0    0    0  0.00000000000E+00  0.00000000000E+00  0.34996269501E-01  0.35000000000E-01  0.51099999109E-03 0. -1.
       11   -1    0    0    0    0 -0.00000000000E+00 -0.00000000000E+00 -0.34996269501E-01  0.35000000000E-01  0.51099999109E-03 0.  1.
       22    1    1    2    0    0  0.15937530701E-01  0.58721695186E-02  0.30543478540E-01  0.34948409707E-01  0.00000000000E+00 0. -1.
       22    1    1    2    0    0 -0.15845810707E-01 -0.60339431811E-02 -0.29809103506E-01  0.34294035036E-01  0.00000000000E+00 0.  1.
       22    1    1    2    0    0 -0.91719993944E-04  0.16177366245E-03 -0.73437503484E-03  0.75755525669E-03  0.00000000000E+00 0.  1.
</event>
<event>
 5   0  0.4146200E+04  0.9118800E+02  0.7546771E-02  0.1180000E+00
      -11   -1    0    0    0    0  0.00000000000E+00  0.00000000000E+00  0.34996269501E-01  0.35000000000E-01  0.51099999109E-03 0. -1.
       11   -1    0    0    0    0 -0.00000000000E+00 -0.00000000000E+00 -0.34996269501E-01  0.35000000000E-01  0.51099999109E-03 0.  1.
       22    1    1    2    0    0 -0.11906325623E-01  0.88545721721E-02 -0.30655976596E-01  0.34058081849E-01  0.00000000000E+00 0.  1.
       22    1    1    2    0    0 -0.50104500459E-03  0.21273087022E-02  0.39108999270E-02  0.44801369008E-02  0.00000000000E+00 0. -1.
       22    1    1    2    0    0  0.12407370628E-01 -0.10981880874E-01  0.26745076669E-01  0.31461781250E-01  0.00000000000E+00 0. -1.
</event>
<event>
 5   0  0.4146200E+04  0.9118800E+02  0.7546771E-02  0.1180000E+00
      -11   -1    0    0    0    0  0.00000000000E+00  0.00000000000E+00  0.34996269501E-01  0.35000000000E-01  0.51099999109E-03 0.  1.
       11   -1    0    0    0    0 -0.00000000000E+00 -0.00000000000E+00 -0.34996269501E-01  0.35000000000E-01  0.51099999109E-03 0. -1.
       22    1    1    2    0    0  0.64737934184E-04 -0.33543522065E-04  0.24670946965E-02  0.24681718760E-02  0.00000000000E+00 0.  1.
       22    1    1    2    0    0  0.15983001561E-01 -0.11923711678E-01  0.25980013649E-01  0.32750455695E-01  0.00000000000E+00 0.  1.
       22    1    1    2    0    0 -0.16047739495E-01  0.11957255200E-01 -0.28447108345E-01  0.34781372429E-01  0.00000000000E+00 0. -1.
</event>
<event>
 5   0  0.4146200E+04  0.9118800E+02  0.7546771E-02  0.1180000E+00
      -11   -1    0    0    0    0  0.00000000000E+00  0.00000000000E+00  0.34996269501E-01  0.35000000000E-01  0.51099999109E-03 0. -1.
       11   -1    0    0    0    0 -0.00000000000E+00 -0.00000000000E+00 -0.34996269501E-01  0.35000000000E-01  0.51099999109E-03 0.  1.
       22    1    1    2    0    0 -0.80993174427E-02  0.64869525479E-02 -0.33032837496E-01  0.34624382297E-01  0.00000000000E+00 0.  1.
       22    1    1    2    0    0  0.79435408238E-02 -0.66333277481E-02  0.33391301193E-01  0.34958259013E-01  0.00000000000E+00 0. -1.
       22    1    1    2    0    0  0.15577661891E-03  0.14637520026E-03 -0.35846369693E-03  0.41735869018E-03  0.00000000000E+00 0.  1.
</event>
<event>
 5   0  0.4146200E+04  0.9118800E+02  0.7546771E-02  0.1180000E+00
      -11   -1    0    0    0    0  0.00000000000E+00  0.00000000000E+00  0.34996269501E-01  0.35000000000E-01  0.51099999109E-03 0. -1.
       11   -1    0    0    0    0 -0.00000000000E+00 -0.00000000000E+00 -0.34996269501E-01  0.35000000000E-01  0.51099999109E-03 0. -1.
       22    1    1    2    0    0 -0.54101631723E-02 -0.14004747097E-02 -0.13523036036E-01  0.14632282754E-01  0.00000000000E+00 0.  1.
       22    1    1    2    0    0 -0.00000000000E+00 -0.00000000000E+00  0.34073506932E-01  0.34070932300E-01  0.00000000000E+00 0. -1.
       22    1    1    2    0    0  0.54101631723E-02  0.14004747097E-02 -0.20550470896E-01  0.21296784945E-01  0.00000000000E+00 0. -1.
</event>
<event>
 5   0  0.4146200E+04  0.9118800E+02  0.7546771E-02  0.1180000E+00
      -11   -1    0    0    0    0  0.00000000000E+00  0.00000000000E+00  0.34996269501E-01  0.35000000000E-01  0.51099999109E-03 0.  1.
       11   -1    0    0    0    0 -0.00000000000E+00 -0.00000000000E+00 -0.34996269501E-01  0.35000000000E-01  0.51099999109E-03 0. -1.
       22    1    1    2    0    0  0.55403997349E-02  0.10918720659E-02  0.34216105705E-01  0.34678957646E-01  0.00000000000E+00 0.  1.
       22    1    1    2    0    0  0.66862618402E-03 -0.23825471091E-03 -0.16740670824E-01  0.16755712038E-01  0.00000000000E+00 0.  1.
       22    1    1    2    0    0 -0.62090259190E-02 -0.85361735497E-03 -0.17475434881E-01  0.18565330316E-01  0.00000000000E+00 0. -1.
</event>
<event>
 5   0  0.4146200E+04  0.9118800E+02  0.7546771E-02  0.1180000E+00
      -11   -1    0    0    0    0  0.00000000000E+00  0.00000000000E+00  0.34996269501E-01  0.35000000000E-01  0.51099999109E-03 0. -1.
       11   -1    0    0    0    0 -0.00000000000E+00 -0.00000000000E+00 -0.34996269501E-01  0.35000000000E-01  0.51099999109E-03 0.  1.
       22    1    1    2    0    0 -0.25939148578E-02 -0.10961191247E-01 -0.31655758396E-01  0.33600046838E-01  0.00000000000E+00 0.  1.
       22    1    1    2    0    0  0.15871312995E-03 -0.19457062765E-03 -0.14027347862E-02  0.14250306899E-02  0.00000000000E+00 0. -1.
       22    1    1    2    0    0  0.24352017279E-02  0.11155761875E-01  0.33058493182E-01  0.34974922472E-01  0.00000000000E+00 0. -1.
</event>
<event>
 5   0  0.4146200E+04  0.9118800E+02  0.7546771E-02  0.1180000E+00
      -11   -1    0    0    0    0  0.00000000000E+00  0.00000000000E+00  0.34996269501E-01  0.35000000000E-01  0.51099999109E-03 0. -1.
       11   -1    0    0    0    0 -0.00000000000E+00 -0.00000000000E+00 -0.34996269501E-01  0.35000000000E-01  0.51099999109E-03 0.  1.
       22    1    1    2    0    0  0.14603485991E-01 -0.88431009618E-02  0.30229647966E-01  0.34717342264E-01  0.00000000000E+00 0. -1.
       22    1    1    2    0    0 -0.14295732304E-01  0.91232669768E-02 -0.30417804484E-01  0.34825921266E-01  0.00000000000E+00 0.  1.
       22    1    1    2    0    0 -0.30775368729E-03 -0.28016601498E-03  0.18815651768E-03  0.45673647012E-03  0.00000000000E+00 0. -1.
</event>
<event>
 5   0  0.4146200E+04  0.9118800E+02  0.7546771E-02  0.1180000E+00
      -11   -1    0    0    0    0  0.00000000000E+00  0.00000000000E+00  0.34996269501E-01  0.35000000000E-01  0.51099999109E-03 0. -1.
       11   -1    0    0    0    0 -0.00000000000E+00 -0.00000000000E+00 -0.34996269501E-01  0.35000000000E-01  0.51099999109E-03 0.  1.
       22    1    1    2    0    0 -0.75523004189E-02 -0.14339557765E-01 -0.27948058654E-01  0.32307184047E-01  0.00000000000E+00 0.  1.
       22    1    1    2    0    0  0.74661870677E-02  0.14418935217E-01  0.30810893372E-01  0.34827586659E-01  0.00000000000E+00 0. -1.
       22    1    1    2    0    0  0.86113351198E-04 -0.79377452359E-04 -0.28628347176E-02  0.28652292944E-02  0.00000000000E+00 0.  1.
</event>
<event>
 5   0  0.4146200E+04  0.9118800E+02  0.7546771E-02  0.1180000E+00
      -11   -1    0    0    0    0  0.00000000000E+00  0.00000000000E+00  0.34996269501E-01  0.35000000000E-01  0.51099999109E-03 0. -1.
       11   -1    0    0    0    0 -0.00000000000E+00 -0.00000000000E+00 -0.34996269501E-01  0.35000000000E-01  0.51099999109E-03 0.  1.
       22    1    1    2    0    0  0.10923818605E-01 -0.13935862397E-01  0.29703762332E-01  0.34581086888E-01  0.00000000000E+00 0. -1.
       22    1    1    2    0    0  0.63788234910E-04  0.85839470542E-04  0.45115673903E-03  0.46365909544E-03  0.00000000000E+00 0.  1.
       22    1    1    2    0    0 -0.10987606840E-01  0.13850022927E-01 -0.30154919071E-01  0.34955254016E-01  0.00000000000E+00 0.  1.
</event>
<event>
 5   0  0.4146200E+04  0.9118800E+02  0.7546771E-02  0.1180000E+00
      -11   -1    0    0    0    0  0.00000000000E+00  0.00000000000E+00  0.34996269501E-01  0.35000000000E-01  0.51099999109E-03 0. -1.
       11   -1    0    0    0    0 -0.00000000000E+00 -0.00000000000E+00 -0.34996269501E-01  0.35000000000E-01  0.51099999109E-03 0.  1.
       22    1    1    2    0    0 -0.72523640433E-02 -0.10232101318E-01 -0.31944571821E-01  0.34318338399E-01  0.00000000000E+00 0.  1.
       22    1    1    2    0    0  0.77082526649E-02  0.95172897417E-02  0.32457138786E-01  0.34690947254E-01  0.00000000000E+00 0. -1.
       22    1    1    2    0    0 -0.45588862156E-03  0.71481157643E-03 -0.51256696484E-03  0.99071434759E-03  0.00000000000E+00 0.  1.
</event>
<event>
 5   0  0.4146200E+04  0.9118800E+02  0.7546771E-02  0.1180000E+00
      -11   -1    0    0    0    0  0.00000000000E+00  0.00000000000E+00  0.34996269501E-01  0.35000000000E-01  0.51099999109E-03 0. -1.
       11   -1    0    0    0    0 -0.00000000000E+00 -0.00000000000E+00 -0.34996269501E-01  0.35000000000E-01  0.51099999109E-03 0.  1.
       22    1    1    2    0    0 -0.38819287531E-02  0.11910153652E-01 -0.32525393734E-01  0.34854302007E-01  0.00000000000E+00 0.  1.
       22    1    1    2    0    0 -0.85498969314E-03 -0.70590341682E-03  0.35900150958E-02  0.37573282260E-02  0.00000000000E+00 0. -1.
       22    1    1    2    0    0  0.47369184462E-02 -0.11204250235E-01  0.28935378638E-01  0.31388369767E-01  0.00000000000E+00 0. -1.
</event>
<event>
 5   0  0.4146200E+04  0.9118800E+02  0.7546771E-02  0.1180000E+00
      -11   -1    0    0    0    0  0.00000000000E+00  0.00000000000E+00  0.34996269501E-01  0.35000000000E-01  0.51099999109E-03 0. -1.
       11   -1    0    0    0    0 -0.00000000000E+00 -0.00000000000E+00 -0.34996269501E-01  0.35000000000E-01  0.51099999109E-03 0.  1.
       22    1    1    2    0    0  0.73402389272E-03  0.60306389369E-03 -0.13017669902E-02  0.16115441141E-02  0.00000000000E+00 0.  1.
       22    1    1    2    0    0 -0.14280945859E-01 -0.22428177567E-01 -0.21381264969E-01  0.34119306196E-01  0.00000000000E+00 0.  1.
       22    1    1    2    0    0  0.13546921966E-01  0.21825113673E-01  0.22683031960E-01  0.34269149690E-01  0.00000000000E+00 0. -1.
</event>
<event>
 5   0  0.4146200E+04  0.9118800E+02  0.7546771E-02  0.1180000E+00
      -11   -1    0    0    0    0  0.00000000000E+00  0.00000000000E+00  0.34996269501E-01  0.35000000000E-01  0.51099999109E-03 0.  1.
       11   -1    0    0    0    0 -0.00000000000E+00 -0.00000000000E+00 -0.34996269501E-01  0.35000000000E-01  0.51099999109E-03 0. -1.
       22    1    1    2    0    0  0.20804082545E-02 -0.11353331946E-01 -0.32979580582E-01  0.34941078692E-01  0.00000000000E+00 0. -1.
       22    1    1    2    0    0 -0.21139311039E-02  0.11350718380E-01  0.31020157084E-01  0.33099209326E-01  0.00000000000E+00 0.  1.
       22    1    1    2    0    0  0.33522849449E-04  0.26135663883E-05  0.19594234976E-02  0.19597119827E-02  0.00000000000E+00 0. -1.
</event>
<event>
 5   0  0.4146200E+04  0.9118800E+02  0.7546771E-02  0.1180000E+00
      -11   -1    0    0    0    0  0.00000000000E+00  0.00000000000E+00  0.34996269501E-01  0.35000000000E-01  0.51099999109E-03 0.  1.
       11   -1    0    0    0    0 -0.00000000000E+00 -0.00000000000E+00 -0.34996269501E-01  0.35000000000E-01  0.51099999109E-03 0. -1.
       22    1    1    2    0    0 -0.97057760100E-02 -0.11307940868E-01  0.27202704742E-01  0.31017072072E-01  0.00000000000E+00 0.  1.
       22    1    1    2    0    0  0.10069218782E-01  0.11743963208E-01 -0.31264131559E-01  0.34882026330E-01  0.00000000000E+00 0. -1.
       22    1    1    2    0    0 -0.36344277237E-03 -0.43602233914E-03  0.40614268169E-02  0.41009015982E-02  0.00000000000E+00 0. -1.
</event>
<event>
 5   0  0.4146200E+04  0.9118800E+02  0.7546771E-02  0.1180000E+00
      -11   -1    0    0    0    0  0.00000000000E+00  0.00000000000E+00  0.34996269501E-01  0.35000000000E-01  0.51099999109E-03 0.  1.
       11   -1    0    0    0    0 -0.00000000000E+00 -0.00000000000E+00 -0.34996269501E-01  0.35000000000E-01  0.51099999109E-03 0. -1.
       22    1    1    2    0    0 -0.14856522612E-01  0.86246903514E-02 -0.30296439953E-01  0.34827802423E-01  0.00000000000E+00 0. -1.
       22    1    1    2    0    0  0.14780693753E-01 -0.89173274486E-02  0.28272821260E-01  0.33126123508E-01  0.00000000000E+00 0.  1.
       22    1    1    2    0    0  0.75828859336E-04  0.29263709723E-03  0.20236186922E-02  0.20460740696E-02  0.00000000000E+00 0.  1.
</event>
<event>
 5   0  0.4146200E+04  0.9118800E+02  0.7546771E-02  0.1180000E+00
      -11   -1    0    0    0    0  0.00000000000E+00  0.00000000000E+00  0.34996269501E-01  0.35000000000E-01  0.51099999109E-03 0.  1.
       11   -1    0    0    0    0 -0.00000000000E+00 -0.00000000000E+00 -0.34996269501E-01  0.35000000000E-01  0.51099999109E-03 0. -1.
       22    1    1    2    0    0  0.93339991535E-02  0.50851043410E-02  0.33003051298E-01  0.34672513917E-01  0.00000000000E+00 0.  1.
       22    1    1    2    0    0 -0.33254164836E-02 -0.45128483461E-02 -0.22743646750E-01  0.23424296413E-01  0.00000000000E+00 0. -1.
       22    1    1    2    0    0 -0.60085826699E-02 -0.57225599493E-03 -0.10259404548E-01  0.11903189670E-01  0.00000000000E+00 0.  1.
</event>
<event>
 5   0  0.4146200E+04  0.9118800E+02  0.7546771E-02  0.1180000E+00
      -11   -1    0    0    0    0  0.00000000000E+00  0.00000000000E+00  0.34996269501E-01  0.35000000000E-01  0.51099999109E-03 0. -1.
       11   -1    0    0    0    0 -0.00000000000E+00 -0.00000000000E+00 -0.34996269501E-01  0.35000000000E-01  0.51099999109E-03 0. -1.
       22    1    1    2    0    0  0.23008714166E-03  0.15095176327E-03 -0.31439017188E-01  0.31440221505E-01  0.00000000000E+00 0. -1.
       22    1    1    2    0    0 -0.18707941603E-02  0.76380123430E-03  0.34720185150E-01  0.34778937879E-01  0.00000000000E+00 0. -1.
       22    1    1    2    0    0  0.16407070186E-02 -0.91475299758E-03 -0.32811679620E-02  0.37808406159E-02  0.00000000000E+00 0.  1.
</event>
<event>
 5   0  0.4146200E+04  0.9118800E+02  0.7546771E-02  0.1180000E+00
      -11   -1    0    0    0    0  0.00000000000E+00  0.00000000000E+00  0.34996269501E-01  0.35000000000E-01  0.51099999109E-03 0.  1.
       11   -1    0    0    0    0 -0.00000000000E+00 -0.00000000000E+00 -0.34996269501E-01  0.35000000000E-01  0.51099999109E-03 0. -1.
       22    1    1    2    0    0  0.48835379429E-02 -0.81300308449E-04  0.34208362403E-01  0.34555283401E-01  0.00000000000E+00 0.  1.
       22    1    1    2    0    0 -0.17311949745E-02  0.36029123193E-02 -0.21865366814E-01  0.22227736707E-01  0.00000000000E+00 0. -1.
       22    1    1    2    0    0 -0.31523429683E-02 -0.35216120109E-02 -0.12342995590E-01  0.13216979892E-01  0.00000000000E+00 0. -1.
</event>
<event>
 5   0  0.4146200E+04  0.9118800E+02  0.7546771E-02  0.1180000E+00
      -11   -1    0    0    0    0  0.00000000000E+00  0.00000000000E+00  0.34996269501E-01  0.35000000000E-01  0.51099999109E-03 0.  1.
       11   -1    0    0    0    0 -0.00000000000E+00 -0.00000000000E+00 -0.34996269501E-01  0.35000000000E-01  0.51099999109E-03 0. -1.
       22    1    1    2    0    0 -0.13983858728E-01  0.10542063987E-01  0.18549514031E-01  0.25510152662E-01  0.00000000000E+00 0.  1.
       22    1    1    2    0    0  0.12044769941E-02 -0.26441584169E-02  0.10980339165E-01  0.11358265129E-01  0.00000000000E+00 0.  1.
       22    1    1    2    0    0  0.12779381734E-01 -0.78979055702E-02 -0.29529853196E-01  0.33131582209E-01  0.00000000000E+00 0. -1.
</event>
<event>
 5   0  0.4146200E+04  0.9118800E+02  0.7546771E-02  0.1180000E+00
      -11   -1    0    0    0    0  0.00000000000E+00  0.00000000000E+00  0.34996269501E-01  0.35000000000E-01  0.51099999109E-03 0. -1.
       11   -1    0    0    0    0 -0.00000000000E+00 -0.00000000000E+00 -0.34996269501E-01  0.35000000000E-01  0.51099999109E-03 0.  1.
       22    1    1    2    0    0  0.31838468190E-02 -0.56634960118E-02 -0.29018951245E-01  0.29737377137E-01  0.00000000000E+00 0.  1.
       22    1    1    2    0    0 -0.32237665757E-02  0.98670978814E-03 -0.49412819312E-02  0.59818504047E-02  0.00000000000E+00 0. -1.
       22    1    1    2    0    0  0.39919756660E-04  0.46767862236E-02  0.33960233176E-01  0.34280772458E-01  0.00000000000E+00 0. -1.
</event>
<event>
 5   0  0.4146200E+04  0.9118800E+02  0.7546771E-02  0.1180000E+00
      -11   -1    0    0    0    0  0.00000000000E+00  0.00000000000E+00  0.34996269501E-01  0.35000000000E-01  0.51099999109E-03 0.  1.
       11   -1    0    0    0    0 -0.00000000000E+00 -0.00000000000E+00 -0.34996269501E-01  0.35000000000E-01  0.51099999109E-03 0. -1.
       22    1    1    2    0    0 -0.26037806883E-02  0.17066775424E-02 -0.35055027686E-02  0.46883869046E-02  0.00000000000E+00 0. -1.
       22    1    1    2    0    0 -0.76526031963E-03  0.63520856819E-02 -0.30005979968E-01  0.30680506021E-01  0.00000000000E+00 0. -1.
       22    1    1    2    0    0  0.33690410079E-02 -0.80587632243E-02  0.33511482736E-01  0.34631107075E-01  0.00000000000E+00 0.  1.
</event>
<event>
 5   0  0.4146200E+04  0.9118800E+02  0.7546771E-02  0.1180000E+00
      -11   -1    0    0    0    0  0.00000000000E+00  0.00000000000E+00  0.34996269501E-01  0.35000000000E-01  0.51099999109E-03 0.  1.
       11   -1    0    0    0    0 -0.00000000000E+00 -0.00000000000E+00 -0.34996269501E-01  0.35000000000E-01  0.51099999109E-03 0. -1.
       22    1    1    2    0    0 -0.19531988013E-01 -0.13340262413E-02 -0.28326669324E-01  0.34433680848E-01  0.00000000000E+00 0. -1.
       22    1    1    2    0    0  0.19714866136E-01  0.14510410253E-02  0.28865330025E-01  0.34985550507E-01  0.00000000000E+00 0.  1.
       22    1    1    2    0    0 -0.18287812356E-03 -0.11701478402E-03 -0.53866070085E-03  0.58076864446E-03  0.00000000000E+00 0. -1.
</event>
<event>
 5   0  0.4146200E+04  0.9118800E+02  0.7546771E-02  0.1180000E+00
      -11   -1    0    0    0    0  0.00000000000E+00  0.00000000000E+00  0.34996269501E-01  0.35000000000E-01  0.51099999109E-03 0.  1.
       11   -1    0    0    0    0 -0.00000000000E+00 -0.00000000000E+00 -0.34996269501E-01  0.35000000000E-01  0.51099999109E-03 0. -1.
       22    1    1    2    0    0 -0.10688929515E-01 -0.11600008456E-02  0.33234230573E-01  0.34930114484E-01  0.00000000000E+00 0.  1.
       22    1    1    2    0    0  0.10810580404E-01  0.11506768213E-02 -0.31346991944E-01  0.33178707175E-01  0.00000000000E+00 0. -1.
       22    1    1    2    0    0 -0.12165088940E-03  0.93240242936E-05 -0.18872386283E-02  0.18911783407E-02  0.00000000000E+00 0. -1.
</event>
<event>
 5   0  0.4146200E+04  0.9118800E+02  0.7546771E-02  0.1180000E+00
      -11   -1    0    0    0    0  0.00000000000E+00  0.00000000000E+00  0.34996269501E-01  0.35000000000E-01  0.51099999109E-03 0.  1.
       11   -1    0    0    0    0 -0.00000000000E+00 -0.00000000000E+00 -0.34996269501E-01  0.35000000000E-01  0.51099999109E-03 0.  1.
       22    1    1    2    0    0 -0.93641939364E-03  0.19102494984E-03  0.32973269543E-01  0.32987116821E-01  0.00000000000E+00 0.  1.
       22    1    1    2    0    0 -0.75123667916E-02  0.11334103428E-02 -0.20731900123E-01  0.22080125827E-01  0.00000000000E+00 0.  1.
       22    1    1    2    0    0  0.84487861852E-02 -0.13244352926E-02 -0.12241369420E-01  0.14932757352E-01  0.00000000000E+00 0. -1.
</event>
<event>
 5   0  0.4146200E+04  0.9118800E+02  0.7546771E-02  0.1180000E+00
      -11   -1    0    0    0    0  0.00000000000E+00  0.00000000000E+00  0.34996269501E-01  0.35000000000E-01  0.51099999109E-03 0.  1.
       11   -1    0    0    0    0 -0.00000000000E+00 -0.00000000000E+00 -0.34996269501E-01  0.35000000000E-01  0.51099999109E-03 0. -1.
       22    1    1    2    0    0  0.34303582840E-02  0.32211099808E-02  0.34486095121E-01  0.34805655634E-01  0.00000000000E+00 0.  1.
       22    1    1    2    0    0 -0.43177690028E-02 -0.33935708462E-02 -0.33007869028E-01  0.33461602920E-01  0.00000000000E+00 0. -1.
       22    1    1    2    0    0  0.88741071878E-03  0.17246086538E-03 -0.14782260930E-02  0.17327414452E-02  0.00000000000E+00 0. -1.
</event>
<event>
 5   0  0.4146200E+04  0.9118800E+02  0.7546771E-02  0.1180000E+00
      -11   -1    0    0    0    0  0.00000000000E+00  0.00000000000E+00  0.34996269501E-01  0.35000000000E-01  0.51099999109E-03 0.  1.
       11   -1    0    0    0    0 -0.00000000000E+00 -0.00000000000E+00 -0.34996269501E-01  0.35000000000E-01  0.51099999109E-03 0. -1.
       22    1    1    2    0    0  0.63962493434E-02  0.73133573398E-02 -0.31292037236E-01  0.32765664889E-01  0.00000000000E+00 0. -1.
       22    1    1    2    0    0 -0.60481147290E-02 -0.80689703893E-02  0.33441855597E-01  0.34929152304E-01  0.00000000000E+00 0.  1.
       22    1    1    2    0    0 -0.34813461440E-03  0.75561304948E-03 -0.21498183602E-02  0.23051828067E-02  0.00000000000E+00 0.  1.
</event>
<event>
 5   0  0.4146200E+04  0.9118800E+02  0.7546771E-02  0.1180000E+00
      -11   -1    0    0    0    0  0.00000000000E+00  0.00000000000E+00  0.34996269501E-01  0.35000000000E-01  0.51099999109E-03 0. -1.
       11   -1    0    0    0    0 -0.00000000000E+00 -0.00000000000E+00 -0.34996269501E-01  0.35000000000E-01  0.51099999109E-03 0.  1.
       22    1    1    2    0    0 -0.12417369649E-01  0.77303826199E-02 -0.16034494884E-01  0.21703799452E-01  0.00000000000E+00 0.  1.
       22    1    1    2    0    0  0.15928066376E-01 -0.54921407445E-02  0.29625738232E-01  0.34081538613E-01  0.00000000000E+00 0. -1.
       22    1    1    2    0    0 -0.35106967269E-02 -0.22382418754E-02 -0.13591243348E-01  0.14214661936E-01  0.00000000000E+00 0. -1.
</event>
<event>
 5   0  0.4146200E+04  0.9118800E+02  0.7546771E-02  0.1180000E+00
      -11   -1    0    0    0    0  0.00000000000E+00  0.00000000000E+00  0.34996269501E-01  0.35000000000E-01  0.51099999109E-03 0.  1.
       11   -1    0    0    0    0 -0.00000000000E+00 -0.00000000000E+00 -0.34996269501E-01  0.35000000000E-01  0.51099999109E-03 0. -1.
       22    1    1    2    0    0 -0.21020748911E-02  0.15857135972E-01 -0.30036923388E-01  0.34030636884E-01  0.00000000000E+00 0. -1.
       22    1    1    2    0    0 -0.42080347886E-02 -0.62664641176E-02  0.73116327458E-02  0.10508858298E-01  0.00000000000E+00 0.  1.
       22    1    1    2    0    0  0.63101096796E-02 -0.95906718545E-02  0.22725290643E-01  0.25460504818E-01  0.00000000000E+00 0.  1.
</event>
<event>
 5   0  0.4146200E+04  0.9118800E+02  0.7546771E-02  0.1180000E+00
      -11   -1    0    0    0    0  0.00000000000E+00  0.00000000000E+00  0.34996269501E-01  0.35000000000E-01  0.51099999109E-03 0.  1.
       11   -1    0    0    0    0 -0.00000000000E+00 -0.00000000000E+00 -0.34996269501E-01  0.35000000000E-01  0.51099999109E-03 0. -1.
       22    1    1    2    0    0 -0.99733022445E-02 -0.17260026245E-01 -0.27934714716E-01  0.34317977066E-01  0.00000000000E+00 0. -1.
       22    1    1    2    0    0 -0.51094292692E-04  0.29586807382E-04 -0.74917087805E-03  0.75149385256E-03  0.00000000000E+00 0.  1.
       22    1    1    2    0    0  0.10024396537E-01  0.17230439438E-01  0.28683885594E-01  0.34930529082E-01  0.00000000000E+00 0.  1.
</event>
<event>
 5   0  0.4146200E+04  0.9118800E+02  0.7546771E-02  0.1180000E+00
      -11   -1    0    0    0    0  0.00000000000E+00  0.00000000000E+00  0.34996269501E-01  0.35000000000E-01  0.51099999109E-03 0. -1.
       11   -1    0    0    0    0 -0.00000000000E+00 -0.00000000000E+00 -0.34996269501E-01  0.35000000000E-01  0.51099999109E-03 0.  1.
       22    1    1    2    0    0 -0.11022721583E-02  0.95190932544E-03 -0.17521840504E-02  0.22784389878E-02  0.00000000000E+00 0. -1.
       22    1    1    2    0    0 -0.35259993448E-03  0.16291570232E-02  0.34650261995E-01  0.34690332020E-01  0.00000000000E+00 0. -1.
       22    1    1    2    0    0  0.14548720927E-02 -0.25810663486E-02 -0.32898077945E-01  0.33031228992E-01  0.00000000000E+00 0.  1.
</event>
<event>
 5   0  0.4146200E+04  0.9118800E+02  0.7546771E-02  0.1180000E+00
      -11   -1    0    0    0    0  0.00000000000E+00  0.00000000000E+00  0.34996269501E-01  0.35000000000E-01  0.51099999109E-03 0.  1.
       11   -1    0    0    0    0 -0.00000000000E+00 -0.00000000000E+00 -0.34996269501E-01  0.35000000000E-01  0.51099999109E-03 0. -1.
       22    1    1    2    0    0 -0.30105442748E-02 -0.10953295637E-02 -0.74921667931E-03  0.32900530872E-02  0.00000000000E+00 0. -1.
       22    1    1    2    0    0 -0.17392037874E-01  0.13925097085E-01 -0.23596174148E-01  0.32452592264E-01  0.00000000000E+00 0. -1.
       22    1    1    2    0    0  0.20402582149E-01 -0.12829767522E-01  0.24345390827E-01  0.34257354649E-01  0.00000000000E+00 0.  1.
</event>
<event>
 5   0  0.4146200E+04  0.9118800E+02  0.7546771E-02  0.1180000E+00
      -11   -1    0    0    0    0  0.00000000000E+00  0.00000000000E+00  0.34996269501E-01  0.35000000000E-01  0.51099999109E-03 0.  1.
       11   -1    0    0    0    0 -0.00000000000E+00 -0.00000000000E+00 -0.34996269501E-01  0.35000000000E-01  0.51099999109E-03 0. -1.
       22    1    1    2    0    0  0.15418816853E-03  0.10222290417E-03 -0.50688776342E-03  0.53959125100E-03  0.00000000000E+00 0.  1.
       22    1    1    2    0    0 -0.15418816853E-03 -0.10222290417E-03 -0.34477916523E-01  0.34478412830E-01  0.00000000000E+00 0. -1.
       22    1    1    2    0    0  0.00000000000E+00 -0.00000000000E+00  0.34984804287E-01  0.34981995919E-01  0.00000000000E+00 0.  1.
</event>
<event>
 5   0  0.4146200E+04  0.9118800E+02  0.7546771E-02  0.1180000E+00
      -11   -1    0    0    0    0  0.00000000000E+00  0.00000000000E+00  0.34996269501E-01  0.35000000000E-01  0.51099999109E-03 0.  1.
       11   -1    0    0    0    0 -0.00000000000E+00 -0.00000000000E+00 -0.34996269501E-01  0.35000000000E-01  0.51099999109E-03 0. -1.
       22    1    1    2    0    0  0.84077515976E-02 -0.18204886932E-01  0.28640965032E-01  0.34963024370E-01  0.00000000000E+00 0.  1.
       22    1    1    2    0    0 -0.81026571290E-02  0.18128468429E-01 -0.28043557786E-01  0.34361832800E-01  0.00000000000E+00 0. -1.
       22    1    1    2    0    0 -0.30509446863E-03  0.76418503471E-04 -0.59740724617E-03  0.67514282951E-03  0.00000000000E+00 0. -1.
</event>
<event>
 5   0  0.4146200E+04  0.9118800E+02  0.7546771E-02  0.1180000E+00
      -11   -1    0    0    0    0  0.00000000000E+00  0.00000000000E+00  0.34996269501E-01  0.35000000000E-01  0.51099999109E-03 0. -1.
       11   -1    0    0    0    0 -0.00000000000E+00 -0.00000000000E+00 -0.34996269501E-01  0.35000000000E-01  0.51099999109E-03 0.  1.
       22    1    1    2    0    0  0.23618673170E-01  0.35389177605E-02  0.24945453777E-01  0.34534639499E-01  0.00000000000E+00 0. -1.
       22    1    1    2    0    0 -0.23521383034E-01 -0.47224419941E-02 -0.23365203448E-01  0.33488649575E-01  0.00000000000E+00 0.  1.
       22    1    1    2    0    0 -0.97290135863E-04  0.11835242336E-02 -0.15802503289E-02  0.19767109258E-02  0.00000000000E+00 0.  1.
</event>
<event>
 5   0  0.4146200E+04  0.9118800E+02  0.7546771E-02  0.1180000E+00
      -11   -1    0    0    0    0  0.00000000000E+00  0.00000000000E+00  0.34996269501E-01  0.35000000000E-01  0.51099999109E-03 0.  1.
       11   -1    0    0    0    0 -0.00000000000E+00 -0.00000000000E+00 -0.34996269501E-01  0.35000000000E-01  0.51099999109E-03 0. -1.
       22    1    1    2    0    0  0.54243248783E-02 -0.16057291522E-01  0.27060773975E-01  0.31930321006E-01  0.00000000000E+00 0.  1.
       22    1    1    2    0    0 -0.53956801528E-02  0.15989821203E-01 -0.30378507343E-01  0.34751136021E-01  0.00000000000E+00 0. -1.
       22    1    1    2    0    0 -0.28644725466E-04  0.67470319248E-04  0.33177333675E-02  0.33185429727E-02  0.00000000000E+00 0. -1.
</event>
<event>
 5   0  0.4146200E+04  0.9118800E+02  0.7546771E-02  0.1180000E+00
      -11   -1    0    0    0    0  0.00000000000E+00  0.00000000000E+00  0.34996269501E-01  0.35000000000E-01  0.51099999109E-03 0.  1.
       11   -1    0    0    0    0 -0.00000000000E+00 -0.00000000000E+00 -0.34996269501E-01  0.35000000000E-01  0.51099999109E-03 0. -1.
       22    1    1    2    0    0  0.14640456499E-01 -0.11851991621E-01 -0.26076075938E-01  0.32167909603E-01  0.00000000000E+00 0. -1.
       22    1    1    2    0    0 -0.14981701114E-03  0.54915287333E-04 -0.31441598801E-02  0.31482061840E-02  0.00000000000E+00 0. -1.
       22    1    1    2    0    0 -0.14490639488E-01  0.11797076334E-01  0.29220235818E-01  0.34683884213E-01  0.00000000000E+00 0.  1.
</event>
<event>
 5   0  0.4146200E+04  0.9118800E+02  0.7546771E-02  0.1180000E+00
      -11   -1    0    0    0    0  0.00000000000E+00  0.00000000000E+00  0.34996269501E-01  0.35000000000E-01  0.51099999109E-03 0. -1.
       11   -1    0    0    0    0 -0.00000000000E+00 -0.00000000000E+00 -0.34996269501E-01  0.35000000000E-01  0.51099999109E-03 0.  1.
       22    1    1    2    0    0  0.20897581586E-01 -0.10086941138E-01 -0.25777026264E-01  0.34682998439E-01  0.00000000000E+00 0.  1.
       22    1    1    2    0    0 -0.20911306384E-01  0.10300928832E-01  0.26058360744E-01  0.34963266926E-01  0.00000000000E+00 0. -1.
       22    1    1    2    0    0  0.13724797106E-04 -0.21398769406E-03 -0.28133447920E-03  0.35373463564E-03  0.00000000000E+00 0. -1.
</event>
<event>
 5   0  0.4146200E+04  0.9118800E+02  0.7546771E-02  0.1180000E+00
      -11   -1    0    0    0    0  0.00000000000E+00  0.00000000000E+00  0.34996269501E-01  0.35000000000E-01  0.51099999109E-03 0. -1.
       11   -1    0    0    0    0 -0.00000000000E+00 -0.00000000000E+00 -0.34996269501E-01  0.35000000000E-01  0.51099999109E-03 0.  1.
       22    1    1    2    0    0 -0.13835610943E-02 -0.27310967093E-04 -0.10121968603E-02  0.17145056648E-02  0.00000000000E+00 0. -1.
       22    1    1    2    0    0 -0.20279220217E-01  0.12970669465E-02  0.27405223737E-01  0.34117084333E-01  0.00000000000E+00 0. -1.
       22    1    1    2    0    0  0.21662781311E-01 -0.12697559794E-02 -0.26393026877E-01  0.34168410003E-01  0.00000000000E+00 0.  1.
</event>
<event>
 5   0  0.4146200E+04  0.9118800E+02  0.7546771E-02  0.1180000E+00
      -11   -1    0    0    0    0  0.00000000000E+00  0.00000000000E+00  0.34996269501E-01  0.35000000000E-01  0.51099999109E-03 0. -1.
       11   -1    0    0    0    0 -0.00000000000E+00 -0.00000000000E+00 -0.34996269501E-01  0.35000000000E-01  0.51099999109E-03 0.  1.
       22    1    1    2    0    0  0.23226483920E-03  0.32543911760E-03  0.49750192488E-03  0.63825209757E-03  0.00000000000E+00 0. -1.
       22    1    1    2    0    0 -0.12669519533E-01 -0.16800094381E-02  0.32043736916E-01  0.34498409130E-01  0.00000000000E+00 0. -1.
       22    1    1    2    0    0  0.12437254694E-01  0.13545703205E-02 -0.32541238841E-01  0.34863338773E-01  0.00000000000E+00 0.  1.
</event>
<event>
 5   0  0.4146200E+04  0.9118800E+02  0.7546771E-02  0.1180000E+00
      -11   -1    0    0    0    0  0.00000000000E+00  0.00000000000E+00  0.34996269501E-01  0.35000000000E-01  0.51099999109E-03 0. -1.
       11   -1    0    0    0    0 -0.00000000000E+00 -0.00000000000E+00 -0.34996269501E-01  0.35000000000E-01  0.51099999109E-03 0.  1.
       22    1    1    2    0    0 -0.69865368663E-02  0.31555725515E-03  0.33457446728E-01  0.34180579506E-01  0.00000000000E+00 0. -1.
       22    1    1    2    0    0  0.89562349340E-02  0.10146562531E-02 -0.17489233450E-01  0.19675288007E-01  0.00000000000E+00 0.  1.
       22    1    1    2    0    0 -0.19696980676E-02 -0.13302135082E-02 -0.15968213278E-01  0.16144132487E-01  0.00000000000E+00 0. -1.
</event>
<event>
 5   0  0.4146200E+04  0.9118800E+02  0.7546771E-02  0.1180000E+00
      -11   -1    0    0    0    0  0.00000000000E+00  0.00000000000E+00  0.34996269501E-01  0.35000000000E-01  0.51099999109E-03 0. -1.
       11   -1    0    0    0    0 -0.00000000000E+00 -0.00000000000E+00 -0.34996269501E-01  0.35000000000E-01  0.51099999109E-03 0.  1.
       22    1    1    2    0    0 -0.54981353434E-02  0.43197780617E-02 -0.84292225578E-02  0.10951792898E-01  0.00000000000E+00 0.  1.
       22    1    1    2    0    0 -0.11105596065E-03  0.98242476714E-02 -0.22515082114E-01  0.24565363794E-01  0.00000000000E+00 0.  1.
       22    1    1    2    0    0  0.56091913041E-02 -0.14144025733E-01  0.30944304671E-01  0.34482843308E-01  0.00000000000E+00 0. -1.
</event>
<event>
 5   0  0.4146200E+04  0.9118800E+02  0.7546771E-02  0.1180000E+00
      -11   -1    0    0    0    0  0.00000000000E+00  0.00000000000E+00  0.34996269501E-01  0.35000000000E-01  0.51099999109E-03 0.  1.
       11   -1    0    0    0    0 -0.00000000000E+00 -0.00000000000E+00 -0.34996269501E-01  0.35000000000E-01  0.51099999109E-03 0. -1.
       22    1    1    2    0    0  0.22458200991E-02  0.10891266940E-01 -0.32135432762E-01  0.34005138469E-01  0.00000000000E+00 0. -1.
       22    1    1    2    0    0  0.10786637446E-02 -0.15027009880E-02 -0.46469742926E-03  0.19072413151E-02  0.00000000000E+00 0. -1.
       22    1    1    2    0    0 -0.33244838436E-02 -0.93885659521E-02  0.32600130192E-01  0.34087620216E-01  0.00000000000E+00 0.  1.
</event>
<event>
 5   0  0.4146200E+04  0.9118800E+02  0.7546771E-02  0.1180000E+00
      -11   -1    0    0    0    0  0.00000000000E+00  0.00000000000E+00  0.34996269501E-01  0.35000000000E-01  0.51099999109E-03 0.  1.
       11   -1    0    0    0    0 -0.00000000000E+00 -0.00000000000E+00 -0.34996269501E-01  0.35000000000E-01  0.51099999109E-03 0. -1.
       22    1    1    2    0    0  0.61468916846E-03 -0.31644491262E-03  0.28901577912E-01  0.28909845830E-01  0.00000000000E+00 0.  1.
       22    1    1    2    0    0 -0.58894841496E-02 -0.86904960821E-02 -0.28797955662E-01  0.30651802492E-01  0.00000000000E+00 0. -1.
       22    1    1    2    0    0  0.52747949811E-02  0.90069409947E-02 -0.10362224979E-03  0.10438351678E-01  0.00000000000E+00 0.  1.
</event>
<event>
 5   0  0.4146200E+04  0.9118800E+02  0.7546771E-02  0.1180000E+00
      -11   -1    0    0    0    0  0.00000000000E+00  0.00000000000E+00  0.34996269501E-01  0.35000000000E-01  0.51099999109E-03 0.  1.
       11   -1    0    0    0    0 -0.00000000000E+00 -0.00000000000E+00 -0.34996269501E-01  0.35000000000E-01  0.51099999109E-03 0. -1.
       22    1    1    2    0    0 -0.34728883433E-04  0.27271804056E-04  0.30548496332E-03  0.30865986046E-03  0.00000000000E+00 0.  1.
       22    1    1    2    0    0 -0.98148635294E-02 -0.19532893732E-01 -0.27291968389E-01  0.34967370822E-01  0.00000000000E+00 0. -1.
       22    1    1    2    0    0  0.98495924128E-02  0.19505621928E-01  0.26986483426E-01  0.34723969318E-01  0.00000000000E+00 0.  1.
</event>
<event>
 5   0  0.4146200E+04  0.9118800E+02  0.7546771E-02  0.1180000E+00
      -11   -1    0    0    0    0  0.00000000000E+00  0.00000000000E+00  0.34996269501E-01  0.35000000000E-01  0.51099999109E-03 0. -1.
       11   -1    0    0    0    0 -0.00000000000E+00 -0.00000000000E+00 -0.34996269501E-01  0.35000000000E-01  0.51099999109E-03 0. -1.
       22    1    1    2    0    0 -0.17661241083E-02 -0.13659759547E-01 -0.11433537464E-01  0.17900670496E-01  0.00000000000E+00 0.  1.
       22    1    1    2    0    0  0.68485007101E-03  0.13259685756E-01 -0.18152945635E-01  0.22490391753E-01  0.00000000000E+00 0. -1.
       22    1    1    2    0    0  0.10812740373E-02  0.40007379107E-03  0.29586483099E-01  0.29608937752E-01  0.00000000000E+00 0. -1.
</event>
<event>
 5   0  0.4146200E+04  0.9118800E+02  0.7546771E-02  0.1180000E+00
      -11   -1    0    0    0    0  0.00000000000E+00  0.00000000000E+00  0.34996269501E-01  0.35000000000E-01  0.51099999109E-03 0. -1.
       11   -1    0    0    0    0 -0.00000000000E+00 -0.00000000000E+00 -0.34996269501E-01  0.35000000000E-01  0.51099999109E-03 0.  1.
       22    1    1    2    0    0 -0.35733143419E-02 -0.15689369318E-01  0.30917138157E-01  0.34853899593E-01  0.00000000000E+00 0. -1.
       22    1    1    2    0    0  0.93940901566E-03  0.25126151347E-03 -0.27641599008E-02  0.29302221083E-02  0.00000000000E+00 0.  1.
       22    1    1    2    0    0  0.26339053262E-02  0.15438107805E-01 -0.28152978257E-01  0.32215878299E-01  0.00000000000E+00 0.  1.
</event>
<event>
 5   0  0.4146200E+04  0.9118800E+02  0.7546771E-02  0.1180000E+00
      -11   -1    0    0    0    0  0.00000000000E+00  0.00000000000E+00  0.34996269501E-01  0.35000000000E-01  0.51099999109E-03 0.  1.
       11   -1    0    0    0    0 -0.00000000000E+00 -0.00000000000E+00 -0.34996269501E-01  0.35000000000E-01  0.51099999109E-03 0. -1.
       22    1    1    2    0    0  0.71880231488E-02  0.10453310441E-01  0.31991183488E-01  0.34414752605E-01  0.00000000000E+00 0.  1.
       22    1    1    2    0    0 -0.28275251954E-02  0.11542925475E-03 -0.13893301249E-01  0.14178576876E-01  0.00000000000E+00 0. -1.
       22    1    1    2    0    0 -0.43604979534E-02 -0.10568739696E-01 -0.18097882239E-01  0.21406670519E-01  0.00000000000E+00 0. -1.
</event>
<event>
 5   0  0.4146200E+04  0.9118800E+02  0.7546771E-02  0.1180000E+00
      -11   -1    0    0    0    0  0.00000000000E+00  0.00000000000E+00  0.34996269501E-01  0.35000000000E-01  0.51099999109E-03 0. -1.
       11   -1    0    0    0    0 -0.00000000000E+00 -0.00000000000E+00 -0.34996269501E-01  0.35000000000E-01  0.51099999109E-03 0.  1.
       22    1    1    2    0    0 -0.37483710522E-03 -0.27982624010E-03 -0.53293564848E-03  0.70910223912E-03  0.00000000000E+00 0.  1.
       22    1    1    2    0    0 -0.42911866073E-02  0.22804376610E-02  0.34553538854E-01  0.34893577142E-01  0.00000000000E+00 0. -1.
       22    1    1    2    0    0  0.46660237126E-02 -0.20006114209E-02 -0.34020603205E-01  0.34397320619E-01  0.00000000000E+00 0.  1.
</event>
<event>
 5   0  0.4146200E+04  0.9118800E+02  0.7546771E-02  0.1180000E+00
      -11   -1    0    0    0    0  0.00000000000E+00  0.00000000000E+00  0.34996269501E-01  0.35000000000E-01  0.51099999109E-03 0.  1.
       11   -1    0    0    0    0 -0.00000000000E+00 -0.00000000000E+00 -0.34996269501E-01  0.35000000000E-01  0.51099999109E-03 0. -1.
       22    1    1    2    0    0  0.16427652671E-03  0.96157662982E-02 -0.14677619497E-01  0.17547719578E-01  0.00000000000E+00 0.  1.
       22    1    1    2    0    0 -0.16142573629E-01  0.12136285846E-01  0.15486782207E-01  0.25450197261E-01  0.00000000000E+00 0.  1.
       22    1    1    2    0    0  0.15978297102E-01 -0.21752052144E-01 -0.80916270928E-03  0.27002083161E-01  0.00000000000E+00 0. -1.
</event>
<event>
 5   0  0.4146200E+04  0.9118800E+02  0.7546771E-02  0.1180000E+00
      -11   -1    0    0    0    0  0.00000000000E+00  0.00000000000E+00  0.34996269501E-01  0.35000000000E-01  0.51099999109E-03 0. -1.
       11   -1    0    0    0    0 -0.00000000000E+00 -0.00000000000E+00 -0.34996269501E-01  0.35000000000E-01  0.51099999109E-03 0.  1.
       22    1    1    2    0    0  0.14616519244E-01  0.13523444690E-01 -0.22887468820E-01  0.30337475506E-01  0.00000000000E+00 0.  1.
       22    1    1    2    0    0 -0.14248077828E-01 -0.12286436045E-01  0.22082774051E-02  0.18943091659E-01  0.00000000000E+00 0. -1.
       22    1    1    2    0    0 -0.36844141595E-03 -0.12370086442E-02  0.20679191415E-01  0.20719432835E-01  0.00000000000E+00 0. -1.
</event>
<event>
 5   0  0.4146200E+04  0.9118800E+02  0.7546771E-02  0.1180000E+00
      -11   -1    0    0    0    0  0.00000000000E+00  0.00000000000E+00  0.34996269501E-01  0.35000000000E-01  0.51099999109E-03 0.  1.
       11   -1    0    0    0    0 -0.00000000000E+00 -0.00000000000E+00 -0.34996269501E-01  0.35000000000E-01  0.51099999109E-03 0. -1.
       22    1    1    2    0    0 -0.14345057502E-01 -0.77491075020E-02 -0.30875187277E-01  0.34915706082E-01  0.00000000000E+00 0. -1.
       22    1    1    2    0    0  0.14327084208E-01  0.77193083373E-02  0.29360543965E-01  0.33569250886E-01  0.00000000000E+00 0.  1.
       22    1    1    2    0    0  0.17973293978E-04  0.29799164728E-04  0.15146433116E-02  0.15150430327E-02  0.00000000000E+00 0.  1.
</event>
<event>
 5   0  0.4146200E+04  0.9118800E+02  0.7546771E-02  0.1180000E+00
      -11   -1    0    0    0    0  0.00000000000E+00  0.00000000000E+00  0.34996269501E-01  0.35000000000E-01  0.51099999109E-03 0.  1.
       11   -1    0    0    0    0 -0.00000000000E+00 -0.00000000000E+00 -0.34996269501E-01  0.35000000000E-01  0.51099999109E-03 0. -1.
       22    1    1    2    0    0  0.85494359014E-02 -0.12885098933E-01 -0.30673174884E-01  0.34350579125E-01  0.00000000000E+00 0. -1.
       22    1    1    2    0    0 -0.81079216411E-02  0.12041068603E-01  0.18868746724E-01  0.23806623645E-01  0.00000000000E+00 0.  1.
       22    1    1    2    0    0 -0.44151426032E-03  0.84403033067E-03  0.11804428161E-01  0.11842797230E-01  0.00000000000E+00 0.  1.
</event>
<event>
 5   0  0.4146200E+04  0.9118800E+02  0.7546771E-02  0.1180000E+00
      -11   -1    0    0    0    0  0.00000000000E+00  0.00000000000E+00  0.34996269501E-01  0.35000000000E-01  0.51099999109E-03 0. -1.
       11   -1    0    0    0    0 -0.00000000000E+00 -0.00000000000E+00 -0.34996269501E-01  0.35000000000E-01  0.51099999109E-03 0.  1.
       22    1    1    2    0    0  0.25245483147E-05 -0.73916779850E-03 -0.86335413703E-03  0.11365543426E-02  0.00000000000E+00 0. -1.
       22    1    1    2    0    0  0.67802736104E-02  0.18679422889E-01 -0.27923331516E-01  0.34272516579E-01  0.00000000000E+00 0.  1.
       22    1    1    2    0    0 -0.67827981587E-02 -0.17940255091E-01  0.28786685653E-01  0.34590929078E-01  0.00000000000E+00 0. -1.
</event>
<event>
 5   0  0.4146200E+04  0.9118800E+02  0.7546771E-02  0.1180000E+00
      -11   -1    0    0    0    0  0.00000000000E+00  0.00000000000E+00  0.34996269501E-01  0.35000000000E-01  0.51099999109E-03 0.  1.
       11   -1    0    0    0    0 -0.00000000000E+00 -0.00000000000E+00 -0.34996269501E-01  0.35000000000E-01  0.51099999109E-03 0. -1.
       22    1    1    2    0    0 -0.11110780102E-02  0.42600097744E-02 -0.21087353285E-02  0.48814897632E-02  0.00000000000E+00 0.  1.
       22    1    1    2    0    0 -0.16612737460E-03  0.73378081844E-02  0.32104767165E-01  0.32933070036E-01  0.00000000000E+00 0.  1.
       22    1    1    2    0    0  0.12772053848E-02 -0.11597817959E-01 -0.29996031837E-01  0.32185440201E-01  0.00000000000E+00 0. -1.
</event>
<event>
 5   0  0.4146200E+04  0.9118800E+02  0.7546771E-02  0.1180000E+00
      -11   -1    0    0    0    0  0.00000000000E+00  0.00000000000E+00  0.34996269501E-01  0.35000000000E-01  0.51099999109E-03 0.  1.
       11   -1    0    0    0    0 -0.00000000000E+00 -0.00000000000E+00 -0.34996269501E-01  0.35000000000E-01  0.51099999109E-03 0. -1.
       22    1    1    2    0    0  0.81974277010E-02  0.63078819883E-02  0.32903590492E-01  0.34491063529E-01  0.00000000000E+00 0.  1.
       22    1    1    2    0    0 -0.96593832631E-02 -0.47657369494E-02 -0.23243536050E-01  0.25617921496E-01  0.00000000000E+00 0. -1.
       22    1    1    2    0    0  0.14619555622E-02 -0.15421450389E-02 -0.96600544426E-02  0.98910149743E-02  0.00000000000E+00 0. -1.
</event>
<event>
 5   0  0.4146200E+04  0.9118800E+02  0.7546771E-02  0.1180000E+00
      -11   -1    0    0    0    0  0.00000000000E+00  0.00000000000E+00  0.34996269501E-01  0.35000000000E-01  0.51099999109E-03 0. -1.
       11   -1    0    0    0    0 -0.00000000000E+00 -0.00000000000E+00 -0.34996269501E-01  0.35000000000E-01  0.51099999109E-03 0.  1.
       22    1    1    2    0    0  0.13630424153E-01 -0.13969516565E-01 -0.28961509266E-01  0.34924273431E-01  0.00000000000E+00 0.  1.
       22    1    1    2    0    0 -0.45122759641E-03  0.12388745120E-02  0.10434088819E-02  0.16814037276E-02  0.00000000000E+00 0. -1.
       22    1    1    2    0    0 -0.13179196557E-01  0.12730642053E-01  0.27918100384E-01  0.33394322842E-01  0.00000000000E+00 0. -1.
</event>
<event>
 5   0  0.4146200E+04  0.9118800E+02  0.7546771E-02  0.1180000E+00
      -11   -1    0    0    0    0  0.00000000000E+00  0.00000000000E+00  0.34996269501E-01  0.35000000000E-01  0.51099999109E-03 0. -1.
       11   -1    0    0    0    0 -0.00000000000E+00 -0.00000000000E+00 -0.34996269501E-01  0.35000000000E-01  0.51099999109E-03 0.  1.
       22    1    1    2    0    0  0.31347292326E-02 -0.11201812250E-01 -0.25012383835E-01  0.27584895689E-01  0.00000000000E+00 0.  1.
       22    1    1    2    0    0 -0.38222481543E-02  0.10126193332E-01 -0.53168964783E-02  0.12058970126E-01  0.00000000000E+00 0. -1.
       22    1    1    2    0    0  0.68751892169E-03  0.10756189180E-02  0.30329280313E-01  0.30356134185E-01  0.00000000000E+00 0. -1.
</event>
<event>
 5   0  0.4146200E+04  0.9118800E+02  0.7546771E-02  0.1180000E+00
      -11   -1    0    0    0    0  0.00000000000E+00  0.00000000000E+00  0.34996269501E-01  0.35000000000E-01  0.51099999109E-03 0. -1.
       11   -1    0    0    0    0 -0.00000000000E+00 -0.00000000000E+00 -0.34996269501E-01  0.35000000000E-01  0.51099999109E-03 0. -1.
       22    1    1    2    0    0 -0.00000000000E+00  0.00000000000E+00  0.34573218748E-01  0.34572976012E-01  0.00000000000E+00 0. -1.
       22    1    1    2    0    0 -0.93541532367E-03  0.33042098180E-02 -0.91549209541E-02  0.97778004697E-02  0.00000000000E+00 0.  1.
       22    1    1    2    0    0  0.93541532367E-03 -0.33042098180E-02 -0.25418297794E-01  0.25649223518E-01  0.00000000000E+00 0. -1.
</event>
<event>
 5   0  0.4146200E+04  0.9118800E+02  0.7546771E-02  0.1180000E+00
      -11   -1    0    0    0    0  0.00000000000E+00  0.00000000000E+00  0.34996269501E-01  0.35000000000E-01  0.51099999109E-03 0.  1.
       11   -1    0    0    0    0 -0.00000000000E+00 -0.00000000000E+00 -0.34996269501E-01  0.35000000000E-01  0.51099999109E-03 0. -1.
       22    1    1    2    0    0 -0.12472608643E-01  0.65969649042E-02  0.28759182704E-01  0.32033989794E-01  0.00000000000E+00 0.  1.
       22    1    1    2    0    0  0.21143663704E-02 -0.98870759593E-02 -0.39032928262E-02  0.10837920052E-01  0.00000000000E+00 0.  1.
       22    1    1    2    0    0  0.10358242273E-01  0.32901110552E-02 -0.24855889878E-01  0.27128090153E-01  0.00000000000E+00 0. -1.
</event>
<event>
 5   0  0.4146200E+04  0.9118800E+02  0.7546771E-02  0.1180000E+00
      -11   -1    0    0    0    0  0.00000000000E+00  0.00000000000E+00  0.34996269501E-01  0.35000000000E-01  0.51099999109E-03 0. -1.
       11   -1    0    0    0    0 -0.00000000000E+00 -0.00000000000E+00 -0.34996269501E-01  0.35000000000E-01  0.51099999109E-03 0.  1.
       22    1    1    2    0    0 -0.15677709484E-01 -0.11708937998E-01 -0.10726848261E-01  0.22314907065E-01  0.00000000000E+00 0.  1.
       22    1    1    2    0    0  0.21822924173E-01  0.17053922484E-01  0.20868395818E-01  0.34678036789E-01  0.00000000000E+00 0. -1.
       22    1    1    2    0    0 -0.61452146890E-02 -0.53449844861E-02 -0.10141547557E-01  0.13007056146E-01  0.00000000000E+00 0. -1.
</event>
<event>
 5   0  0.4146200E+04  0.9118800E+02  0.7546771E-02  0.1180000E+00
      -11   -1    0    0    0    0  0.00000000000E+00  0.00000000000E+00  0.34996269501E-01  0.35000000000E-01  0.51099999109E-03 0.  1.
       11   -1    0    0    0    0 -0.00000000000E+00 -0.00000000000E+00 -0.34996269501E-01  0.35000000000E-01  0.51099999109E-03 0. -1.
       22    1    1    2    0    0 -0.13509528804E-02  0.53953257004E-03 -0.34621352315E-02  0.37553361288E-02  0.00000000000E+00 0. -1.
       22    1    1    2    0    0 -0.59159425785E-03  0.22817735824E-02 -0.31262624668E-01  0.31351366407E-01  0.00000000000E+00 0. -1.
       22    1    1    2    0    0  0.19425471383E-02 -0.28213061525E-02  0.34724759900E-01  0.34893297464E-01  0.00000000000E+00 0.  1.
</event>
<event>
 5   0  0.4146200E+04  0.9118800E+02  0.7546771E-02  0.1180000E+00
      -11   -1    0    0    0    0  0.00000000000E+00  0.00000000000E+00  0.34996269501E-01  0.35000000000E-01  0.51099999109E-03 0.  1.
       11   -1    0    0    0    0 -0.00000000000E+00 -0.00000000000E+00 -0.34996269501E-01  0.35000000000E-01  0.51099999109E-03 0. -1.
       22    1    1    2    0    0 -0.31644092357E-02  0.21486553504E-02 -0.88665942115E-02  0.96564330132E-02  0.00000000000E+00 0. -1.
       22    1    1    2    0    0 -0.87118919653E-03 -0.38520371871E-03 -0.25589466447E-01  0.25607189334E-01  0.00000000000E+00 0. -1.
       22    1    1    2    0    0  0.40355984323E-02 -0.17634516317E-02  0.34456060659E-01  0.34736377653E-01  0.00000000000E+00 0.  1.
</event>
<event>
 5   0  0.4146200E+04  0.9118800E+02  0.7546771E-02  0.1180000E+00
      -11   -1    0    0    0    0  0.00000000000E+00  0.00000000000E+00  0.34996269501E-01  0.35000000000E-01  0.51099999109E-03 0. -1.
       11   -1    0    0    0    0 -0.00000000000E+00 -0.00000000000E+00 -0.34996269501E-01  0.35000000000E-01  0.51099999109E-03 0.  1.
       22    1    1    2    0    0  0.16363625282E-02  0.17374430936E-01  0.29760671105E-01  0.34499943149E-01  0.00000000000E+00 0. -1.
       22    1    1    2    0    0  0.22446198257E-03 -0.15093550226E-01 -0.28593451107E-01  0.32333436066E-01  0.00000000000E+00 0.  1.
       22    1    1    2    0    0 -0.18608245108E-02 -0.22808807095E-02 -0.11672199984E-02  0.31666207850E-02  0.00000000000E+00 0.  1.
</event>
<event>
 5   0  0.4146200E+04  0.9118800E+02  0.7546771E-02  0.1180000E+00
      -11   -1    0    0    0    0  0.00000000000E+00  0.00000000000E+00  0.34996269501E-01  0.35000000000E-01  0.51099999109E-03 0. -1.
       11   -1    0    0    0    0 -0.00000000000E+00 -0.00000000000E+00 -0.34996269501E-01  0.35000000000E-01  0.51099999109E-03 0.  1.
       22    1    1    2    0    0  0.24156431356E-02 -0.11010734986E-02 -0.32692168512E-01  0.32799780130E-01  0.00000000000E+00 0.  1.
       22    1    1    2    0    0 -0.15419855043E-02  0.36843367470E-03  0.34782782995E-01  0.34818895094E-01  0.00000000000E+00 0. -1.
       22    1    1    2    0    0 -0.87365763124E-03  0.73263982393E-03 -0.20906144836E-02  0.23813247757E-02  0.00000000000E+00 0. -1.
</event>
<event>
 5   0  0.4146200E+04  0.9118800E+02  0.7546771E-02  0.1180000E+00
      -11   -1    0    0    0    0  0.00000000000E+00  0.00000000000E+00  0.34996269501E-01  0.35000000000E-01  0.51099999109E-03 0. -1.
       11   -1    0    0    0    0 -0.00000000000E+00 -0.00000000000E+00 -0.34996269501E-01  0.35000000000E-01  0.51099999109E-03 0.  1.
       22    1    1    2    0    0  0.38565108850E-02 -0.53302964796E-02 -0.32315329232E-01  0.32978254049E-01  0.00000000000E+00 0.  1.
       22    1    1    2    0    0 -0.48423951097E-02  0.41719682415E-02  0.34090214761E-01  0.34684245009E-01  0.00000000000E+00 0. -1.
       22    1    1    2    0    0  0.98588422463E-03  0.11583282380E-02 -0.17748855288E-02  0.23375009415E-02  0.00000000000E+00 0.  1.
</event>
<event>
 5   0  0.4146200E+04  0.9118800E+02  0.7546771E-02  0.1180000E+00
      -11   -1    0    0    0    0  0.00000000000E+00  0.00000000000E+00  0.34996269501E-01  0.35000000000E-01  0.51099999109E-03 0.  1.
       11   -1    0    0    0    0 -0.00000000000E+00 -0.00000000000E+00 -0.34996269501E-01  0.35000000000E-01  0.51099999109E-03 0.  1.
       22    1    1    2    0    0  0.31066211075E-02 -0.10153490749E-01 -0.29455308460E-01  0.31310695706E-01  0.00000000000E+00 0.  1.
       22    1    1    2    0    0 -0.33362593695E-02  0.10174816469E-01  0.15925664410E-02  0.10825607817E-01  0.00000000000E+00 0. -1.
       22    1    1    2    0    0  0.22963826202E-03 -0.21325719822E-04  0.27862742019E-01  0.27863696477E-01  0.00000000000E+00 0.  1.
</event>
<event>
 5   0  0.4146200E+04  0.9118800E+02  0.7546771E-02  0.1180000E+00
      -11   -1    0    0    0    0  0.00000000000E+00  0.00000000000E+00  0.34996269501E-01  0.35000000000E-01  0.51099999109E-03 0. -1.
       11   -1    0    0    0    0 -0.00000000000E+00 -0.00000000000E+00 -0.34996269501E-01  0.35000000000E-01  0.51099999109E-03 0.  1.
       22    1    1    2    0    0 -0.19675377070E-01  0.27310662526E-01 -0.77284834478E-02  0.34535810500E-01  0.00000000000E+00 0.  1.
       22    1    1    2    0    0 -0.80141467208E-05  0.20445546546E-03 -0.59110438355E-03  0.62551631166E-03  0.00000000000E+00 0.  1.
       22    1    1    2    0    0  0.19683391216E-01 -0.27515117992E-01  0.83195878313E-02  0.34838673189E-01  0.00000000000E+00 0. -1.
</event>
<event>
 5   0  0.4146200E+04  0.9118800E+02  0.7546771E-02  0.1180000E+00
      -11   -1    0    0    0    0  0.00000000000E+00  0.00000000000E+00  0.34996269501E-01  0.35000000000E-01  0.51099999109E-03 0.  1.
       11   -1    0    0    0    0 -0.00000000000E+00 -0.00000000000E+00 -0.34996269501E-01  0.35000000000E-01  0.51099999109E-03 0. -1.
       22    1    1    2    0    0  0.71291699688E-03 -0.18549853417E-04  0.34962871793E-01  0.34970144392E-01  0.00000000000E+00 0.  1.
       22    1    1    2    0    0 -0.16972365039E-03  0.14061125001E-03 -0.35733310860E-03  0.41983876862E-03  0.00000000000E+00 0. -1.
       22    1    1    2    0    0 -0.54319334649E-03 -0.12206139659E-03 -0.34605538685E-01  0.34610016840E-01  0.00000000000E+00 0. -1.
</event>
<event>
 5   0  0.4146200E+04  0.9118800E+02  0.7546771E-02  0.1180000E+00
      -11   -1    0    0    0    0  0.00000000000E+00  0.00000000000E+00  0.34996269501E-01  0.35000000000E-01  0.51099999109E-03 0.  1.
       11   -1    0    0    0    0 -0.00000000000E+00 -0.00000000000E+00 -0.34996269501E-01  0.35000000000E-01  0.51099999109E-03 0. -1.
       22    1    1    2    0    0  0.14976114272E-02  0.92373894122E-04  0.20534489570E-01  0.20589235897E-01  0.00000000000E+00 0.  1.
       22    1    1    2    0    0  0.66224031454E-02  0.13539844710E-01  0.77734594786E-02  0.16959076934E-01  0.00000000000E+00 0.  1.
       22    1    1    2    0    0 -0.81200145727E-02 -0.13632218604E-01 -0.28307949049E-01  0.32451687169E-01  0.00000000000E+00 0. -1.
</event>
<event>
 5   0  0.4146200E+04  0.9118800E+02  0.7546771E-02  0.1180000E+00
      -11   -1    0    0    0    0  0.00000000000E+00  0.00000000000E+00  0.34996269501E-01  0.35000000000E-01  0.51099999109E-03 0.  1.
       11   -1    0    0    0    0 -0.00000000000E+00 -0.00000000000E+00 -0.34996269501E-01  0.35000000000E-01  0.51099999109E-03 0. -1.
       22    1    1    2    0    0  0.10937842710E-01 -0.20821353923E-01  0.25649583607E-01  0.34800378181E-01  0.00000000000E+00 0.  1.
       22    1    1    2    0    0 -0.11069284108E-01  0.21014520449E-01 -0.24887061137E-01  0.34402106511E-01  0.00000000000E+00 0. -1.
       22    1    1    2    0    0  0.13144139769E-03 -0.19316652643E-03 -0.76252247048E-03  0.79751530766E-03  0.00000000000E+00 0.  1.
</event>
<event>
 5   0  0.4146200E+04  0.9118800E+02  0.7546771E-02  0.1180000E+00
      -11   -1    0    0    0    0  0.00000000000E+00  0.00000000000E+00  0.34996269501E-01  0.35000000000E-01  0.51099999109E-03 0.  1.
       11   -1    0    0    0    0 -0.00000000000E+00 -0.00000000000E+00 -0.34996269501E-01  0.35000000000E-01  0.51099999109E-03 0. -1.
       22    1    1    2    0    0  0.82353769736E-02 -0.13789204423E-01  0.29753218630E-01  0.33811501170E-01  0.00000000000E+00 0.  1.
       22    1    1    2    0    0 -0.93955487638E-02  0.96229733974E-02 -0.28762785782E-01  0.31751784194E-01  0.00000000000E+00 0. -1.
       22    1    1    2    0    0  0.11601717902E-02  0.41662310251E-02 -0.99043284783E-03  0.44367146363E-02  0.00000000000E+00 0.  1.
</event>
<event>
 5   0  0.4146200E+04  0.9118800E+02  0.7546771E-02  0.1180000E+00
      -11   -1    0    0    0    0  0.00000000000E+00  0.00000000000E+00  0.34996269501E-01  0.35000000000E-01  0.51099999109E-03 0. -1.
       11   -1    0    0    0    0 -0.00000000000E+00 -0.00000000000E+00 -0.34996269501E-01  0.35000000000E-01  0.51099999109E-03 0.  1.
       22    1    1    2    0    0 -0.20670789602E-01 -0.25550606534E-02 -0.27571266059E-01  0.34554082100E-01  0.00000000000E+00 0.  1.
       22    1    1    2    0    0 -0.47269360544E-04 -0.35409999493E-04  0.38262678185E-02  0.38267236220E-02  0.00000000000E+00 0. -1.
       22    1    1    2    0    0  0.20718058962E-01  0.25904706529E-02  0.23744998240E-01  0.31619194278E-01  0.00000000000E+00 0. -1.
</event>
<event>
 5   0  0.4146200E+04  0.9118800E+02  0.7546771E-02  0.1180000E+00
      -11   -1    0    0    0    0  0.00000000000E+00  0.00000000000E+00  0.34996269501E-01  0.35000000000E-01  0.51099999109E-03 0.  1.
       11   -1    0    0    0    0 -0.00000000000E+00 -0.00000000000E+00 -0.34996269501E-01  0.35000000000E-01  0.51099999109E-03 0. -1.
       22    1    1    2    0    0 -0.17687193611E-03 -0.11305144815E-02 -0.46039344726E-02  0.47440024560E-02  0.00000000000E+00 0. -1.
       22    1    1    2    0    0  0.14123136902E-01 -0.15785081765E-01  0.26732258296E-01  0.34106384093E-01  0.00000000000E+00 0.  1.
       22    1    1    2    0    0 -0.13946264966E-01  0.16915596247E-01 -0.22128323824E-01  0.31149613451E-01  0.00000000000E+00 0. -1.
</event>
<event>
 5   0  0.4146200E+04  0.9118800E+02  0.7546771E-02  0.1180000E+00
      -11   -1    0    0    0    0  0.00000000000E+00  0.00000000000E+00  0.34996269501E-01  0.35000000000E-01  0.51099999109E-03 0.  1.
       11   -1    0    0    0    0 -0.00000000000E+00 -0.00000000000E+00 -0.34996269501E-01  0.35000000000E-01  0.51099999109E-03 0. -1.
       22    1    1    2    0    0 -0.89047366772E-02  0.72331903442E-02  0.30914394876E-01  0.32974432344E-01  0.00000000000E+00 0.  1.
       22    1    1    2    0    0  0.59376344604E-04 -0.87818595145E-04  0.21026622821E-02  0.21053328308E-02  0.00000000000E+00 0.  1.
       22    1    1    2    0    0  0.88453603326E-02 -0.71453717490E-02 -0.33017057158E-01  0.34920234825E-01  0.00000000000E+00 0. -1.
</event>
<event>
 5   0  0.4146200E+04  0.9118800E+02  0.7546771E-02  0.1180000E+00
      -11   -1    0    0    0    0  0.00000000000E+00  0.00000000000E+00  0.34996269501E-01  0.35000000000E-01  0.51099999109E-03 0.  1.
       11   -1    0    0    0    0 -0.00000000000E+00 -0.00000000000E+00 -0.34996269501E-01  0.35000000000E-01  0.51099999109E-03 0. -1.
       22    1    1    2    0    0  0.17055918346E-02 -0.54058037182E-03 -0.38197153670E-02  0.42179966962E-02  0.00000000000E+00 0. -1.
       22    1    1    2    0    0 -0.66113492136E-03  0.13303329119E-02 -0.30951005061E-01  0.30986635819E-01  0.00000000000E+00 0. -1.
       22    1    1    2    0    0 -0.10444569133E-02 -0.78975254007E-03  0.34770720428E-01  0.34795367485E-01  0.00000000000E+00 0.  1.
</event>
<event>
 5   0  0.4146200E+04  0.9118800E+02  0.7546771E-02  0.1180000E+00
      -11   -1    0    0    0    0  0.00000000000E+00  0.00000000000E+00  0.34996269501E-01  0.35000000000E-01  0.51099999109E-03 0. -1.
       11   -1    0    0    0    0 -0.00000000000E+00 -0.00000000000E+00 -0.34996269501E-01  0.35000000000E-01  0.51099999109E-03 0.  1.
       22    1    1    2    0    0 -0.39372596394E-03  0.78959371303E-03  0.29627451470E-01  0.29640586347E-01  0.00000000000E+00 0. -1.
       22    1    1    2    0    0  0.99473740685E-02  0.49681617837E-02 -0.30404036774E-02  0.11527225897E-01  0.00000000000E+00 0. -1.
       22    1    1    2    0    0 -0.95536481045E-02 -0.57577554967E-02 -0.26587047793E-01  0.28832187756E-01  0.00000000000E+00 0.  1.
</event>
<event>
 5   0  0.4146200E+04  0.9118800E+02  0.7546771E-02  0.1180000E+00
      -11   -1    0    0    0    0  0.00000000000E+00  0.00000000000E+00  0.34996269501E-01  0.35000000000E-01  0.51099999109E-03 0. -1.
       11   -1    0    0    0    0 -0.00000000000E+00 -0.00000000000E+00 -0.34996269501E-01  0.35000000000E-01  0.51099999109E-03 0.  1.
       22    1    1    2    0    0 -0.10968950771E-01 -0.16461170956E-02  0.99618162433E-02  0.14908566845E-01  0.00000000000E+00 0. -1.
       22    1    1    2    0    0 -0.40477375989E-02  0.47307154133E-02  0.20264701551E-01  0.21199574924E-01  0.00000000000E+00 0. -1.
       22    1    1    2    0    0  0.15016688370E-01 -0.30845983177E-02 -0.30226517794E-01  0.33891858231E-01  0.00000000000E+00 0.  1.
</event>
<event>
 5   0  0.4146200E+04  0.9118800E+02  0.7546771E-02  0.1180000E+00
      -11   -1    0    0    0    0  0.00000000000E+00  0.00000000000E+00  0.34996269501E-01  0.35000000000E-01  0.51099999109E-03 0. -1.
       11   -1    0    0    0    0 -0.00000000000E+00 -0.00000000000E+00 -0.34996269501E-01  0.35000000000E-01  0.51099999109E-03 0.  1.
       22    1    1    2    0    0 -0.14752348335E-01 -0.44069815192E-02  0.27383863446E-01  0.31415430042E-01  0.00000000000E+00 0. -1.
       22    1    1    2    0    0  0.14601279525E-01  0.42227613665E-02 -0.31229276688E-01  0.34731783712E-01  0.00000000000E+00 0.  1.
       22    1    1    2    0    0  0.15106881073E-03  0.18422015274E-03  0.38454132426E-02  0.38527862459E-02  0.00000000000E+00 0. -1.
</event>
<event>
 5   0  0.4146200E+04  0.9118800E+02  0.7546771E-02  0.1180000E+00
      -11   -1    0    0    0    0  0.00000000000E+00  0.00000000000E+00  0.34996269501E-01  0.35000000000E-01  0.51099999109E-03 0.  1.
       11   -1    0    0    0    0 -0.00000000000E+00 -0.00000000000E+00 -0.34996269501E-01  0.35000000000E-01  0.51099999109E-03 0. -1.
       22    1    1    2    0    0 -0.63202183052E-02  0.35024802093E-02 -0.32160906836E-01  0.32962652435E-01  0.00000000000E+00 0. -1.
       22    1    1    2    0    0  0.69529165243E-02 -0.23288053066E-02  0.33991082748E-01  0.34772979290E-01  0.00000000000E+00 0.  1.
       22    1    1    2    0    0 -0.63269821910E-03 -0.11736749028E-02 -0.18301759118E-02  0.22643682744E-02  0.00000000000E+00 0.  1.
</event>
<event>
 5   0  0.4146200E+04  0.9118800E+02  0.7546771E-02  0.1180000E+00
      -11   -1    0    0    0    0  0.00000000000E+00  0.00000000000E+00  0.34996269501E-01  0.35000000000E-01  0.51099999109E-03 0.  1.
       11   -1    0    0    0    0 -0.00000000000E+00 -0.00000000000E+00 -0.34996269501E-01  0.35000000000E-01  0.51099999109E-03 0. -1.
       22    1    1    2    0    0 -0.34973480133E-04  0.41409741120E-04  0.71450803371E-03  0.71656098220E-03  0.00000000000E+00 0. -1.
       22    1    1    2    0    0 -0.39004102368E-02  0.11583703341E-01  0.32046848666E-01  0.34298628143E-01  0.00000000000E+00 0.  1.
       22    1    1    2    0    0  0.39353837169E-02 -0.11625113082E-01 -0.32761356699E-01  0.34984810875E-01  0.00000000000E+00 0. -1.
</event>
<event>
 5   0  0.4146200E+04  0.9118800E+02  0.7546771E-02  0.1180000E+00
      -11   -1    0    0    0    0  0.00000000000E+00  0.00000000000E+00  0.34996269501E-01  0.35000000000E-01  0.51099999109E-03 0.  1.
       11   -1    0    0    0    0 -0.00000000000E+00 -0.00000000000E+00 -0.34996269501E-01  0.35000000000E-01  0.51099999109E-03 0. -1.
       22    1    1    2    0    0  0.11790583780E-01 -0.82880955124E-03  0.31219268921E-01  0.33381844514E-01  0.00000000000E+00 0.  1.
       22    1    1    2    0    0 -0.12686316944E-01  0.14595943909E-02 -0.32508258482E-01  0.34926493138E-01  0.00000000000E+00 0. -1.
       22    1    1    2    0    0  0.89573316386E-03 -0.63078483967E-03  0.12889895605E-02  0.16916623487E-02  0.00000000000E+00 0.  1.
</event>
<event>
 5   0  0.4146200E+04  0.9118800E+02  0.7546771E-02  0.1180000E+00
      -11   -1    0    0    0    0  0.00000000000E+00  0.00000000000E+00  0.34996269501E-01  0.35000000000E-01  0.51099999109E-03 0. -1.
       11   -1    0    0    0    0 -0.00000000000E+00 -0.00000000000E+00 -0.34996269501E-01  0.35000000000E-01  0.51099999109E-03 0.  1.
       22    1    1    2    0    0 -0.27410678871E-02  0.13270372567E-02 -0.32804269763E-02  0.44761235672E-02  0.00000000000E+00 0.  1.
       22    1    1    2    0    0 -0.48094617578E-03 -0.48087009326E-03 -0.31037346254E-01  0.31044796790E-01  0.00000000000E+00 0.  1.
       22    1    1    2    0    0  0.32220140628E-02 -0.84616716339E-03  0.34317773230E-01  0.34479079642E-01  0.00000000000E+00 0. -1.
</event>
<event>
 5   0  0.4146200E+04  0.9118800E+02  0.7546771E-02  0.1180000E+00
      -11   -1    0    0    0    0  0.00000000000E+00  0.00000000000E+00  0.34996269501E-01  0.35000000000E-01  0.51099999109E-03 0. -1.
       11   -1    0    0    0    0 -0.00000000000E+00 -0.00000000000E+00 -0.34996269501E-01  0.35000000000E-01  0.51099999109E-03 0.  1.
       22    1    1    2    0    0  0.47893735052E-02 -0.71183359761E-02 -0.12270656628E-01  0.14972568908E-01  0.00000000000E+00 0.  1.
       22    1    1    2    0    0 -0.93183227460E-03  0.74800657442E-03 -0.20949093093E-01  0.20983143869E-01  0.00000000000E+00 0.  1.
       22    1    1    2    0    0 -0.38575412306E-02  0.63703294017E-02  0.33219749720E-01  0.34044287223E-01  0.00000000000E+00 0. -1.
</event>
<event>
 5   0  0.4146200E+04  0.9118800E+02  0.7546771E-02  0.1180000E+00
      -11   -1    0    0    0    0  0.00000000000E+00  0.00000000000E+00  0.34996269501E-01  0.35000000000E-01  0.51099999109E-03 0. -1.
       11   -1    0    0    0    0 -0.00000000000E+00 -0.00000000000E+00 -0.34996269501E-01  0.35000000000E-01  0.51099999109E-03 0.  1.
       22    1    1    2    0    0  0.86905660107E-04 -0.35586098887E-03 -0.40481943367E-03  0.54595641862E-03  0.00000000000E+00 0.  1.
       22    1    1    2    0    0 -0.30133729077E-02  0.26849534327E-02  0.34710862712E-01  0.34944718935E-01  0.00000000000E+00 0. -1.
       22    1    1    2    0    0  0.29264672476E-02 -0.23290924438E-02 -0.34306043278E-01  0.34509324647E-01  0.00000000000E+00 0.  1.
</event>
<event>
 5   0  0.4146200E+04  0.9118800E+02  0.7546771E-02  0.1180000E+00
      -11   -1    0    0    0    0  0.00000000000E+00  0.00000000000E+00  0.34996269501E-01  0.35000000000E-01  0.51099999109E-03 0.  1.
       11   -1    0    0    0    0 -0.00000000000E+00 -0.00000000000E+00 -0.34996269501E-01  0.35000000000E-01  0.51099999109E-03 0. -1.
       22    1    1    2    0    0 -0.86204292008E-04 -0.29602677251E-03 -0.38363526040E-03  0.49217785711E-03  0.00000000000E+00 0.  1.
       22    1    1    2    0    0 -0.16960904019E-01  0.27936761267E-01 -0.11908759597E-01  0.34784385152E-01  0.00000000000E+00 0. -1.
       22    1    1    2    0    0  0.17047108311E-01 -0.27640734494E-01  0.12292394857E-01  0.34723436991E-01  0.00000000000E+00 0.  1.
</event>
<event>
 5   0  0.4146200E+04  0.9118800E+02  0.7546771E-02  0.1180000E+00
      -11   -1    0    0    0    0  0.00000000000E+00  0.00000000000E+00  0.34996269501E-01  0.35000000000E-01  0.51099999109E-03 0.  1.
       11   -1    0    0    0    0 -0.00000000000E+00 -0.00000000000E+00 -0.34996269501E-01  0.35000000000E-01  0.51099999109E-03 0. -1.
       22    1    1    2    0    0  0.13732000598E-02 -0.82961925821E-03  0.34801194022E-01  0.34838155116E-01  0.00000000000E+00 0.  1.
       22    1    1    2    0    0  0.83283144150E-03 -0.10044085602E-02 -0.36021300294E-02  0.38311598132E-02  0.00000000000E+00 0.  1.
       22    1    1    2    0    0 -0.22060315013E-02  0.18340278185E-02 -0.31199063992E-01  0.31330685071E-01  0.00000000000E+00 0. -1.
</event>
<event>
 5   0  0.4146200E+04  0.9118800E+02  0.7546771E-02  0.1180000E+00
      -11   -1    0    0    0    0  0.00000000000E+00  0.00000000000E+00  0.34996269501E-01  0.35000000000E-01  0.51099999109E-03 0.  1.
       11   -1    0    0    0    0 -0.00000000000E+00 -0.00000000000E+00 -0.34996269501E-01  0.35000000000E-01  0.51099999109E-03 0.  1.
       22    1    1    2    0    0  0.89545309488E-04  0.80561261973E-03 -0.34479795549E-01  0.34489321987E-01  0.00000000000E+00 0.  1.
       22    1    1    2    0    0 -0.68396143524E-04 -0.41293796778E-03  0.34918795533E-01  0.34921304060E-01  0.00000000000E+00 0.  1.
       22    1    1    2    0    0 -0.21149165963E-04 -0.39267465195E-03 -0.43899998433E-03  0.58937395238E-03  0.00000000000E+00 0. -1.
</event>
<event>
 5   0  0.4146200E+04  0.9118800E+02  0.7546771E-02  0.1180000E+00
      -11   -1    0    0    0    0  0.00000000000E+00  0.00000000000E+00  0.34996269501E-01  0.35000000000E-01  0.51099999109E-03 0. -1.
       11   -1    0    0    0    0 -0.00000000000E+00 -0.00000000000E+00 -0.34996269501E-01  0.35000000000E-01  0.51099999109E-03 0.  1.
       22    1    1    2    0    0  0.40472615246E-03  0.11517459597E-01 -0.14289893362E-01  0.18358015446E-01  0.00000000000E+00 0.  1.
       22    1    1    2    0    0 -0.34469051003E-03 -0.11825568200E-01  0.31903075082E-01  0.34026005856E-01  0.00000000000E+00 0. -1.
       22    1    1    2    0    0 -0.60035642435E-04  0.30810860259E-03 -0.17613181720E-01  0.17615978698E-01  0.00000000000E+00 0.  1.
</event>
<event>
 5   0  0.4146200E+04  0.9118800E+02  0.7546771E-02  0.1180000E+00
      -11   -1    0    0    0    0  0.00000000000E+00  0.00000000000E+00  0.34996269501E-01  0.35000000000E-01  0.51099999109E-03 0.  1.
       11   -1    0    0    0    0 -0.00000000000E+00 -0.00000000000E+00 -0.34996269501E-01  0.35000000000E-01  0.51099999109E-03 0. -1.
       22    1    1    2    0    0 -0.81909999106E-03 -0.11718679988E-02  0.34477849309E-01  0.34507481687E-01  0.00000000000E+00 0.  1.
       22    1    1    2    0    0  0.15629852793E-02 -0.22113133530E-02 -0.40733004913E-02  0.48912786284E-02  0.00000000000E+00 0.  1.
       22    1    1    2    0    0 -0.74388528825E-03  0.33831813518E-02 -0.30404548818E-01  0.30601239684E-01  0.00000000000E+00 0. -1.
</event>
<event>
 5   0  0.4146200E+04  0.9118800E+02  0.7546771E-02  0.1180000E+00
      -11   -1    0    0    0    0  0.00000000000E+00  0.00000000000E+00  0.34996269501E-01  0.35000000000E-01  0.51099999109E-03 0. -1.
       11   -1    0    0    0    0 -0.00000000000E+00 -0.00000000000E+00 -0.34996269501E-01  0.35000000000E-01  0.51099999109E-03 0.  1.
       22    1    1    2    0    0  0.83908893755E-03  0.18286082260E-02 -0.20994764982E-02  0.29078651715E-02  0.00000000000E+00 0.  1.
       22    1    1    2    0    0  0.16543356863E-01  0.12511688118E-01  0.26648119871E-01  0.33769028540E-01  0.00000000000E+00 0. -1.
       22    1    1    2    0    0 -0.17382445801E-01 -0.14340296344E-01 -0.24548643373E-01  0.33323106288E-01  0.00000000000E+00 0.  1.
</event>
<event>
 5   0  0.4146200E+04  0.9118800E+02  0.7546771E-02  0.1180000E+00
      -11   -1    0    0    0    0  0.00000000000E+00  0.00000000000E+00  0.34996269501E-01  0.35000000000E-01  0.51099999109E-03 0.  1.
       11   -1    0    0    0    0 -0.00000000000E+00 -0.00000000000E+00 -0.34996269501E-01  0.35000000000E-01  0.51099999109E-03 0. -1.
       22    1    1    2    0    0  0.16013718769E-01  0.22397004037E-02  0.13502484927E-01  0.21065909568E-01  0.00000000000E+00 0.  1.
       22    1    1    2    0    0 -0.10571133662E-03  0.62933011585E-03  0.15616357541E-01  0.15629390715E-01  0.00000000000E+00 0.  1.
       22    1    1    2    0    0 -0.15908007432E-01 -0.28690305195E-02 -0.29118842468E-01  0.33304699717E-01  0.00000000000E+00 0. -1.
</event>
<event>
 5   0  0.4146200E+04  0.9118800E+02  0.7546771E-02  0.1180000E+00
      -11   -1    0    0    0    0  0.00000000000E+00  0.00000000000E+00  0.34996269501E-01  0.35000000000E-01  0.51099999109E-03 0. -1.
       11   -1    0    0    0    0 -0.00000000000E+00 -0.00000000000E+00 -0.34996269501E-01  0.35000000000E-01  0.51099999109E-03 0.  1.
       22    1    1    2    0    0  0.17040328419E-03 -0.81833574914E-03 -0.15011955557E-02  0.17182254724E-02  0.00000000000E+00 0.  1.
       22    1    1    2    0    0  0.34418204179E-02  0.17928794525E-02 -0.33176565142E-01  0.33402769632E-01  0.00000000000E+00 0.  1.
       22    1    1    2    0    0 -0.36122237021E-02 -0.97454370341E-03  0.34677760697E-01  0.34879004895E-01  0.00000000000E+00 0. -1.
</event>
<event>
 5   0  0.4146200E+04  0.9118800E+02  0.7546771E-02  0.1180000E+00
      -11   -1    0    0    0    0  0.00000000000E+00  0.00000000000E+00  0.34996269501E-01  0.35000000000E-01  0.51099999109E-03 0.  1.
       11   -1    0    0    0    0 -0.00000000000E+00 -0.00000000000E+00 -0.34996269501E-01  0.35000000000E-01  0.51099999109E-03 0. -1.
       22    1    1    2    0    0  0.79402964357E-05 -0.18049424070E-03  0.10826888503E-02  0.10976594945E-02  0.00000000000E+00 0.  1.
       22    1    1    2    0    0 -0.13536641677E-01 -0.14170444964E-01 -0.28830006938E-01  0.34859883512E-01  0.00000000000E+00 0. -1.
       22    1    1    2    0    0  0.13528701380E-01  0.14350939205E-01  0.27747318088E-01  0.34042456994E-01  0.00000000000E+00 0.  1.
</event>
<event>
 5   0  0.4146200E+04  0.9118800E+02  0.7546771E-02  0.1180000E+00
      -11   -1    0    0    0    0  0.00000000000E+00  0.00000000000E+00  0.34996269501E-01  0.35000000000E-01  0.51099999109E-03 0.  1.
       11   -1    0    0    0    0 -0.00000000000E+00 -0.00000000000E+00 -0.34996269501E-01  0.35000000000E-01  0.51099999109E-03 0.  1.
       22    1    1    2    0    0 -0.45979884778E-04  0.21815630358E-03  0.22067497955E-01  0.22068624160E-01  0.00000000000E+00 0.  1.
       22    1    1    2    0    0 -0.11855181345E-01  0.78063486549E-02  0.67645388959E-02  0.15723975023E-01  0.00000000000E+00 0. -1.
       22    1    1    2    0    0  0.11901161230E-01 -0.80245049584E-02 -0.28832036851E-01  0.32207400817E-01  0.00000000000E+00 0.  1.
</event>
<event>
 5   0  0.4146200E+04  0.9118800E+02  0.7546771E-02  0.1180000E+00
      -11   -1    0    0    0    0  0.00000000000E+00  0.00000000000E+00  0.34996269501E-01  0.35000000000E-01  0.51099999109E-03 0.  1.
       11   -1    0    0    0    0 -0.00000000000E+00 -0.00000000000E+00 -0.34996269501E-01  0.35000000000E-01  0.51099999109E-03 0.  1.
       22    1    1    2    0    0 -0.45238127998E-04 -0.23234547985E-03 -0.34669431862E-01  0.34670239926E-01  0.00000000000E+00 0.  1.
       22    1    1    2    0    0  0.45238127998E-04  0.23234547985E-03 -0.28835630017E-03  0.37306871496E-03  0.00000000000E+00 0. -1.
       22    1    1    2    0    0  0.00000000000E+00  0.00000000000E+00  0.34957788162E-01  0.34956691359E-01  0.00000000000E+00 0.  1.
</event>
<event>
 5   0  0.4146200E+04  0.9118800E+02  0.7546771E-02  0.1180000E+00
      -11   -1    0    0    0    0  0.00000000000E+00  0.00000000000E+00  0.34996269501E-01  0.35000000000E-01  0.51099999109E-03 0.  1.
       11   -1    0    0    0    0 -0.00000000000E+00 -0.00000000000E+00 -0.34996269501E-01  0.35000000000E-01  0.51099999109E-03 0. -1.
       22    1    1    2    0    0 -0.50435706208E-04  0.16938096256E-03  0.62542646025E-02  0.62567610942E-02  0.00000000000E+00 0. -1.
       22    1    1    2    0    0  0.24395344246E-02 -0.21012780570E-01  0.20692946598E-01  0.29591997473E-01  0.00000000000E+00 0.  1.
       22    1    1    2    0    0 -0.23890987184E-02  0.20843399608E-01 -0.26947211201E-01  0.34151241433E-01  0.00000000000E+00 0. -1.
</event>
<event>
 5   0  0.4146200E+04  0.9118800E+02  0.7546771E-02  0.1180000E+00
      -11   -1    0    0    0    0  0.00000000000E+00  0.00000000000E+00  0.34996269501E-01  0.35000000000E-01  0.51099999109E-03 0.  1.
       11   -1    0    0    0    0 -0.00000000000E+00 -0.00000000000E+00 -0.34996269501E-01  0.35000000000E-01  0.51099999109E-03 0. -1.
       22    1    1    2    0    0  0.46166272419E-02 -0.16225041609E-01  0.22196065057E-01  0.27878854466E-01  0.00000000000E+00 0.  1.
       22    1    1    2    0    0 -0.50978221258E-02  0.16579131633E-01 -0.29807207251E-01  0.34486591601E-01  0.00000000000E+00 0. -1.
       22    1    1    2    0    0  0.48119488396E-03 -0.35409002437E-03  0.76111421940E-02  0.76345539332E-02  0.00000000000E+00 0. -1.
</event>
<event>
 5   0  0.4146200E+04  0.9118800E+02  0.7546771E-02  0.1180000E+00
      -11   -1    0    0    0    0  0.00000000000E+00  0.00000000000E+00  0.34996269501E-01  0.35000000000E-01  0.51099999109E-03 0.  1.
       11   -1    0    0    0    0 -0.00000000000E+00 -0.00000000000E+00 -0.34996269501E-01  0.35000000000E-01  0.51099999109E-03 0. -1.
       22    1    1    2    0    0  0.23527447292E-01 -0.55027951090E-02  0.18611908564E-01  0.30499584759E-01  0.00000000000E+00 0.  1.
       22    1    1    2    0    0 -0.17979461388E-02 -0.99450571790E-03  0.58153134544E-02  0.61676188691E-02  0.00000000000E+00 0.  1.
       22    1    1    2    0    0 -0.21729501153E-01  0.64973008269E-02 -0.24427222019E-01  0.33332796372E-01  0.00000000000E+00 0. -1.
</event>
<event>
 5   0  0.4146200E+04  0.9118800E+02  0.7546771E-02  0.1180000E+00
      -11   -1    0    0    0    0  0.00000000000E+00  0.00000000000E+00  0.34996269501E-01  0.35000000000E-01  0.51099999109E-03 0.  1.
       11   -1    0    0    0    0 -0.00000000000E+00 -0.00000000000E+00 -0.34996269501E-01  0.35000000000E-01  0.51099999109E-03 0. -1.
       22    1    1    2    0    0 -0.22102295886E-02 -0.21144381962E-01  0.54926024401E-02  0.21957656636E-01  0.00000000000E+00 0.  1.
       22    1    1    2    0    0  0.23280117036E-02  0.20302195528E-01 -0.22855305126E-01  0.30658828323E-01  0.00000000000E+00 0. -1.
       22    1    1    2    0    0 -0.11778211505E-03  0.84218643373E-03  0.17362702686E-01  0.17383515041E-01  0.00000000000E+00 0.  1.
</event>
<event>
 5   0  0.4146200E+04  0.9118800E+02  0.7546771E-02  0.1180000E+00
      -11   -1    0    0    0    0  0.00000000000E+00  0.00000000000E+00  0.34996269501E-01  0.35000000000E-01  0.51099999109E-03 0. -1.
       11   -1    0    0    0    0 -0.00000000000E+00 -0.00000000000E+00 -0.34996269501E-01  0.35000000000E-01  0.51099999109E-03 0.  1.
       22    1    1    2    0    0 -0.12606313442E-01 -0.17861441471E-02 -0.31811824971E-01  0.34265166825E-01  0.00000000000E+00 0.  1.
       22    1    1    2    0    0  0.10119983793E-01  0.48383946211E-02  0.28364831868E-01  0.30502259283E-01  0.00000000000E+00 0. -1.
       22    1    1    2    0    0  0.24863296495E-02 -0.30522504740E-02  0.34469931036E-02  0.52325738923E-02  0.00000000000E+00 0.  1.
</event>
<event>
 5   0  0.4146200E+04  0.9118800E+02  0.7546771E-02  0.1180000E+00
      -11   -1    0    0    0    0  0.00000000000E+00  0.00000000000E+00  0.34996269501E-01  0.35000000000E-01  0.51099999109E-03 0.  1.
       11   -1    0    0    0    0 -0.00000000000E+00 -0.00000000000E+00 -0.34996269501E-01  0.35000000000E-01  0.51099999109E-03 0. -1.
       22    1    1    2    0    0 -0.21396615743E-02  0.31502725469E-02 -0.33998302677E-01  0.34210918633E-01  0.00000000000E+00 0. -1.
       22    1    1    2    0    0 -0.28298532475E-03 -0.34456187532E-03 -0.73438378737E-03  0.85914092389E-03  0.00000000000E+00 0. -1.
       22    1    1    2    0    0  0.24226468991E-02 -0.28057106715E-02  0.34732686464E-01  0.34929940444E-01  0.00000000000E+00 0.  1.
</event>
<event>
 5   0  0.4146200E+04  0.9118800E+02  0.7546771E-02  0.1180000E+00
      -11   -1    0    0    0    0  0.00000000000E+00  0.00000000000E+00  0.34996269501E-01  0.35000000000E-01  0.51099999109E-03 0.  1.
       11   -1    0    0    0    0 -0.00000000000E+00 -0.00000000000E+00 -0.34996269501E-01  0.35000000000E-01  0.51099999109E-03 0.  1.
       22    1    1    2    0    0  0.91910375901E-03  0.73478325350E-03 -0.15169442306E-02  0.19198380005E-02  0.00000000000E+00 0. -1.
       22    1    1    2    0    0 -0.91910375901E-03 -0.73478325350E-03 -0.33271301379E-01  0.33292103472E-01  0.00000000000E+00 0.  1.
       22    1    1    2    0    0  0.00000000000E+00  0.00000000000E+00  0.34788245610E-01  0.34788058527E-01  0.00000000000E+00 0.  1.
</event>
<event>
 5   0  0.4146200E+04  0.9118800E+02  0.7546771E-02  0.1180000E+00
      -11   -1    0    0    0    0  0.00000000000E+00  0.00000000000E+00  0.34996269501E-01  0.35000000000E-01  0.51099999109E-03 0. -1.
       11   -1    0    0    0    0 -0.00000000000E+00 -0.00000000000E+00 -0.34996269501E-01  0.35000000000E-01  0.51099999109E-03 0.  1.
       22    1    1    2    0    0  0.46437261332E-04  0.48684352002E-04 -0.44332070292E-03  0.44839695696E-03  0.00000000000E+00 0. -1.
       22    1    1    2    0    0  0.19937433348E-01 -0.36776617120E-02  0.28462771823E-01  0.34945040049E-01  0.00000000000E+00 0. -1.
       22    1    1    2    0    0 -0.19983870610E-01  0.36289773600E-02 -0.28019451120E-01  0.34606562994E-01  0.00000000000E+00 0.  1.
</event>
<event>
 5   0  0.4146200E+04  0.9118800E+02  0.7546771E-02  0.1180000E+00
      -11   -1    0    0    0    0  0.00000000000E+00  0.00000000000E+00  0.34996269501E-01  0.35000000000E-01  0.51099999109E-03 0. -1.
       11   -1    0    0    0    0 -0.00000000000E+00 -0.00000000000E+00 -0.34996269501E-01  0.35000000000E-01  0.51099999109E-03 0. -1.
       22    1    1    2    0    0  0.00000000000E+00 -0.00000000000E+00  0.34939963382E-01  0.34939678809E-01  0.00000000000E+00 0. -1.
       22    1    1    2    0    0  0.62518887243E-03  0.18264686525E-03 -0.18043395752E-02  0.19182967200E-02  0.00000000000E+00 0.  1.
       22    1    1    2    0    0 -0.62518887243E-03 -0.18264686525E-03 -0.33135623806E-01  0.33142024471E-01  0.00000000000E+00 0. -1.
</event>
<event>
 5   0  0.4146200E+04  0.9118800E+02  0.7546771E-02  0.1180000E+00
      -11   -1    0    0    0    0  0.00000000000E+00  0.00000000000E+00  0.34996269501E-01  0.35000000000E-01  0.51099999109E-03 0. -1.
       11   -1    0    0    0    0 -0.00000000000E+00 -0.00000000000E+00 -0.34996269501E-01  0.35000000000E-01  0.51099999109E-03 0.  1.
       22    1    1    2    0    0 -0.13648738896E-01 -0.13625270367E-02  0.31634467454E-01  0.34480198440E-01  0.00000000000E+00 0. -1.
       22    1    1    2    0    0  0.10151347737E-02  0.65297072988E-03 -0.12634132986E-01  0.12691658114E-01  0.00000000000E+00 0.  1.
       22    1    1    2    0    0  0.12633604122E-01  0.70955630679E-03 -0.19000334468E-01  0.22828143446E-01  0.00000000000E+00 0.  1.
</event>
<event>
 5   0  0.4146200E+04  0.9118800E+02  0.7546771E-02  0.1180000E+00
      -11   -1    0    0    0    0  0.00000000000E+00  0.00000000000E+00  0.34996269501E-01  0.35000000000E-01  0.51099999109E-03 0. -1.
       11   -1    0    0    0    0 -0.00000000000E+00 -0.00000000000E+00 -0.34996269501E-01  0.35000000000E-01  0.51099999109E-03 0. -1.
       22    1    1    2    0    0  0.15033420610E-03 -0.21382937679E-03 -0.26548371464E-01  0.26549658204E-01  0.00000000000E+00 0. -1.
       22    1    1    2    0    0  0.44981641855E-02 -0.41245709334E-02 -0.70102913297E-02  0.92946087035E-02  0.00000000000E+00 0.  1.
       22    1    1    2    0    0 -0.46484983916E-02  0.43384003102E-02  0.33558662794E-01  0.34155733092E-01  0.00000000000E+00 0. -1.
</event>
<event>
 5   0  0.4146200E+04  0.9118800E+02  0.7546771E-02  0.1180000E+00
      -11   -1    0    0    0    0  0.00000000000E+00  0.00000000000E+00  0.34996269501E-01  0.35000000000E-01  0.51099999109E-03 0.  1.
       11   -1    0    0    0    0 -0.00000000000E+00 -0.00000000000E+00 -0.34996269501E-01  0.35000000000E-01  0.51099999109E-03 0.  1.
       22    1    1    2    0    0 -0.10854612122E-02  0.17590109451E-01 -0.17941309867E-01  0.25149170490E-01  0.00000000000E+00 0. -1.
       22    1    1    2    0    0  0.12375155232E-02 -0.17504910103E-01  0.28943160894E-01  0.33847597919E-01  0.00000000000E+00 0.  1.
       22    1    1    2    0    0 -0.15205431092E-03 -0.85199348756E-04 -0.11001851026E-01  0.11003231591E-01  0.00000000000E+00 0.  1.
</event>
<event>
 5   0  0.4146200E+04  0.9118800E+02  0.7546771E-02  0.1180000E+00
      -11   -1    0    0    0    0  0.00000000000E+00  0.00000000000E+00  0.34996269501E-01  0.35000000000E-01  0.51099999109E-03 0.  1.
       11   -1    0    0    0    0 -0.00000000000E+00 -0.00000000000E+00 -0.34996269501E-01  0.35000000000E-01  0.51099999109E-03 0. -1.
       22    1    1    2    0    0 -0.10786444459E-01 -0.86160046986E-02 -0.27839382292E-01  0.31074332293E-01  0.00000000000E+00 0. -1.
       22    1    1    2    0    0  0.14518729031E-01  0.63494899859E-02  0.30094162214E-01  0.34011293935E-01  0.00000000000E+00 0.  1.
       22    1    1    2    0    0 -0.37322845725E-02  0.22665147128E-02 -0.22547799224E-02  0.49143737721E-02  0.00000000000E+00 0. -1.
</event>
<event>
 5   0  0.4146200E+04  0.9118800E+02  0.7546771E-02  0.1180000E+00
      -11   -1    0    0    0    0  0.00000000000E+00  0.00000000000E+00  0.34996269501E-01  0.35000000000E-01  0.51099999109E-03 0.  1.
       11   -1    0    0    0    0 -0.00000000000E+00 -0.00000000000E+00 -0.34996269501E-01  0.35000000000E-01  0.51099999109E-03 0. -1.
       22    1    1    2    0    0 -0.64748050893E-02  0.81743932817E-02 -0.20414132590E-01  0.22923363974E-01  0.00000000000E+00 0. -1.
       22    1    1    2    0    0 -0.22183430725E-03 -0.13268050286E-03 -0.12518558783E-01  0.12521227119E-01  0.00000000000E+00 0. -1.
       22    1    1    2    0    0  0.66966393966E-02 -0.80417127788E-02  0.32932691373E-01  0.34555408907E-01  0.00000000000E+00 0.  1.
</event>
<event>
 5   0  0.4146200E+04  0.9118800E+02  0.7546771E-02  0.1180000E+00
      -11   -1    0    0    0    0  0.00000000000E+00  0.00000000000E+00  0.34996269501E-01  0.35000000000E-01  0.51099999109E-03 0.  1.
       11   -1    0    0    0    0 -0.00000000000E+00 -0.00000000000E+00 -0.34996269501E-01  0.35000000000E-01  0.51099999109E-03 0. -1.
       22    1    1    2    0    0 -0.17235241725E-01 -0.14494444373E-01  0.15549516626E-01  0.27366584411E-01  0.00000000000E+00 0.  1.
       22    1    1    2    0    0  0.11630577469E-01  0.11970248737E-01 -0.25772522459E-01  0.30704724408E-01  0.00000000000E+00 0. -1.
       22    1    1    2    0    0  0.56046642563E-02  0.25241956363E-02  0.10223005833E-01  0.11928691181E-01  0.00000000000E+00 0. -1.
</event>
<event>
 5   0  0.4146200E+04  0.9118800E+02  0.7546771E-02  0.1180000E+00
      -11   -1    0    0    0    0  0.00000000000E+00  0.00000000000E+00  0.34996269501E-01  0.35000000000E-01  0.51099999109E-03 0.  1.
       11   -1    0    0    0    0 -0.00000000000E+00 -0.00000000000E+00 -0.34996269501E-01  0.35000000000E-01  0.51099999109E-03 0. -1.
       22    1    1    2    0    0 -0.59379202356E-03 -0.23657488674E-04  0.14836722897E-02  0.15982590864E-02  0.00000000000E+00 0. -1.
       22    1    1    2    0    0  0.10388941540E-01  0.19977789627E-01  0.25119128789E-01  0.33734445538E-01  0.00000000000E+00 0.  1.
       22    1    1    2    0    0 -0.97951495161E-02 -0.19954132138E-01 -0.26602801078E-01  0.34667295375E-01  0.00000000000E+00 0. -1.
</event>
<event>
 5   0  0.4146200E+04  0.9118800E+02  0.7546771E-02  0.1180000E+00
      -11   -1    0    0    0    0  0.00000000000E+00  0.00000000000E+00  0.34996269501E-01  0.35000000000E-01  0.51099999109E-03 0.  1.
       11   -1    0    0    0    0 -0.00000000000E+00 -0.00000000000E+00 -0.34996269501E-01  0.35000000000E-01  0.51099999109E-03 0. -1.
       22    1    1    2    0    0  0.12698064219E-02 -0.81018013796E-03 -0.30006810158E-01  0.30044591128E-01  0.00000000000E+00 0. -1.
       22    1    1    2    0    0  0.83016063905E-03  0.18930489585E-02 -0.47176635754E-02  0.51506456544E-02  0.00000000000E+00 0. -1.
       22    1    1    2    0    0 -0.20999670610E-02 -0.10828688206E-02  0.34724473734E-01  0.34804763217E-01  0.00000000000E+00 0.  1.
</event>
<event>
 5   0  0.4146200E+04  0.9118800E+02  0.7546771E-02  0.1180000E+00
      -11   -1    0    0    0    0  0.00000000000E+00  0.00000000000E+00  0.34996269501E-01  0.35000000000E-01  0.51099999109E-03 0. -1.
       11   -1    0    0    0    0 -0.00000000000E+00 -0.00000000000E+00 -0.34996269501E-01  0.35000000000E-01  0.51099999109E-03 0. -1.
       22    1    1    2    0    0 -0.11937033480E-01 -0.35013203636E-02  0.45326151454E-02  0.13239962713E-01  0.00000000000E+00 0.  1.
       22    1    1    2    0    0  0.00000000000E+00  0.00000000000E+00  0.24852312613E-01  0.24850383701E-01  0.00000000000E+00 0. -1.
       22    1    1    2    0    0  0.11937033480E-01  0.35013203636E-02 -0.29384927759E-01  0.31909653586E-01  0.00000000000E+00 0. -1.
</event>
<event>
 5   0  0.4146200E+04  0.9118800E+02  0.7546771E-02  0.1180000E+00
      -11   -1    0    0    0    0  0.00000000000E+00  0.00000000000E+00  0.34996269501E-01  0.35000000000E-01  0.51099999109E-03 0.  1.
       11   -1    0    0    0    0 -0.00000000000E+00 -0.00000000000E+00 -0.34996269501E-01  0.35000000000E-01  0.51099999109E-03 0. -1.
       22    1    1    2    0    0  0.12344007718E-01  0.36089590953E-02 -0.32485935577E-01  0.34939020058E-01  0.00000000000E+00 0. -1.
       22    1    1    2    0    0 -0.12456287291E-01 -0.35878748389E-02  0.31420064205E-01  0.33989003715E-01  0.00000000000E+00 0.  1.
       22    1    1    2    0    0  0.11227957345E-03 -0.21084256374E-04  0.10658713723E-02  0.10719762267E-02  0.00000000000E+00 0. -1.
</event>
<event>
 5   0  0.4146200E+04  0.9118800E+02  0.7546771E-02  0.1180000E+00
      -11   -1    0    0    0    0  0.00000000000E+00  0.00000000000E+00  0.34996269501E-01  0.35000000000E-01  0.51099999109E-03 0.  1.
       11   -1    0    0    0    0 -0.00000000000E+00 -0.00000000000E+00 -0.34996269501E-01  0.35000000000E-01  0.51099999109E-03 0. -1.
       22    1    1    2    0    0 -0.10365590792E-01  0.11962273866E-01 -0.31129006843E-01  0.34922149641E-01  0.00000000000E+00 0. -1.
       22    1    1    2    0    0  0.13410729304E-03  0.13931953671E-03  0.11688822381E-02  0.11847701827E-02  0.00000000000E+00 0.  1.
       22    1    1    2    0    0  0.10231483499E-01 -0.12101593403E-01  0.29960124605E-01  0.33893080176E-01  0.00000000000E+00 0.  1.
</event>
<event>
 5   0  0.4146200E+04  0.9118800E+02  0.7546771E-02  0.1180000E+00
      -11   -1    0    0    0    0  0.00000000000E+00  0.00000000000E+00  0.34996269501E-01  0.35000000000E-01  0.51099999109E-03 0.  1.
       11   -1    0    0    0    0 -0.00000000000E+00 -0.00000000000E+00 -0.34996269501E-01  0.35000000000E-01  0.51099999109E-03 0. -1.
       22    1    1    2    0    0  0.15869311705E-01 -0.41912303940E-02  0.30111874480E-01  0.34294700041E-01  0.00000000000E+00 0.  1.
       22    1    1    2    0    0  0.14111395102E-02  0.27325817262E-04 -0.21410265425E-02  0.25643822011E-02  0.00000000000E+00 0. -1.
       22    1    1    2    0    0 -0.17280451215E-01  0.41639045767E-02 -0.27970847937E-01  0.33140917758E-01  0.00000000000E+00 0. -1.
</event>
<event>
 5   0  0.4146200E+04  0.9118800E+02  0.7546771E-02  0.1180000E+00
      -11   -1    0    0    0    0  0.00000000000E+00  0.00000000000E+00  0.34996269501E-01  0.35000000000E-01  0.51099999109E-03 0. -1.
       11   -1    0    0    0    0 -0.00000000000E+00 -0.00000000000E+00 -0.34996269501E-01  0.35000000000E-01  0.51099999109E-03 0.  1.
       22    1    1    2    0    0 -0.62936305646E-05 -0.62353536601E-03  0.94137009148E-03  0.11291650064E-02  0.00000000000E+00 0. -1.
       22    1    1    2    0    0 -0.14677828955E-01  0.34220657028E-02  0.30520146810E-01  0.34038633313E-01  0.00000000000E+00 0. -1.
       22    1    1    2    0    0  0.14684122586E-01 -0.27985303368E-02 -0.31461516902E-01  0.34832201681E-01  0.00000000000E+00 0.  1.
</event>
<event>
 5   0  0.4146200E+04  0.9118800E+02  0.7546771E-02  0.1180000E+00
      -11   -1    0    0    0    0  0.00000000000E+00  0.00000000000E+00  0.34996269501E-01  0.35000000000E-01  0.51099999109E-03 0.  1.
       11   -1    0    0    0    0 -0.00000000000E+00 -0.00000000000E+00 -0.34996269501E-01  0.35000000000E-01  0.51099999109E-03 0. -1.
       22    1    1    2    0    0  0.32836950067E-03  0.70203261367E-04 -0.45938073662E-03  0.56902169384E-03  0.00000000000E+00 0. -1.
       22    1    1    2    0    0  0.35638036442E-02  0.22142684813E-02 -0.34211390807E-01  0.34467708689E-01  0.00000000000E+00 0. -1.
       22    1    1    2    0    0 -0.38921731448E-02 -0.22844717426E-02  0.34670771543E-01  0.34963269617E-01  0.00000000000E+00 0.  1.
</event>
<event>
 5   0  0.4146200E+04  0.9118800E+02  0.7546771E-02  0.1180000E+00
      -11   -1    0    0    0    0  0.00000000000E+00  0.00000000000E+00  0.34996269501E-01  0.35000000000E-01  0.51099999109E-03 0. -1.
       11   -1    0    0    0    0 -0.00000000000E+00 -0.00000000000E+00 -0.34996269501E-01  0.35000000000E-01  0.51099999109E-03 0.  1.
       22    1    1    2    0    0 -0.91144638089E-02  0.41291016169E-02 -0.32341606401E-01  0.33854134685E-01  0.00000000000E+00 0.  1.
       22    1    1    2    0    0  0.41333780558E-03  0.21559899385E-03 -0.11658105286E-02  0.12555657116E-02  0.00000000000E+00 0.  1.
       22    1    1    2    0    0  0.87011260033E-02 -0.43447006107E-02  0.33507416929E-01  0.34890299603E-01  0.00000000000E+00 0. -1.
</event>
<event>
 5   0  0.4146200E+04  0.9118800E+02  0.7546771E-02  0.1180000E+00
      -11   -1    0    0    0    0  0.00000000000E+00  0.00000000000E+00  0.34996269501E-01  0.35000000000E-01  0.51099999109E-03 0. -1.
       11   -1    0    0    0    0 -0.00000000000E+00 -0.00000000000E+00 -0.34996269501E-01  0.35000000000E-01  0.51099999109E-03 0.  1.
       22    1    1    2    0    0  0.35845392219E-03 -0.28129425571E-03 -0.32283312133E-01  0.32286527499E-01  0.00000000000E+00 0.  1.
       22    1    1    2    0    0 -0.99317228668E-03  0.14577997021E-02  0.34810148311E-01  0.34854813105E-01  0.00000000000E+00 0. -1.
       22    1    1    2    0    0  0.63471836449E-03 -0.11765054463E-02 -0.25268361781E-02  0.28586593953E-02  0.00000000000E+00 0.  1.
</event>
<event>
 5   0  0.4146200E+04  0.9118800E+02  0.7546771E-02  0.1180000E+00
      -11   -1    0    0    0    0  0.00000000000E+00  0.00000000000E+00  0.34996269501E-01  0.35000000000E-01  0.51099999109E-03 0.  1.
       11   -1    0    0    0    0 -0.00000000000E+00 -0.00000000000E+00 -0.34996269501E-01  0.35000000000E-01  0.51099999109E-03 0. -1.
       22    1    1    2    0    0  0.17301536997E-01 -0.17000750724E-01  0.99656470524E-02  0.26223707381E-01  0.00000000000E+00 0.  1.
       22    1    1    2    0    0 -0.24762950372E-01  0.19297429242E-01 -0.35737221210E-03  0.31396213169E-01  0.00000000000E+00 0. -1.
       22    1    1    2    0    0  0.74614133754E-02 -0.22966785182E-02 -0.96082748403E-02  0.12380079450E-01  0.00000000000E+00 0. -1.
</event>
<event>
 5   0  0.4146200E+04  0.9118800E+02  0.7546771E-02  0.1180000E+00
      -11   -1    0    0    0    0  0.00000000000E+00  0.00000000000E+00  0.34996269501E-01  0.35000000000E-01  0.51099999109E-03 0.  1.
       11   -1    0    0    0    0 -0.00000000000E+00 -0.00000000000E+00 -0.34996269501E-01  0.35000000000E-01  0.51099999109E-03 0. -1.
       22    1    1    2    0    0 -0.34454563235E-03 -0.30984342020E-03 -0.71826839021E-03  0.85476553405E-03  0.00000000000E+00 0.  1.
       22    1    1    2    0    0  0.11526929310E-01 -0.54119392379E-02  0.32535195244E-01  0.34938490454E-01  0.00000000000E+00 0.  1.
       22    1    1    2    0    0 -0.11182383678E-01  0.57217826581E-02 -0.31816926854E-01  0.34206744012E-01  0.00000000000E+00 0. -1.
</event>
<event>
 5   0  0.4146200E+04  0.9118800E+02  0.7546771E-02  0.1180000E+00
      -11   -1    0    0    0    0  0.00000000000E+00  0.00000000000E+00  0.34996269501E-01  0.35000000000E-01  0.51099999109E-03 0.  1.
       11   -1    0    0    0    0 -0.00000000000E+00 -0.00000000000E+00 -0.34996269501E-01  0.35000000000E-01  0.51099999109E-03 0. -1.
       22    1    1    2    0    0  0.91345903508E-03 -0.43663698955E-04  0.12581667660E-01  0.12614859295E-01  0.00000000000E+00 0.  1.
       22    1    1    2    0    0  0.80266216090E-02 -0.14966391098E-01 -0.28872922089E-01  0.33497240885E-01  0.00000000000E+00 0. -1.
       22    1    1    2    0    0 -0.89400806441E-02  0.15010054797E-01  0.16291254429E-01  0.23887899820E-01  0.00000000000E+00 0.  1.
</event>
<event>
 5   0  0.4146200E+04  0.9118800E+02  0.7546771E-02  0.1180000E+00
      -11   -1    0    0    0    0  0.00000000000E+00  0.00000000000E+00  0.34996269501E-01  0.35000000000E-01  0.51099999109E-03 0.  1.
       11   -1    0    0    0    0 -0.00000000000E+00 -0.00000000000E+00 -0.34996269501E-01  0.35000000000E-01  0.51099999109E-03 0. -1.
       22    1    1    2    0    0  0.90760694044E-03 -0.47252255811E-02  0.34432029401E-01  0.34766595402E-01  0.00000000000E+00 0.  1.
       22    1    1    2    0    0 -0.45474656875E-03 -0.76415808014E-03 -0.94960299604E-03  0.13009526753E-02  0.00000000000E+00 0.  1.
       22    1    1    2    0    0 -0.45286037168E-03  0.54893836612E-02 -0.33482426405E-01  0.33932451923E-01  0.00000000000E+00 0. -1.
</event>
<event>
 5   0  0.4146200E+04  0.9118800E+02  0.7546771E-02  0.1180000E+00
      -11   -1    0    0    0    0  0.00000000000E+00  0.00000000000E+00  0.34996269501E-01  0.35000000000E-01  0.51099999109E-03 0. -1.
       11   -1    0    0    0    0 -0.00000000000E+00 -0.00000000000E+00 -0.34996269501E-01  0.35000000000E-01  0.51099999109E-03 0.  1.
       22    1    1    2    0    0  0.28236380605E-02  0.19433053035E-03  0.22549230967E-01  0.22726163633E-01  0.00000000000E+00 0.  1.
       22    1    1    2    0    0 -0.84929183217E-02 -0.15596332076E-01  0.18643538286E-02  0.17856400842E-01  0.00000000000E+00 0. -1.
       22    1    1    2    0    0  0.56692802612E-02  0.15402001546E-01 -0.24413584796E-01  0.29417435525E-01  0.00000000000E+00 0.  1.
</event>
<event>
 5   0  0.4146200E+04  0.9118800E+02  0.7546771E-02  0.1180000E+00
      -11   -1    0    0    0    0  0.00000000000E+00  0.00000000000E+00  0.34996269501E-01  0.35000000000E-01  0.51099999109E-03 0. -1.
       11   -1    0    0    0    0 -0.00000000000E+00 -0.00000000000E+00 -0.34996269501E-01  0.35000000000E-01  0.51099999109E-03 0.  1.
       22    1    1    2    0    0 -0.11788466505E-01 -0.10832487735E-01  0.27688199427E-01  0.31983544528E-01  0.00000000000E+00 0. -1.
       22    1    1    2    0    0  0.91601964497E-02  0.48944013083E-03 -0.25530846356E-01  0.27128819847E-01  0.00000000000E+00 0. -1.
       22    1    1    2    0    0  0.26282700553E-02  0.10343047604E-01 -0.21573530710E-02  0.10887635625E-01  0.00000000000E+00 0.  1.
</event>
<event>
 5   0  0.4146200E+04  0.9118800E+02  0.7546771E-02  0.1180000E+00
      -11   -1    0    0    0    0  0.00000000000E+00  0.00000000000E+00  0.34996269501E-01  0.35000000000E-01  0.51099999109E-03 0. -1.
       11   -1    0    0    0    0 -0.00000000000E+00 -0.00000000000E+00 -0.34996269501E-01  0.35000000000E-01  0.51099999109E-03 0.  1.
       22    1    1    2    0    0  0.37075822308E-03 -0.67659059005E-04 -0.39651686114E-03  0.54705121279E-03  0.00000000000E+00 0.  1.
       22    1    1    2    0    0 -0.11570676268E-02 -0.25284337867E-02  0.34815941298E-01  0.34926802765E-01  0.00000000000E+00 0. -1.
       22    1    1    2    0    0  0.78630940370E-03  0.25960928457E-02 -0.34419424437E-01  0.34526146022E-01  0.00000000000E+00 0.  1.
</event>
<event>
 5   0  0.4146200E+04  0.9118800E+02  0.7546771E-02  0.1180000E+00
      -11   -1    0    0    0    0  0.00000000000E+00  0.00000000000E+00  0.34996269501E-01  0.35000000000E-01  0.51099999109E-03 0. -1.
       11   -1    0    0    0    0 -0.00000000000E+00 -0.00000000000E+00 -0.34996269501E-01  0.35000000000E-01  0.51099999109E-03 0.  1.
       22    1    1    2    0    0  0.83632458302E-03  0.26331203397E-02 -0.46730616781E-02  0.54286524091E-02  0.00000000000E+00 0. -1.
       22    1    1    2    0    0  0.25598797407E-01  0.15576387575E-01 -0.63514473742E-02  0.30631081638E-01  0.00000000000E+00 0. -1.
       22    1    1    2    0    0 -0.26435121990E-01 -0.18209507915E-01  0.11024509052E-01  0.33940265953E-01  0.00000000000E+00 0.  1.
</event>
<event>
 5   0  0.4146200E+04  0.9118800E+02  0.7546771E-02  0.1180000E+00
      -11   -1    0    0    0    0  0.00000000000E+00  0.00000000000E+00  0.34996269501E-01  0.35000000000E-01  0.51099999109E-03 0.  1.
       11   -1    0    0    0    0 -0.00000000000E+00 -0.00000000000E+00 -0.34996269501E-01  0.35000000000E-01  0.51099999109E-03 0.  1.
       22    1    1    2    0    0  0.53084379673E-03  0.47178240248E-03 -0.33687749514E-01  0.33695234694E-01  0.00000000000E+00 0.  1.
       22    1    1    2    0    0 -0.14245234537E-03  0.57143693082E-03 -0.12329217860E-02  0.13663560909E-02  0.00000000000E+00 0.  1.
       22    1    1    2    0    0 -0.38839145137E-03 -0.10432193333E-02  0.34920671300E-01  0.34938409215E-01  0.00000000000E+00 0.  1.
</event>
<event>
 5   0  0.4146200E+04  0.9118800E+02  0.7546771E-02  0.1180000E+00
      -11   -1    0    0    0    0  0.00000000000E+00  0.00000000000E+00  0.34996269501E-01  0.35000000000E-01  0.51099999109E-03 0. -1.
       11   -1    0    0    0    0 -0.00000000000E+00 -0.00000000000E+00 -0.34996269501E-01  0.35000000000E-01  0.51099999109E-03 0.  1.
       22    1    1    2    0    0  0.64628318264E-03  0.13023715041E-02  0.19331026824E-03  0.14667045874E-02  0.00000000000E+00 0. -1.
       22    1    1    2    0    0 -0.15793717519E-01  0.13888602558E-01  0.26791329511E-01  0.34060389473E-01  0.00000000000E+00 0. -1.
       22    1    1    2    0    0  0.15147434337E-01 -0.15190974062E-01 -0.26984639779E-01  0.34472905940E-01  0.00000000000E+00 0.  1.
</event>
<event>
 5   0  0.4146200E+04  0.9118800E+02  0.7546771E-02  0.1180000E+00
      -11   -1    0    0    0    0  0.00000000000E+00  0.00000000000E+00  0.34996269501E-01  0.35000000000E-01  0.51099999109E-03 0.  1.
       11   -1    0    0    0    0 -0.00000000000E+00 -0.00000000000E+00 -0.34996269501E-01  0.35000000000E-01  0.51099999109E-03 0. -1.
       22    1    1    2    0    0  0.10818328486E-01  0.13459046084E-01 -0.28686610501E-01  0.33482887790E-01  0.00000000000E+00 0. -1.
       22    1    1    2    0    0  0.42204379867E-04 -0.18652259650E-03 -0.16540362497E-02  0.16650548952E-02  0.00000000000E+00 0.  1.
       22    1    1    2    0    0 -0.10860532866E-01 -0.13272523487E-01  0.30340646751E-01  0.34852057315E-01  0.00000000000E+00 0.  1.
</event>
<event>
 5   0  0.4146200E+04  0.9118800E+02  0.7546771E-02  0.1180000E+00
      -11   -1    0    0    0    0  0.00000000000E+00  0.00000000000E+00  0.34996269501E-01  0.35000000000E-01  0.51099999109E-03 0.  1.
       11   -1    0    0    0    0 -0.00000000000E+00 -0.00000000000E+00 -0.34996269501E-01  0.35000000000E-01  0.51099999109E-03 0. -1.
       22    1    1    2    0    0  0.33541595026E-03 -0.63910157452E-03 -0.25192980343E-03  0.76447583879E-03  0.00000000000E+00 0.  1.
       22    1    1    2    0    0 -0.41715731530E-02 -0.12455967301E-01  0.32047726405E-01  0.34635385254E-01  0.00000000000E+00 0.  1.
       22    1    1    2    0    0  0.38361572028E-02  0.13095068875E-01 -0.31795796601E-01  0.34600138908E-01  0.00000000000E+00 0. -1.
</event>
<event>
 5   0  0.4146200E+04  0.9118800E+02  0.7546771E-02  0.1180000E+00
      -11   -1    0    0    0    0  0.00000000000E+00  0.00000000000E+00  0.34996269501E-01  0.35000000000E-01  0.51099999109E-03 0. -1.
       11   -1    0    0    0    0 -0.00000000000E+00 -0.00000000000E+00 -0.34996269501E-01  0.35000000000E-01  0.51099999109E-03 0.  1.
       22    1    1    2    0    0 -0.50414302139E-02 -0.39185645995E-02 -0.79116358139E-02  0.10166865219E-01  0.00000000000E+00 0.  1.
       22    1    1    2    0    0  0.45305797855E-02  0.35021335868E-02  0.33626113316E-01  0.34110212394E-01  0.00000000000E+00 0. -1.
       22    1    1    2    0    0  0.51085042841E-03  0.41643101263E-03 -0.25714477502E-01  0.25722922387E-01  0.00000000000E+00 0.  1.
</event>
<event>
 5   0  0.4146200E+04  0.9118800E+02  0.7546771E-02  0.1180000E+00
      -11   -1    0    0    0    0  0.00000000000E+00  0.00000000000E+00  0.34996269501E-01  0.35000000000E-01  0.51099999109E-03 0.  1.
       11   -1    0    0    0    0 -0.00000000000E+00 -0.00000000000E+00 -0.34996269501E-01  0.35000000000E-01  0.51099999109E-03 0. -1.
       22    1    1    2    0    0 -0.28989719409E-03  0.42079733035E-02 -0.31124521302E-01  0.31409025869E-01  0.00000000000E+00 0. -1.
       22    1    1    2    0    0 -0.14766240331E-02 -0.10939940828E-02 -0.34087739481E-02  0.38725936293E-02  0.00000000000E+00 0.  1.
       22    1    1    2    0    0  0.17665212272E-02 -0.31139792207E-02  0.34533295251E-01  0.34718380502E-01  0.00000000000E+00 0.  1.
</event>
<event>
 5   0  0.4146200E+04  0.9118800E+02  0.7546771E-02  0.1180000E+00
      -11   -1    0    0    0    0  0.00000000000E+00  0.00000000000E+00  0.34996269501E-01  0.35000000000E-01  0.51099999109E-03 0.  1.
       11   -1    0    0    0    0 -0.00000000000E+00 -0.00000000000E+00 -0.34996269501E-01  0.35000000000E-01  0.51099999109E-03 0. -1.
       22    1    1    2    0    0 -0.26465534510E-01 -0.21320846183E-02  0.15032914164E-01  0.30511617624E-01  0.00000000000E+00 0.  1.
       22    1    1    2    0    0  0.38392501948E-02 -0.84547385498E-02 -0.10644211748E-01  0.14125214680E-01  0.00000000000E+00 0.  1.
       22    1    1    2    0    0  0.22626284316E-01  0.10586823168E-01 -0.43887024160E-02  0.25363167697E-01  0.00000000000E+00 0. -1.
</event>
<event>
 5   0  0.4146200E+04  0.9118800E+02  0.7546771E-02  0.1180000E+00
      -11   -1    0    0    0    0  0.00000000000E+00  0.00000000000E+00  0.34996269501E-01  0.35000000000E-01  0.51099999109E-03 0. -1.
       11   -1    0    0    0    0 -0.00000000000E+00 -0.00000000000E+00 -0.34996269501E-01  0.35000000000E-01  0.51099999109E-03 0.  1.
       22    1    1    2    0    0  0.57538081036E-02 -0.23056356103E-01 -0.24719262040E-01  0.34289120436E-01  0.00000000000E+00 0.  1.
       22    1    1    2    0    0 -0.17921084460E-04 -0.64851613761E-04 -0.79874751365E-03  0.80157625192E-03  0.00000000000E+00 0.  1.
       22    1    1    2    0    0 -0.57358870191E-02  0.23121207717E-01  0.25518009554E-01  0.34909303312E-01  0.00000000000E+00 0. -1.
</event>
<event>
 5   0  0.4146200E+04  0.9118800E+02  0.7546771E-02  0.1180000E+00
      -11   -1    0    0    0    0  0.00000000000E+00  0.00000000000E+00  0.34996269501E-01  0.35000000000E-01  0.51099999109E-03 0. -1.
       11   -1    0    0    0    0 -0.00000000000E+00 -0.00000000000E+00 -0.34996269501E-01  0.35000000000E-01  0.51099999109E-03 0.  1.
       22    1    1    2    0    0 -0.22444039155E-01  0.11101611563E-01  0.24246465168E-01  0.34855010344E-01  0.00000000000E+00 0. -1.
       22    1    1    2    0    0  0.32854335559E-03 -0.10887909033E-03  0.19600824689E-03  0.39776202140E-03  0.00000000000E+00 0. -1.
       22    1    1    2    0    0  0.22115495800E-01 -0.10992732473E-01 -0.24442473415E-01  0.34747227635E-01  0.00000000000E+00 0.  1.
</event>
<event>
 5   0  0.4146200E+04  0.9118800E+02  0.7546771E-02  0.1180000E+00
      -11   -1    0    0    0    0  0.00000000000E+00  0.00000000000E+00  0.34996269501E-01  0.35000000000E-01  0.51099999109E-03 0. -1.
       11   -1    0    0    0    0 -0.00000000000E+00 -0.00000000000E+00 -0.34996269501E-01  0.35000000000E-01  0.51099999109E-03 0.  1.
       22    1    1    2    0    0  0.52251672105E-03  0.78180052716E-04 -0.91705293388E-02  0.91857359095E-02  0.00000000000E+00 0.  1.
       22    1    1    2    0    0 -0.54858913162E-02 -0.95035954277E-02 -0.23777264552E-01  0.26187241916E-01  0.00000000000E+00 0.  1.
       22    1    1    2    0    0  0.49633745951E-02  0.94254153750E-02  0.32947793891E-01  0.34627022174E-01  0.00000000000E+00 0. -1.
</event>
<event>
 5   0  0.4146200E+04  0.9118800E+02  0.7546771E-02  0.1180000E+00
      -11   -1    0    0    0    0  0.00000000000E+00  0.00000000000E+00  0.34996269501E-01  0.35000000000E-01  0.51099999109E-03 0.  1.
       11   -1    0    0    0    0 -0.00000000000E+00 -0.00000000000E+00 -0.34996269501E-01  0.35000000000E-01  0.51099999109E-03 0. -1.
       22    1    1    2    0    0 -0.18327045439E-01 -0.91167812247E-04  0.26489462926E-01  0.32211497205E-01  0.00000000000E+00 0.  1.
       22    1    1    2    0    0  0.15086148946E-01  0.95226047735E-03 -0.29586126734E-01  0.33224051306E-01  0.00000000000E+00 0. -1.
       22    1    1    2    0    0  0.32408964924E-02 -0.86109266511E-03  0.30966638085E-02  0.45644514889E-02  0.00000000000E+00 0.  1.
</event>
<event>
 5   0  0.4146200E+04  0.9118800E+02  0.7546771E-02  0.1180000E+00
      -11   -1    0    0    0    0  0.00000000000E+00  0.00000000000E+00  0.34996269501E-01  0.35000000000E-01  0.51099999109E-03 0.  1.
       11   -1    0    0    0    0 -0.00000000000E+00 -0.00000000000E+00 -0.34996269501E-01  0.35000000000E-01  0.51099999109E-03 0. -1.
       22    1    1    2    0    0 -0.59131186731E-04 -0.25949524352E-03  0.31285322877E-02  0.31398325678E-02  0.00000000000E+00 0.  1.
       22    1    1    2    0    0 -0.15750112081E-01 -0.16984066051E-01 -0.25529004072E-01  0.34471068726E-01  0.00000000000E+00 0. -1.
       22    1    1    2    0    0  0.15809243268E-01  0.17243561295E-01  0.22400471785E-01  0.32389098706E-01  0.00000000000E+00 0.  1.
</event>
<event>
 5   0  0.4146200E+04  0.9118800E+02  0.7546771E-02  0.1180000E+00
      -11   -1    0    0    0    0  0.00000000000E+00  0.00000000000E+00  0.34996269501E-01  0.35000000000E-01  0.51099999109E-03 0. -1.
       11   -1    0    0    0    0 -0.00000000000E+00 -0.00000000000E+00 -0.34996269501E-01  0.35000000000E-01  0.51099999109E-03 0.  1.
       22    1    1    2    0    0 -0.28132814725E-02  0.20148724556E-01 -0.28285804595E-01  0.34842106645E-01  0.00000000000E+00 0.  1.
       22    1    1    2    0    0  0.24782176260E-02 -0.19616199965E-01  0.28306749385E-01  0.34528378537E-01  0.00000000000E+00 0. -1.
       22    1    1    2    0    0  0.33506384654E-03 -0.53252459124E-03 -0.20944790342E-04  0.62951481775E-03  0.00000000000E+00 0.  1.
</event>
<event>
 5   0  0.4146200E+04  0.9118800E+02  0.7546771E-02  0.1180000E+00
      -11   -1    0    0    0    0  0.00000000000E+00  0.00000000000E+00  0.34996269501E-01  0.35000000000E-01  0.51099999109E-03 0. -1.
       11   -1    0    0    0    0 -0.00000000000E+00 -0.00000000000E+00 -0.34996269501E-01  0.35000000000E-01  0.51099999109E-03 0.  1.
       22    1    1    2    0    0  0.88782624684E-02 -0.33697493745E-02  0.33450978246E-01  0.34772786787E-01  0.00000000000E+00 0. -1.
       22    1    1    2    0    0  0.40631722014E-04  0.17778330667E-02 -0.33550118319E-02  0.37971628544E-02  0.00000000000E+00 0. -1.
       22    1    1    2    0    0 -0.89188941904E-02  0.15919163078E-02 -0.30095966415E-01  0.31430050358E-01  0.00000000000E+00 0.  1.
</event>
<event>
 5   0  0.4146200E+04  0.9118800E+02  0.7546771E-02  0.1180000E+00
      -11   -1    0    0    0    0  0.00000000000E+00  0.00000000000E+00  0.34996269501E-01  0.35000000000E-01  0.51099999109E-03 0.  1.
       11   -1    0    0    0    0 -0.00000000000E+00 -0.00000000000E+00 -0.34996269501E-01  0.35000000000E-01  0.51099999109E-03 0. -1.
       22    1    1    2    0    0  0.49092978123E-03  0.11063264066E-03  0.14849090124E-03  0.52469150844E-03  0.00000000000E+00 0. -1.
       22    1    1    2    0    0  0.86684886226E-02 -0.11570489898E-01 -0.31611184509E-01  0.34760407327E-01  0.00000000000E+00 0. -1.
       22    1    1    2    0    0 -0.91594184038E-02  0.11459857258E-01  0.31462693607E-01  0.34714901165E-01  0.00000000000E+00 0.  1.
</event>
<event>
 5   0  0.4146200E+04  0.9118800E+02  0.7546771E-02  0.1180000E+00
      -11   -1    0    0    0    0  0.00000000000E+00  0.00000000000E+00  0.34996269501E-01  0.35000000000E-01  0.51099999109E-03 0. -1.
       11   -1    0    0    0    0 -0.00000000000E+00 -0.00000000000E+00 -0.34996269501E-01  0.35000000000E-01  0.51099999109E-03 0.  1.
       22    1    1    2    0    0  0.41201162743E-04  0.77397170380E-04 -0.13479459818E-02  0.13507946652E-02  0.00000000000E+00 0.  1.
       22    1    1    2    0    0  0.19602317720E-01  0.96493070310E-02  0.27113569677E-01  0.34821051777E-01  0.00000000000E+00 0. -1.
       22    1    1    2    0    0 -0.19643518883E-01 -0.97267042014E-02 -0.25765623695E-01  0.33828153558E-01  0.00000000000E+00 0.  1.
</event>
<event>
 5   0  0.4146200E+04  0.9118800E+02  0.7546771E-02  0.1180000E+00
      -11   -1    0    0    0    0  0.00000000000E+00  0.00000000000E+00  0.34996269501E-01  0.35000000000E-01  0.51099999109E-03 0.  1.
       11   -1    0    0    0    0 -0.00000000000E+00 -0.00000000000E+00 -0.34996269501E-01  0.35000000000E-01  0.51099999109E-03 0. -1.
       22    1    1    2    0    0  0.66293324898E-03 -0.14006039717E-02 -0.32057645400E-02  0.35606317226E-02  0.00000000000E+00 0. -1.
       22    1    1    2    0    0  0.16074824227E-01 -0.21790020564E-01  0.19643143455E-01  0.33452325105E-01  0.00000000000E+00 0.  1.
       22    1    1    2    0    0 -0.16737757476E-01  0.23190624536E-01 -0.16437378915E-01  0.32987043173E-01  0.00000000000E+00 0. -1.
</event>
<event>
 5   0  0.4146200E+04  0.9118800E+02  0.7546771E-02  0.1180000E+00
      -11   -1    0    0    0    0  0.00000000000E+00  0.00000000000E+00  0.34996269501E-01  0.35000000000E-01  0.51099999109E-03 0. -1.
       11   -1    0    0    0    0 -0.00000000000E+00 -0.00000000000E+00 -0.34996269501E-01  0.35000000000E-01  0.51099999109E-03 0.  1.
       22    1    1    2    0    0  0.10023953567E-01 -0.11826299913E-01 -0.30508954322E-01  0.34221883475E-01  0.00000000000E+00 0.  1.
       22    1    1    2    0    0  0.20437403215E-02  0.81548143777E-03  0.23189859446E-02  0.31968078279E-02  0.00000000000E+00 0. -1.
       22    1    1    2    0    0 -0.12067693888E-01  0.11010818475E-01  0.28189968378E-01  0.32581308697E-01  0.00000000000E+00 0. -1.
</event>
<event>
 5   0  0.4146200E+04  0.9118800E+02  0.7546771E-02  0.1180000E+00
      -11   -1    0    0    0    0  0.00000000000E+00  0.00000000000E+00  0.34996269501E-01  0.35000000000E-01  0.51099999109E-03 0.  1.
       11   -1    0    0    0    0 -0.00000000000E+00 -0.00000000000E+00 -0.34996269501E-01  0.35000000000E-01  0.51099999109E-03 0. -1.
       22    1    1    2    0    0  0.17880934302E-02  0.14091931317E-02 -0.28553413301E-01  0.28644031045E-01  0.00000000000E+00 0. -1.
       22    1    1    2    0    0 -0.24795626504E-02  0.19453139714E-02  0.34419342637E-01  0.34563327747E-01  0.00000000000E+00 0.  1.
       22    1    1    2    0    0  0.69146922022E-03 -0.33545071031E-02 -0.58659293369E-02  0.67926412075E-02  0.00000000000E+00 0. -1.
</event>
<event>
 5   0  0.4146200E+04  0.9118800E+02  0.7546771E-02  0.1180000E+00
      -11   -1    0    0    0    0  0.00000000000E+00  0.00000000000E+00  0.34996269501E-01  0.35000000000E-01  0.51099999109E-03 0. -1.
       11   -1    0    0    0    0 -0.00000000000E+00 -0.00000000000E+00 -0.34996269501E-01  0.35000000000E-01  0.51099999109E-03 0.  1.
       22    1    1    2    0    0  0.59380216894E-02  0.73043166049E-02  0.33568761165E-01  0.34863661150E-01  0.00000000000E+00 0. -1.
       22    1    1    2    0    0 -0.58156728587E-02 -0.50455316246E-02 -0.29421846528E-01  0.30412571304E-01  0.00000000000E+00 0.  1.
       22    1    1    2    0    0 -0.12234883066E-03 -0.22587849803E-02 -0.41469146368E-02  0.47237675459E-02  0.00000000000E+00 0.  1.
</event>
<event>
 5   0  0.4146200E+04  0.9118800E+02  0.7546771E-02  0.1180000E+00
      -11   -1    0    0    0    0  0.00000000000E+00  0.00000000000E+00  0.34996269501E-01  0.35000000000E-01  0.51099999109E-03 0.  1.
       11   -1    0    0    0    0 -0.00000000000E+00 -0.00000000000E+00 -0.34996269501E-01  0.35000000000E-01  0.51099999109E-03 0. -1.
       22    1    1    2    0    0 -0.13041763550E-01  0.73404278521E-02 -0.31529161216E-01  0.34900680288E-01  0.00000000000E+00 0. -1.
       22    1    1    2    0    0  0.12806231148E-01 -0.71773034520E-02  0.28519791429E-01  0.32076342438E-01  0.00000000000E+00 0.  1.
       22    1    1    2    0    0  0.23553240176E-03 -0.16312440011E-03  0.30093697874E-02  0.30229772741E-02  0.00000000000E+00 0.  1.
</event>
<event>
 5   0  0.4146200E+04  0.9118800E+02  0.7546771E-02  0.1180000E+00
      -11   -1    0    0    0    0  0.00000000000E+00  0.00000000000E+00  0.34996269501E-01  0.35000000000E-01  0.51099999109E-03 0.  1.
       11   -1    0    0    0    0 -0.00000000000E+00 -0.00000000000E+00 -0.34996269501E-01  0.35000000000E-01  0.51099999109E-03 0. -1.
       22    1    1    2    0    0  0.85320091952E-04  0.17078699726E-02 -0.24742439475E-02  0.30076539816E-02  0.00000000000E+00 0.  1.
       22    1    1    2    0    0  0.21388417262E-03  0.81980391453E-03  0.34677904689E-01  0.34688253033E-01  0.00000000000E+00 0.  1.
       22    1    1    2    0    0 -0.29920426457E-03 -0.25276738871E-02 -0.32203660741E-01  0.32304092985E-01  0.00000000000E+00 0. -1.
</event>
<event>
 5   0  0.4146200E+04  0.9118800E+02  0.7546771E-02  0.1180000E+00
      -11   -1    0    0    0    0  0.00000000000E+00  0.00000000000E+00  0.34996269501E-01  0.35000000000E-01  0.51099999109E-03 0. -1.
       11   -1    0    0    0    0 -0.00000000000E+00 -0.00000000000E+00 -0.34996269501E-01  0.35000000000E-01  0.51099999109E-03 0.  1.
       22    1    1    2    0    0  0.56588465566E-02 -0.77136603682E-02  0.96358956966E-02  0.13578423565E-01  0.00000000000E+00 0. -1.
       22    1    1    2    0    0 -0.82730644323E-02  0.15682127694E-01 -0.29747942581E-01  0.34631096025E-01  0.00000000000E+00 0.  1.
       22    1    1    2    0    0  0.26142178757E-02 -0.79684673254E-02  0.20112046884E-01  0.21790480410E-01  0.00000000000E+00 0. -1.
</event>
<event>
 5   0  0.4146200E+04  0.9118800E+02  0.7546771E-02  0.1180000E+00
      -11   -1    0    0    0    0  0.00000000000E+00  0.00000000000E+00  0.34996269501E-01  0.35000000000E-01  0.51099999109E-03 0. -1.
       11   -1    0    0    0    0 -0.00000000000E+00 -0.00000000000E+00 -0.34996269501E-01  0.35000000000E-01  0.51099999109E-03 0.  1.
       22    1    1    2    0    0 -0.82057189668E-02 -0.18472025926E-01 -0.24963347951E-01  0.32120372141E-01  0.00000000000E+00 0.  1.
       22    1    1    2    0    0  0.75350268975E-02  0.18289900309E-01  0.87141668027E-02  0.21615591288E-01  0.00000000000E+00 0. -1.
       22    1    1    2    0    0  0.67069206928E-03  0.18212561690E-03  0.16249181149E-01  0.16264036571E-01  0.00000000000E+00 0. -1.
</event>
<event>
 5   0  0.4146200E+04  0.9118800E+02  0.7546771E-02  0.1180000E+00
      -11   -1    0    0    0    0  0.00000000000E+00  0.00000000000E+00  0.34996269501E-01  0.35000000000E-01  0.51099999109E-03 0.  1.
       11   -1    0    0    0    0 -0.00000000000E+00 -0.00000000000E+00 -0.34996269501E-01  0.35000000000E-01  0.51099999109E-03 0. -1.
       22    1    1    2    0    0 -0.13400186805E-01 -0.18895014717E-01  0.25334469308E-01  0.34328150586E-01  0.00000000000E+00 0.  1.
       22    1    1    2    0    0 -0.58022326245E-04 -0.91437464861E-03 -0.16783679197E-03  0.93145948764E-03  0.00000000000E+00 0.  1.
       22    1    1    2    0    0  0.13458209131E-01  0.19809389365E-01 -0.25166632516E-01  0.34740389926E-01  0.00000000000E+00 0. -1.
</event>
<event>
 5   0  0.4146200E+04  0.9118800E+02  0.7546771E-02  0.1180000E+00
      -11   -1    0    0    0    0  0.00000000000E+00  0.00000000000E+00  0.34996269501E-01  0.35000000000E-01  0.51099999109E-03 0.  1.
       11   -1    0    0    0    0 -0.00000000000E+00 -0.00000000000E+00 -0.34996269501E-01  0.35000000000E-01  0.51099999109E-03 0. -1.
       22    1    1    2    0    0 -0.28359438880E-02  0.26469018743E-02 -0.10155882793E-01  0.10871551066E-01  0.00000000000E+00 0. -1.
       22    1    1    2    0    0 -0.10125352714E-01 -0.27337626643E-02 -0.22047250128E-01  0.24414697706E-01  0.00000000000E+00 0. -1.
       22    1    1    2    0    0  0.12961296602E-01  0.86860789945E-04  0.32203132921E-01  0.34713751228E-01  0.00000000000E+00 0.  1.
</event>
<event>
 5   0  0.4146200E+04  0.9118800E+02  0.7546771E-02  0.1180000E+00
      -11   -1    0    0    0    0  0.00000000000E+00  0.00000000000E+00  0.34996269501E-01  0.35000000000E-01  0.51099999109E-03 0. -1.
       11   -1    0    0    0    0 -0.00000000000E+00 -0.00000000000E+00 -0.34996269501E-01  0.35000000000E-01  0.51099999109E-03 0.  1.
       22    1    1    2    0    0 -0.81579700007E-02 -0.10785464168E-01 -0.25522134754E-01  0.28883526001E-01  0.00000000000E+00 0.  1.
       22    1    1    2    0    0  0.15130094579E-02 -0.29362180932E-02 -0.55767176781E-02  0.64815395063E-02  0.00000000000E+00 0.  1.
       22    1    1    2    0    0  0.66449605427E-02  0.13721682261E-01  0.31098852432E-01  0.34634934492E-01  0.00000000000E+00 0. -1.
</event>
<event>
 5   0  0.4146200E+04  0.9118800E+02  0.7546771E-02  0.1180000E+00
      -11   -1    0    0    0    0  0.00000000000E+00  0.00000000000E+00  0.34996269501E-01  0.35000000000E-01  0.51099999109E-03 0. -1.
       11   -1    0    0    0    0 -0.00000000000E+00 -0.00000000000E+00 -0.34996269501E-01  0.35000000000E-01  0.51099999109E-03 0.  1.
       22    1    1    2    0    0  0.12622755413E-02  0.14086103277E-02 -0.10065975537E-02  0.21426061777E-02  0.00000000000E+00 0. -1.
       22    1    1    2    0    0 -0.12517560777E-01 -0.72796285543E-02 -0.30569157362E-01  0.33825370678E-01  0.00000000000E+00 0.  1.
       22    1    1    2    0    0  0.11255285236E-01  0.58710182266E-02  0.31575754916E-01  0.34032023144E-01  0.00000000000E+00 0. -1.
</event>
<event>
 5   0  0.4146200E+04  0.9118800E+02  0.7546771E-02  0.1180000E+00
      -11   -1    0    0    0    0  0.00000000000E+00  0.00000000000E+00  0.34996269501E-01  0.35000000000E-01  0.51099999109E-03 0.  1.
       11   -1    0    0    0    0 -0.00000000000E+00 -0.00000000000E+00 -0.34996269501E-01  0.35000000000E-01  0.51099999109E-03 0. -1.
       22    1    1    2    0    0 -0.12310382235E-01  0.16198334355E-02  0.32612620977E-01  0.34896309520E-01  0.00000000000E+00 0.  1.
       22    1    1    2    0    0  0.12014126275E-03  0.12981770615E-03 -0.33574294038E-02  0.33620854780E-02  0.00000000000E+00 0.  1.
       22    1    1    2    0    0  0.12190240972E-01 -0.17496511416E-02 -0.29255191574E-01  0.31741605002E-01  0.00000000000E+00 0. -1.
</event>
<event>
 5   0  0.4146200E+04  0.9118800E+02  0.7546771E-02  0.1180000E+00
      -11   -1    0    0    0    0  0.00000000000E+00  0.00000000000E+00  0.34996269501E-01  0.35000000000E-01  0.51099999109E-03 0.  1.
       11   -1    0    0    0    0 -0.00000000000E+00 -0.00000000000E+00 -0.34996269501E-01  0.35000000000E-01  0.51099999109E-03 0. -1.
       22    1    1    2    0    0 -0.21436482299E-03 -0.59300221878E-04  0.59154832870E-02  0.59196631081E-02  0.00000000000E+00 0.  1.
       22    1    1    2    0    0  0.10348187245E-01 -0.57037026915E-02 -0.32753512022E-01  0.34819674804E-01  0.00000000000E+00 0. -1.
       22    1    1    2    0    0 -0.10133822422E-01  0.57630029134E-02  0.26838028735E-01  0.29260662088E-01  0.00000000000E+00 0.  1.
</event>
<event>
 5   0  0.4146200E+04  0.9118800E+02  0.7546771E-02  0.1180000E+00
      -11   -1    0    0    0    0  0.00000000000E+00  0.00000000000E+00  0.34996269501E-01  0.35000000000E-01  0.51099999109E-03 0. -1.
       11   -1    0    0    0    0 -0.00000000000E+00 -0.00000000000E+00 -0.34996269501E-01  0.35000000000E-01  0.51099999109E-03 0.  1.
       22    1    1    2    0    0  0.30898471278E-05 -0.88294062859E-04  0.55286335391E-03  0.55987791240E-03  0.00000000000E+00 0. -1.
       22    1    1    2    0    0  0.12066887620E-02 -0.24637103873E-01 -0.24665092616E-01  0.34882800615E-01  0.00000000000E+00 0.  1.
       22    1    1    2    0    0 -0.12097786092E-02  0.24725397936E-01  0.24112229262E-01  0.34557321472E-01  0.00000000000E+00 0. -1.
</event>
<event>
 5   0  0.4146200E+04  0.9118800E+02  0.7546771E-02  0.1180000E+00
      -11   -1    0    0    0    0  0.00000000000E+00  0.00000000000E+00  0.34996269501E-01  0.35000000000E-01  0.51099999109E-03 0.  1.
       11   -1    0    0    0    0 -0.00000000000E+00 -0.00000000000E+00 -0.34996269501E-01  0.35000000000E-01  0.51099999109E-03 0. -1.
       22    1    1    2    0    0  0.15233464917E-01  0.25721165040E-01  0.12938539272E-01  0.32573648596E-01  0.00000000000E+00 0.  1.
       22    1    1    2    0    0 -0.29037943869E-02  0.11959573024E-03 -0.78177493729E-02  0.83404754204E-02  0.00000000000E+00 0. -1.
       22    1    1    2    0    0 -0.12329670530E-01 -0.25840760770E-01 -0.51207898986E-02  0.29085875984E-01  0.00000000000E+00 0. -1.
</event>
<event>
 5   0  0.4146200E+04  0.9118800E+02  0.7546771E-02  0.1180000E+00
      -11   -1    0    0    0    0  0.00000000000E+00  0.00000000000E+00  0.34996269501E-01  0.35000000000E-01  0.51099999109E-03 0.  1.
       11   -1    0    0    0    0 -0.00000000000E+00 -0.00000000000E+00 -0.34996269501E-01  0.35000000000E-01  0.51099999109E-03 0. -1.
       22    1    1    2    0    0  0.38886815348E-03  0.40662487524E-02  0.21613771016E-01  0.21996379131E-01  0.00000000000E+00 0.  1.
       22    1    1    2    0    0  0.78064176464E-02 -0.10675235649E-01  0.87558928714E-02  0.15860847159E-01  0.00000000000E+00 0.  1.
       22    1    1    2    0    0 -0.81952857999E-02  0.66089868966E-02 -0.30369663887E-01  0.32142773710E-01  0.00000000000E+00 0. -1.
</event>
<event>
 5   0  0.4146200E+04  0.9118800E+02  0.7546771E-02  0.1180000E+00
      -11   -1    0    0    0    0  0.00000000000E+00  0.00000000000E+00  0.34996269501E-01  0.35000000000E-01  0.51099999109E-03 0.  1.
       11   -1    0    0    0    0 -0.00000000000E+00 -0.00000000000E+00 -0.34996269501E-01  0.35000000000E-01  0.51099999109E-03 0. -1.
       22    1    1    2    0    0 -0.67500269516E-02  0.10006179538E-01 -0.32656852592E-01  0.34816038172E-01  0.00000000000E+00 0. -1.
       22    1    1    2    0    0  0.40460588027E-03 -0.74979755883E-03  0.24847662781E-03  0.88749249695E-03  0.00000000000E+00 0. -1.
       22    1    1    2    0    0  0.63454210714E-02 -0.92563819790E-02  0.32408375964E-01  0.34296469331E-01  0.00000000000E+00 0.  1.
</event>
<event>
 5   0  0.4146200E+04  0.9118800E+02  0.7546771E-02  0.1180000E+00
      -11   -1    0    0    0    0  0.00000000000E+00  0.00000000000E+00  0.34996269501E-01  0.35000000000E-01  0.51099999109E-03 0.  1.
       11   -1    0    0    0    0 -0.00000000000E+00 -0.00000000000E+00 -0.34996269501E-01  0.35000000000E-01  0.51099999109E-03 0. -1.
       22    1    1    2    0    0  0.99550143123E-03  0.13561841151E-02  0.33548204545E-01  0.33590360025E-01  0.00000000000E+00 0.  1.
       22    1    1    2    0    0  0.52549565137E-02  0.23221194963E-02 -0.79814491405E-02  0.98341414114E-02  0.00000000000E+00 0. -1.
       22    1    1    2    0    0 -0.62504579449E-02 -0.36783036114E-02 -0.25566755404E-01  0.26575498563E-01  0.00000000000E+00 0.  1.
</event>
<event>
 5   0  0.4146200E+04  0.9118800E+02  0.7546771E-02  0.1180000E+00
      -11   -1    0    0    0    0  0.00000000000E+00  0.00000000000E+00  0.34996269501E-01  0.35000000000E-01  0.51099999109E-03 0.  1.
       11   -1    0    0    0    0 -0.00000000000E+00 -0.00000000000E+00 -0.34996269501E-01  0.35000000000E-01  0.51099999109E-03 0.  1.
       22    1    1    2    0    0 -0.91417937551E-03  0.41912790550E-02 -0.57028983149E-02  0.71362170117E-02  0.00000000000E+00 0. -1.
       22    1    1    2    0    0  0.13282906980E-02 -0.21308684395E-02  0.34198614914E-01  0.34290672471E-01  0.00000000000E+00 0.  1.
       22    1    1    2    0    0 -0.41411132252E-03 -0.20604106155E-02 -0.28495716599E-01  0.28573110517E-01  0.00000000000E+00 0.  1.
</event>
<event>
 5   0  0.4146200E+04  0.9118800E+02  0.7546771E-02  0.1180000E+00
      -11   -1    0    0    0    0  0.00000000000E+00  0.00000000000E+00  0.34996269501E-01  0.35000000000E-01  0.51099999109E-03 0. -1.
       11   -1    0    0    0    0 -0.00000000000E+00 -0.00000000000E+00 -0.34996269501E-01  0.35000000000E-01  0.51099999109E-03 0.  1.
       22    1    1    2    0    0 -0.26283439626E-02 -0.53554144479E-03  0.34816439130E-01  0.34919613834E-01  0.00000000000E+00 0. -1.
       22    1    1    2    0    0  0.24684157803E-02 -0.81602318981E-04 -0.33733011960E-01  0.33823303081E-01  0.00000000000E+00 0.  1.
       22    1    1    2    0    0  0.15992818230E-03  0.61714376377E-03 -0.10834271703E-02  0.12570830847E-02  0.00000000000E+00 0.  1.
</event>
<event>
 5   0  0.4146200E+04  0.9118800E+02  0.7546771E-02  0.1180000E+00
      -11   -1    0    0    0    0  0.00000000000E+00  0.00000000000E+00  0.34996269501E-01  0.35000000000E-01  0.51099999109E-03 0.  1.
       11   -1    0    0    0    0 -0.00000000000E+00 -0.00000000000E+00 -0.34996269501E-01  0.35000000000E-01  0.51099999109E-03 0. -1.
       22    1    1    2    0    0 -0.32293644182E-03 -0.33283253205E-02 -0.83111944556E-02  0.89586824178E-02  0.00000000000E+00 0. -1.
       22    1    1    2    0    0  0.97961266613E-03  0.66793773684E-02  0.34234655633E-01  0.34893915935E-01  0.00000000000E+00 0.  1.
       22    1    1    2    0    0 -0.65667622431E-03 -0.33510520479E-02 -0.25923461177E-01  0.26147401647E-01  0.00000000000E+00 0. -1.
</event>
<event>
 5   0  0.4146200E+04  0.9118800E+02  0.7546771E-02  0.1180000E+00
      -11   -1    0    0    0    0  0.00000000000E+00  0.00000000000E+00  0.34996269501E-01  0.35000000000E-01  0.51099999109E-03 0. -1.
       11   -1    0    0    0    0 -0.00000000000E+00 -0.00000000000E+00 -0.34996269501E-01  0.35000000000E-01  0.51099999109E-03 0.  1.
       22    1    1    2    0    0 -0.17273690532E-01 -0.82955298509E-02  0.28337223408E-01  0.34208104750E-01  0.00000000000E+00 0. -1.
       22    1    1    2    0    0 -0.35865907429E-03 -0.66337313829E-03  0.44034619980E-03  0.87327259653E-03  0.00000000000E+00 0. -1.
       22    1    1    2    0    0  0.17632349607E-01  0.89589029892E-02 -0.28777569608E-01  0.34918622653E-01  0.00000000000E+00 0.  1.
</event>
<event>
 5   0  0.4146200E+04  0.9118800E+02  0.7546771E-02  0.1180000E+00
      -11   -1    0    0    0    0  0.00000000000E+00  0.00000000000E+00  0.34996269501E-01  0.35000000000E-01  0.51099999109E-03 0. -1.
       11   -1    0    0    0    0 -0.00000000000E+00 -0.00000000000E+00 -0.34996269501E-01  0.35000000000E-01  0.51099999109E-03 0.  1.
       22    1    1    2    0    0  0.67926662510E-02  0.15428144434E-01  0.22031790330E-01  0.27741083984E-01  0.00000000000E+00 0. -1.
       22    1    1    2    0    0 -0.41987059069E-02 -0.14940856146E-01 -0.30048081458E-01  0.33819306808E-01  0.00000000000E+00 0.  1.
       22    1    1    2    0    0 -0.25939603441E-02 -0.48728828753E-03  0.80162911273E-02  0.84396092078E-02  0.00000000000E+00 0.  1.
</event>
<event>
 5   0  0.4146200E+04  0.9118800E+02  0.7546771E-02  0.1180000E+00
      -11   -1    0    0    0    0  0.00000000000E+00  0.00000000000E+00  0.34996269501E-01  0.35000000000E-01  0.51099999109E-03 0.  1.
       11   -1    0    0    0    0 -0.00000000000E+00 -0.00000000000E+00 -0.34996269501E-01  0.35000000000E-01  0.51099999109E-03 0. -1.
       22    1    1    2    0    0 -0.25740947995E-02 -0.12277964327E-02  0.15918420009E-01  0.16171875083E-01  0.00000000000E+00 0.  1.
       22    1    1    2    0    0  0.12945666764E-01  0.12173771155E-01 -0.28902892029E-01  0.33928869120E-01  0.00000000000E+00 0. -1.
       22    1    1    2    0    0 -0.10371571964E-01 -0.10945974722E-01  0.12984472020E-01  0.19899255797E-01  0.00000000000E+00 0.  1.
</event>
<event>
 5   0  0.4146200E+04  0.9118800E+02  0.7546771E-02  0.1180000E+00
      -11   -1    0    0    0    0  0.00000000000E+00  0.00000000000E+00  0.34996269501E-01  0.35000000000E-01  0.51099999109E-03 0. -1.
       11   -1    0    0    0    0 -0.00000000000E+00 -0.00000000000E+00 -0.34996269501E-01  0.35000000000E-01  0.51099999109E-03 0.  1.
       22    1    1    2    0    0 -0.59357760524E-03  0.17095965167E-02 -0.31788542347E-01  0.31840013806E-01  0.00000000000E+00 0.  1.
       22    1    1    2    0    0  0.82285029245E-03 -0.29061192046E-02  0.34789914499E-01  0.34920778374E-01  0.00000000000E+00 0. -1.
       22    1    1    2    0    0 -0.22927268720E-03  0.11965226880E-02 -0.30013721517E-02  0.32392078200E-02  0.00000000000E+00 0.  1.
</event>
<event>
 5   0  0.4146200E+04  0.9118800E+02  0.7546771E-02  0.1180000E+00
      -11   -1    0    0    0    0  0.00000000000E+00  0.00000000000E+00  0.34996269501E-01  0.35000000000E-01  0.51099999109E-03 0. -1.
       11   -1    0    0    0    0 -0.00000000000E+00 -0.00000000000E+00 -0.34996269501E-01  0.35000000000E-01  0.51099999109E-03 0.  1.
       22    1    1    2    0    0 -0.38351894939E-03  0.11148487824E-02 -0.22232397438E-02  0.25164994637E-02  0.00000000000E+00 0. -1.
       22    1    1    2    0    0  0.23482543835E-02  0.32135662198E-03  0.34767588212E-01  0.34848282006E-01  0.00000000000E+00 0. -1.
       22    1    1    2    0    0 -0.19647354341E-02 -0.14362054044E-02 -0.32544348468E-01  0.32635218530E-01  0.00000000000E+00 0.  1.
</event>
<event>
 5   0  0.4146200E+04  0.9118800E+02  0.7546771E-02  0.1180000E+00
      -11   -1    0    0    0    0  0.00000000000E+00  0.00000000000E+00  0.34996269501E-01  0.35000000000E-01  0.51099999109E-03 0.  1.
       11   -1    0    0    0    0 -0.00000000000E+00 -0.00000000000E+00 -0.34996269501E-01  0.35000000000E-01  0.51099999109E-03 0. -1.
       22    1    1    2    0    0  0.13246827505E-01  0.23486685883E-02  0.32258087686E-01  0.34951093033E-01  0.00000000000E+00 0.  1.
       22    1    1    2    0    0 -0.13350085475E-01 -0.22998225039E-02 -0.31604896653E-01  0.34385803149E-01  0.00000000000E+00 0. -1.
       22    1    1    2    0    0  0.10325796948E-03 -0.48846084425E-04 -0.65319103225E-03  0.66310381754E-03  0.00000000000E+00 0. -1.
</event>
<event>
 5   0  0.4146200E+04  0.9118800E+02  0.7546771E-02  0.1180000E+00
      -11   -1    0    0    0    0  0.00000000000E+00  0.00000000000E+00  0.34996269501E-01  0.35000000000E-01  0.51099999109E-03 0. -1.
       11   -1    0    0    0    0 -0.00000000000E+00 -0.00000000000E+00 -0.34996269501E-01  0.35000000000E-01  0.51099999109E-03 0.  1.
       22    1    1    2    0    0  0.72754242522E-04 -0.90309148097E-04  0.17288491076E-02  0.17327343013E-02  0.00000000000E+00 0.  1.
       22    1    1    2    0    0 -0.43864185276E-02  0.20431987386E-01 -0.27888878876E-01  0.34849624690E-01  0.00000000000E+00 0.  1.
       22    1    1    2    0    0  0.43136642851E-02 -0.20341678238E-01  0.26160029769E-01  0.33417641009E-01  0.00000000000E+00 0. -1.
</event>
<event>
 5   0  0.4146200E+04  0.9118800E+02  0.7546771E-02  0.1180000E+00
      -11   -1    0    0    0    0  0.00000000000E+00  0.00000000000E+00  0.34996269501E-01  0.35000000000E-01  0.51099999109E-03 0. -1.
       11   -1    0    0    0    0 -0.00000000000E+00 -0.00000000000E+00 -0.34996269501E-01  0.35000000000E-01  0.51099999109E-03 0.  1.
       22    1    1    2    0    0 -0.81570767809E-02  0.32467346492E-02 -0.16309209019E-01  0.18522135036E-01  0.00000000000E+00 0.  1.
       22    1    1    2    0    0  0.71229942446E-02 -0.13730233312E-03  0.33361428966E-01  0.34113645973E-01  0.00000000000E+00 0. -1.
       22    1    1    2    0    0  0.10340825363E-02 -0.31094323161E-02 -0.17052219947E-01  0.17364218990E-01  0.00000000000E+00 0.  1.
</event>
<event>
 5   0  0.4146200E+04  0.9118800E+02  0.7546771E-02  0.1180000E+00
      -11   -1    0    0    0    0  0.00000000000E+00  0.00000000000E+00  0.34996269501E-01  0.35000000000E-01  0.51099999109E-03 0. -1.
       11   -1    0    0    0    0 -0.00000000000E+00 -0.00000000000E+00 -0.34996269501E-01  0.35000000000E-01  0.51099999109E-03 0.  1.
       22    1    1    2    0    0 -0.18295412847E-01  0.97286033776E-02 -0.20788035269E-01  0.29351495111E-01  0.00000000000E+00 0.  1.
       22    1    1    2    0    0  0.13054209139E-01  0.39471185706E-02 -0.17708979399E-02  0.13752388912E-01  0.00000000000E+00 0. -1.
       22    1    1    2    0    0  0.52412037077E-02 -0.13675721948E-01  0.22558933209E-01  0.26896115977E-01  0.00000000000E+00 0. -1.
</event>
<event>
 5   0  0.4146200E+04  0.9118800E+02  0.7546771E-02  0.1180000E+00
      -11   -1    0    0    0    0  0.00000000000E+00  0.00000000000E+00  0.34996269501E-01  0.35000000000E-01  0.51099999109E-03 0.  1.
       11   -1    0    0    0    0 -0.00000000000E+00 -0.00000000000E+00 -0.34996269501E-01  0.35000000000E-01  0.51099999109E-03 0. -1.
       22    1    1    2    0    0  0.23245790791E-03  0.18905777988E-02 -0.13036609433E-01  0.13175033458E-01  0.00000000000E+00 0. -1.
       22    1    1    2    0    0  0.11372784146E-01 -0.31450968378E-02 -0.19202261409E-01  0.22537939049E-01  0.00000000000E+00 0. -1.
       22    1    1    2    0    0 -0.11605242054E-01  0.12545190390E-02  0.32238870843E-01  0.34287027494E-01  0.00000000000E+00 0.  1.
</event>
<event>
 5   0  0.4146200E+04  0.9118800E+02  0.7546771E-02  0.1180000E+00
      -11   -1    0    0    0    0  0.00000000000E+00  0.00000000000E+00  0.34996269501E-01  0.35000000000E-01  0.51099999109E-03 0.  1.
       11   -1    0    0    0    0 -0.00000000000E+00 -0.00000000000E+00 -0.34996269501E-01  0.35000000000E-01  0.51099999109E-03 0. -1.
       22    1    1    2    0    0 -0.15601102965E-01 -0.96209373011E-02  0.88853950170E-02  0.20369268344E-01  0.00000000000E+00 0.  1.
       22    1    1    2    0    0  0.15335442448E-01  0.10033783027E-01 -0.26384539126E-01  0.32124702361E-01  0.00000000000E+00 0. -1.
       22    1    1    2    0    0  0.26566051729E-03 -0.41284572554E-03  0.17499144109E-01  0.17506029294E-01  0.00000000000E+00 0.  1.
</event>
<event>
 5   0  0.4146200E+04  0.9118800E+02  0.7546771E-02  0.1180000E+00
      -11   -1    0    0    0    0  0.00000000000E+00  0.00000000000E+00  0.34996269501E-01  0.35000000000E-01  0.51099999109E-03 0.  1.
       11   -1    0    0    0    0 -0.00000000000E+00 -0.00000000000E+00 -0.34996269501E-01  0.35000000000E-01  0.51099999109E-03 0. -1.
       22    1    1    2    0    0  0.68791803292E-04 -0.47836752505E-04 -0.32399862328E-03  0.33465769822E-03  0.00000000000E+00 0.  1.
       22    1    1    2    0    0 -0.14744079060E-01 -0.27967671721E-02 -0.31285954556E-01  0.34699001807E-01  0.00000000000E+00 0. -1.
       22    1    1    2    0    0  0.14675287257E-01  0.28446039246E-02  0.31609953179E-01  0.34966340494E-01  0.00000000000E+00 0.  1.
</event>
<event>
 5   0  0.4146200E+04  0.9118800E+02  0.7546771E-02  0.1180000E+00
      -11   -1    0    0    0    0  0.00000000000E+00  0.00000000000E+00  0.34996269501E-01  0.35000000000E-01  0.51099999109E-03 0.  1.
       11   -1    0    0    0    0 -0.00000000000E+00 -0.00000000000E+00 -0.34996269501E-01  0.35000000000E-01  0.51099999109E-03 0. -1.
       22    1    1    2    0    0 -0.22629731439E-03 -0.63324685617E-03 -0.82340120831E-03  0.10631094042E-02  0.00000000000E+00 0.  1.
       22    1    1    2    0    0  0.19749484331E-02  0.62993884201E-02  0.34304892498E-01  0.34934343633E-01  0.00000000000E+00 0.  1.
       22    1    1    2    0    0 -0.17486511187E-02 -0.56661415640E-02 -0.33481491290E-01  0.34002546963E-01  0.00000000000E+00 0. -1.
</event>
<event>
 5   0  0.4146200E+04  0.9118800E+02  0.7546771E-02  0.1180000E+00
      -11   -1    0    0    0    0  0.00000000000E+00  0.00000000000E+00  0.34996269501E-01  0.35000000000E-01  0.51099999109E-03 0.  1.
       11   -1    0    0    0    0 -0.00000000000E+00 -0.00000000000E+00 -0.34996269501E-01  0.35000000000E-01  0.51099999109E-03 0. -1.
       22    1    1    2    0    0  0.52634820901E-04 -0.10129593212E-03 -0.13874036750E-02  0.13920920400E-02  0.00000000000E+00 0. -1.
       22    1    1    2    0    0  0.11312796792E-01 -0.14211946355E-01  0.29755549085E-01  0.34861891684E-01  0.00000000000E+00 0.  1.
       22    1    1    2    0    0 -0.11365431613E-01  0.14313242287E-01 -0.28368145410E-01  0.33746016276E-01  0.00000000000E+00 0. -1.
</event>
<event>
 5   0  0.4146200E+04  0.9118800E+02  0.7546771E-02  0.1180000E+00
      -11   -1    0    0    0    0  0.00000000000E+00  0.00000000000E+00  0.34996269501E-01  0.35000000000E-01  0.51099999109E-03 0. -1.
       11   -1    0    0    0    0 -0.00000000000E+00 -0.00000000000E+00 -0.34996269501E-01  0.35000000000E-01  0.51099999109E-03 0.  1.
       22    1    1    2    0    0 -0.28371787608E-02 -0.98791567488E-02  0.33132255423E-01  0.34689964987E-01  0.00000000000E+00 0. -1.
       22    1    1    2    0    0 -0.99340179059E-03 -0.44451058147E-05 -0.76032675408E-02  0.76678904644E-02  0.00000000000E+00 0. -1.
       22    1    1    2    0    0  0.38305805514E-02  0.98836018546E-02 -0.25528987882E-01  0.27642144549E-01  0.00000000000E+00 0.  1.
</event>
<event>
 5   0  0.4146200E+04  0.9118800E+02  0.7546771E-02  0.1180000E+00
      -11   -1    0    0    0    0  0.00000000000E+00  0.00000000000E+00  0.34996269501E-01  0.35000000000E-01  0.51099999109E-03 0. -1.
       11   -1    0    0    0    0 -0.00000000000E+00 -0.00000000000E+00 -0.34996269501E-01  0.35000000000E-01  0.51099999109E-03 0.  1.
       22    1    1    2    0    0  0.16756194703E-02  0.18757618965E-01  0.27972186576E-01  0.33720901407E-01  0.00000000000E+00 0. -1.
       22    1    1    2    0    0 -0.16029031865E-02 -0.36710445138E-02  0.51980594500E-03  0.40393148760E-02  0.00000000000E+00 0. -1.
       22    1    1    2    0    0 -0.72716283814E-04 -0.15086574451E-01 -0.28491992521E-01  0.32239783717E-01  0.00000000000E+00 0.  1.
</event>
<event>
 5   0  0.4146200E+04  0.9118800E+02  0.7546771E-02  0.1180000E+00
      -11   -1    0    0    0    0  0.00000000000E+00  0.00000000000E+00  0.34996269501E-01  0.35000000000E-01  0.51099999109E-03 0.  1.
       11   -1    0    0    0    0 -0.00000000000E+00 -0.00000000000E+00 -0.34996269501E-01  0.35000000000E-01  0.51099999109E-03 0. -1.
       22    1    1    2    0    0 -0.58506336242E-02 -0.26175255898E-02  0.28848918016E-01  0.29552350579E-01  0.00000000000E+00 0.  1.
       22    1    1    2    0    0 -0.83227205889E-02  0.40287294065E-02 -0.23464166430E-01  0.25220337922E-01  0.00000000000E+00 0.  1.
       22    1    1    2    0    0  0.14173354213E-01 -0.14112038167E-02 -0.53847515860E-02  0.15227311500E-01  0.00000000000E+00 0. -1.
</event>
<event>
 5   0  0.4146200E+04  0.9118800E+02  0.7546771E-02  0.1180000E+00
      -11   -1    0    0    0    0  0.00000000000E+00  0.00000000000E+00  0.34996269501E-01  0.35000000000E-01  0.51099999109E-03 0. -1.
       11   -1    0    0    0    0 -0.00000000000E+00 -0.00000000000E+00 -0.34996269501E-01  0.35000000000E-01  0.51099999109E-03 0.  1.
       22    1    1    2    0    0 -0.10811306682E-01  0.50713622717E-02 -0.32845039106E-01  0.34948528744E-01  0.00000000000E+00 0.  1.
       22    1    1    2    0    0  0.10953088283E-01 -0.51022147074E-02  0.32258691858E-01  0.34447437325E-01  0.00000000000E+00 0. -1.
       22    1    1    2    0    0 -0.14178160120E-03  0.30852435642E-04  0.58634724757E-03  0.60403393113E-03  0.00000000000E+00 0.  1.
</event>
<event>
 5   0  0.4146200E+04  0.9118800E+02  0.7546771E-02  0.1180000E+00
      -11   -1    0    0    0    0  0.00000000000E+00  0.00000000000E+00  0.34996269501E-01  0.35000000000E-01  0.51099999109E-03 0.  1.
       11   -1    0    0    0    0 -0.00000000000E+00 -0.00000000000E+00 -0.34996269501E-01  0.35000000000E-01  0.51099999109E-03 0.  1.
       22    1    1    2    0    0 -0.51361841987E-03 -0.94415060732E-03 -0.22528130277E-02  0.24960750767E-02  0.00000000000E+00 0. -1.
       22    1    1    2    0    0  0.49333143151E-03 -0.47157237279E-03 -0.32607614850E-01  0.32614755903E-01  0.00000000000E+00 0.  1.
       22    1    1    2    0    0  0.20286988365E-04  0.14157229801E-02  0.34860427878E-01  0.34889169020E-01  0.00000000000E+00 0.  1.
</event>
<event>
 5   0  0.4146200E+04  0.9118800E+02  0.7546771E-02  0.1180000E+00
      -11   -1    0    0    0    0  0.00000000000E+00  0.00000000000E+00  0.34996269501E-01  0.35000000000E-01  0.51099999109E-03 0.  1.
       11   -1    0    0    0    0 -0.00000000000E+00 -0.00000000000E+00 -0.34996269501E-01  0.35000000000E-01  0.51099999109E-03 0. -1.
       22    1    1    2    0    0 -0.12361462372E-01 -0.79443925590E-02 -0.31737837775E-01  0.34974411671E-01  0.00000000000E+00 0. -1.
       22    1    1    2    0    0 -0.38359725776E-04 -0.23191929710E-04  0.31021397234E-03  0.31343586712E-03  0.00000000000E+00 0.  1.
       22    1    1    2    0    0  0.12399822098E-01  0.79675844888E-02  0.31427623803E-01  0.34712152462E-01  0.00000000000E+00 0.  1.
</event>
<event>
 5   0  0.4146200E+04  0.9118800E+02  0.7546771E-02  0.1180000E+00
      -11   -1    0    0    0    0  0.00000000000E+00  0.00000000000E+00  0.34996269501E-01  0.35000000000E-01  0.51099999109E-03 0. -1.
       11   -1    0    0    0    0 -0.00000000000E+00 -0.00000000000E+00 -0.34996269501E-01  0.35000000000E-01  0.51099999109E-03 0.  1.
       22    1    1    2    0    0  0.13746119052E-01  0.13781435387E-01  0.26958344411E-01  0.33251106503E-01  0.00000000000E+00 0. -1.
       22    1    1    2    0    0 -0.13409507719E-01 -0.14111614031E-01 -0.28847766643E-01  0.34801525658E-01  0.00000000000E+00 0.  1.
       22    1    1    2    0    0 -0.33661133254E-03  0.33017864365E-03  0.18894222325E-02  0.19473678386E-02  0.00000000000E+00 0. -1.
</event>
<event>
 5   0  0.4146200E+04  0.9118800E+02  0.7546771E-02  0.1180000E+00
      -11   -1    0    0    0    0  0.00000000000E+00  0.00000000000E+00  0.34996269501E-01  0.35000000000E-01  0.51099999109E-03 0. -1.
       11   -1    0    0    0    0 -0.00000000000E+00 -0.00000000000E+00 -0.34996269501E-01  0.35000000000E-01  0.51099999109E-03 0.  1.
       22    1    1    2    0    0 -0.00000000000E+00 -0.00000000000E+00  0.34957989588E-01  0.34954521684E-01  0.00000000000E+00 0. -1.
       22    1    1    2    0    0 -0.18433603285E-03  0.26909435648E-03 -0.34381984282E-01  0.34383531446E-01  0.00000000000E+00 0.  1.
       22    1    1    2    0    0  0.18433603285E-03 -0.26909435648E-03 -0.57600530609E-03  0.66194686973E-03  0.00000000000E+00 0. -1.
</event>
<event>
 5   0  0.4146200E+04  0.9118800E+02  0.7546771E-02  0.1180000E+00
      -11   -1    0    0    0    0  0.00000000000E+00  0.00000000000E+00  0.34996269501E-01  0.35000000000E-01  0.51099999109E-03 0. -1.
       11   -1    0    0    0    0 -0.00000000000E+00 -0.00000000000E+00 -0.34996269501E-01  0.35000000000E-01  0.51099999109E-03 0. -1.
       22    1    1    2    0    0  0.11599252785E-01 -0.16784397416E-01  0.61065356800E-02  0.21296676732E-01  0.00000000000E+00 0.  1.
       22    1    1    2    0    0 -0.00000000000E+00 -0.00000000000E+00  0.17501394441E-01  0.17500871018E-01  0.00000000000E+00 0. -1.
       22    1    1    2    0    0 -0.11599252785E-01  0.16784397416E-01 -0.23607930121E-01  0.31202452250E-01  0.00000000000E+00 0. -1.
</event>
<event>
 5   0  0.4146200E+04  0.9118800E+02  0.7546771E-02  0.1180000E+00
      -11   -1    0    0    0    0  0.00000000000E+00  0.00000000000E+00  0.34996269501E-01  0.35000000000E-01  0.51099999109E-03 0.  1.
       11   -1    0    0    0    0 -0.00000000000E+00 -0.00000000000E+00 -0.34996269501E-01  0.35000000000E-01  0.51099999109E-03 0. -1.
       22    1    1    2    0    0 -0.12659111721E-01  0.84569064588E-02  0.31340183866E-01  0.34842208615E-01  0.00000000000E+00 0.  1.
       22    1    1    2    0    0  0.23496304966E-04 -0.14456948882E-02 -0.22203611528E-02  0.26496394915E-02  0.00000000000E+00 0. -1.
       22    1    1    2    0    0  0.12635615416E-01 -0.70112115705E-02 -0.29119822714E-01  0.32508151893E-01  0.00000000000E+00 0. -1.
</event>
<event>
 5   0  0.4146200E+04  0.9118800E+02  0.7546771E-02  0.1180000E+00
      -11   -1    0    0    0    0  0.00000000000E+00  0.00000000000E+00  0.34996269501E-01  0.35000000000E-01  0.51099999109E-03 0.  1.
       11   -1    0    0    0    0 -0.00000000000E+00 -0.00000000000E+00 -0.34996269501E-01  0.35000000000E-01  0.51099999109E-03 0.  1.
       22    1    1    2    0    0  0.56557832355E-03 -0.11034713954E-03 -0.14085625234E-02  0.15218750651E-02  0.00000000000E+00 0. -1.
       22    1    1    2    0    0  0.18354445131E-02  0.27485984601E-02  0.34769889403E-01  0.34926621067E-01  0.00000000000E+00 0.  1.
       22    1    1    2    0    0 -0.24010228366E-02 -0.26382513206E-02 -0.33361326879E-01  0.33551503868E-01  0.00000000000E+00 0.  1.
</event>
<event>
 5   0  0.4146200E+04  0.9118800E+02  0.7546771E-02  0.1180000E+00
      -11   -1    0    0    0    0  0.00000000000E+00  0.00000000000E+00  0.34996269501E-01  0.35000000000E-01  0.51099999109E-03 0.  1.
       11   -1    0    0    0    0 -0.00000000000E+00 -0.00000000000E+00 -0.34996269501E-01  0.35000000000E-01  0.51099999109E-03 0.  1.
       22    1    1    2    0    0 -0.30287680344E-02  0.19820708758E-01 -0.22033663105E-01  0.29791210806E-01  0.00000000000E+00 0.  1.
       22    1    1    2    0    0  0.30287680344E-02 -0.19820708758E-01  0.19714734511E-02  0.20147472274E-01  0.00000000000E+00 0. -1.
       22    1    1    2    0    0  0.00000000000E+00 -0.00000000000E+00  0.20062189654E-01  0.20061316920E-01  0.00000000000E+00 0.  1.
</event>
<event>
 5   0  0.4146200E+04  0.9118800E+02  0.7546771E-02  0.1180000E+00
      -11   -1    0    0    0    0  0.00000000000E+00  0.00000000000E+00  0.34996269501E-01  0.35000000000E-01  0.51099999109E-03 0.  1.
       11   -1    0    0    0    0 -0.00000000000E+00 -0.00000000000E+00 -0.34996269501E-01  0.35000000000E-01  0.51099999109E-03 0. -1.
       22    1    1    2    0    0  0.21129274191E-03  0.38157911186E-03  0.10525454357E-03  0.44869339234E-03  0.00000000000E+00 0.  1.
       22    1    1    2    0    0 -0.18318244387E-02  0.19089150840E-01 -0.28942126514E-01  0.34718841394E-01  0.00000000000E+00 0. -1.
       22    1    1    2    0    0  0.16205316968E-02 -0.19470729952E-01  0.28836871971E-01  0.34832465214E-01  0.00000000000E+00 0.  1.
</event>
<event>
 5   0  0.4146200E+04  0.9118800E+02  0.7546771E-02  0.1180000E+00
      -11   -1    0    0    0    0  0.00000000000E+00  0.00000000000E+00  0.34996269501E-01  0.35000000000E-01  0.51099999109E-03 0.  1.
       11   -1    0    0    0    0 -0.00000000000E+00 -0.00000000000E+00 -0.34996269501E-01  0.35000000000E-01  0.51099999109E-03 0. -1.
       22    1    1    2    0    0  0.54042165959E-02  0.32218350595E-02  0.34132497413E-01  0.34707537479E-01  0.00000000000E+00 0.  1.
       22    1    1    2    0    0 -0.38580888520E-02 -0.50073618528E-02 -0.28350088132E-01  0.29046273761E-01  0.00000000000E+00 0. -1.
       22    1    1    2    0    0 -0.15461277439E-02  0.17855267933E-02 -0.57824092811E-02  0.62461887599E-02  0.00000000000E+00 0. -1.
</event>
<event>
 5   0  0.4146200E+04  0.9118800E+02  0.7546771E-02  0.1180000E+00
      -11   -1    0    0    0    0  0.00000000000E+00  0.00000000000E+00  0.34996269501E-01  0.35000000000E-01  0.51099999109E-03 0. -1.
       11   -1    0    0    0    0 -0.00000000000E+00 -0.00000000000E+00 -0.34996269501E-01  0.35000000000E-01  0.51099999109E-03 0.  1.
       22    1    1    2    0    0  0.39162477677E-03 -0.10071546914E-03 -0.32039689942E-01  0.32042241575E-01  0.00000000000E+00 0.  1.
       22    1    1    2    0    0  0.95627768449E-03  0.59660406375E-03 -0.28363828370E-02  0.30521256555E-02  0.00000000000E+00 0.  1.
       22    1    1    2    0    0 -0.13479024613E-02 -0.49588859461E-03  0.34876072779E-01  0.34905632769E-01  0.00000000000E+00 0. -1.
</event>
<event>
 5   0  0.4146200E+04  0.9118800E+02  0.7546771E-02  0.1180000E+00
      -11   -1    0    0    0    0  0.00000000000E+00  0.00000000000E+00  0.34996269501E-01  0.35000000000E-01  0.51099999109E-03 0. -1.
       11   -1    0    0    0    0 -0.00000000000E+00 -0.00000000000E+00 -0.34996269501E-01  0.35000000000E-01  0.51099999109E-03 0.  1.
       22    1    1    2    0    0 -0.55078756430E-02 -0.20976479981E-01 -0.24575264825E-01  0.32776409928E-01  0.00000000000E+00 0.  1.
       22    1    1    2    0    0 -0.11530403307E-03 -0.36391039919E-03  0.11633919524E-01  0.11640180810E-01  0.00000000000E+00 0.  1.
       22    1    1    2    0    0  0.56231796761E-02  0.21340390381E-01  0.12941345301E-01  0.25583409262E-01  0.00000000000E+00 0. -1.
</event>
<event>
 5   0  0.4146200E+04  0.9118800E+02  0.7546771E-02  0.1180000E+00
      -11   -1    0    0    0    0  0.00000000000E+00  0.00000000000E+00  0.34996269501E-01  0.35000000000E-01  0.51099999109E-03 0. -1.
       11   -1    0    0    0    0 -0.00000000000E+00 -0.00000000000E+00 -0.34996269501E-01  0.35000000000E-01  0.51099999109E-03 0.  1.
       22    1    1    2    0    0  0.20776011946E-02 -0.12639890255E-01  0.12141672707E-02  0.12866913171E-01  0.00000000000E+00 0.  1.
       22    1    1    2    0    0 -0.78438843028E-02  0.21540071056E-01  0.21899219569E-01  0.31702949386E-01  0.00000000000E+00 0. -1.
       22    1    1    2    0    0  0.57662831082E-02 -0.89001808009E-02 -0.23113386840E-01  0.25430137443E-01  0.00000000000E+00 0.  1.
</event>
<event>
 5   0  0.4146200E+04  0.9118800E+02  0.7546771E-02  0.1180000E+00
      -11   -1    0    0    0    0  0.00000000000E+00  0.00000000000E+00  0.34996269501E-01  0.35000000000E-01  0.51099999109E-03 0. -1.
       11   -1    0    0    0    0 -0.00000000000E+00 -0.00000000000E+00 -0.34996269501E-01  0.35000000000E-01  0.51099999109E-03 0.  1.
       22    1    1    2    0    0  0.10734448324E-02  0.43617025427E-03 -0.34182658121E-01  0.34202290048E-01  0.00000000000E+00 0.  1.
       22    1    1    2    0    0 -0.82635312906E-03 -0.67913570956E-03  0.34944443034E-01  0.34960809255E-01  0.00000000000E+00 0. -1.
       22    1    1    2    0    0 -0.24709170336E-03  0.24296545529E-03 -0.76178491293E-03  0.83690069656E-03  0.00000000000E+00 0.  1.
</event>
<event>
 5   0  0.4146200E+04  0.9118800E+02  0.7546771E-02  0.1180000E+00
      -11   -1    0    0    0    0  0.00000000000E+00  0.00000000000E+00  0.34996269501E-01  0.35000000000E-01  0.51099999109E-03 0. -1.
       11   -1    0    0    0    0 -0.00000000000E+00 -0.00000000000E+00 -0.34996269501E-01  0.35000000000E-01  0.51099999109E-03 0.  1.
       22    1    1    2    0    0  0.19683808089E-02  0.32550572026E-03 -0.22500250895E-01  0.22588531766E-01  0.00000000000E+00 0.  1.
       22    1    1    2    0    0 -0.13006085939E-02  0.39862799432E-02 -0.11961216961E-01  0.12674885470E-01  0.00000000000E+00 0. -1.
       22    1    1    2    0    0 -0.66777221496E-03 -0.43117856635E-02  0.34461467856E-01  0.34736582764E-01  0.00000000000E+00 0. -1.
</event>
<event>
 5   0  0.4146200E+04  0.9118800E+02  0.7546771E-02  0.1180000E+00
      -11   -1    0    0    0    0  0.00000000000E+00  0.00000000000E+00  0.34996269501E-01  0.35000000000E-01  0.51099999109E-03 0. -1.
       11   -1    0    0    0    0 -0.00000000000E+00 -0.00000000000E+00 -0.34996269501E-01  0.35000000000E-01  0.51099999109E-03 0.  1.
       22    1    1    2    0    0 -0.13584474519E-01  0.10449940351E-01 -0.29665696357E-01  0.34260658804E-01  0.00000000000E+00 0.  1.
       22    1    1    2    0    0  0.70592759221E-02 -0.77171517438E-02  0.86742380181E-02  0.13587870060E-01  0.00000000000E+00 0. -1.
       22    1    1    2    0    0  0.65251985971E-02 -0.27327886074E-02  0.20991458339E-01  0.22151471136E-01  0.00000000000E+00 0. -1.
</event>
<event>
 5   0  0.4146200E+04  0.9118800E+02  0.7546771E-02  0.1180000E+00
      -11   -1    0    0    0    0  0.00000000000E+00  0.00000000000E+00  0.34996269501E-01  0.35000000000E-01  0.51099999109E-03 0.  1.
       11   -1    0    0    0    0 -0.00000000000E+00 -0.00000000000E+00 -0.34996269501E-01  0.35000000000E-01  0.51099999109E-03 0. -1.
       22    1    1    2    0    0 -0.29413850515E-02 -0.76673095557E-02 -0.10642883116E-01  0.13442854714E-01  0.00000000000E+00 0. -1.
       22    1    1    2    0    0  0.15383549721E-01  0.20523281342E-01  0.23291913957E-01  0.34646384152E-01  0.00000000000E+00 0.  1.
       22    1    1    2    0    0 -0.12442164670E-01 -0.12855971786E-01 -0.12649030841E-01  0.21910761134E-01  0.00000000000E+00 0. -1.
</event>
<event>
 5   0  0.4146200E+04  0.9118800E+02  0.7546771E-02  0.1180000E+00
      -11   -1    0    0    0    0  0.00000000000E+00  0.00000000000E+00  0.34996269501E-01  0.35000000000E-01  0.51099999109E-03 0. -1.
       11   -1    0    0    0    0 -0.00000000000E+00 -0.00000000000E+00 -0.34996269501E-01  0.35000000000E-01  0.51099999109E-03 0.  1.
       22    1    1    2    0    0  0.10553614547E-02  0.20961685539E-02 -0.34410179701E-01  0.34490117099E-01  0.00000000000E+00 0.  1.
       22    1    1    2    0    0 -0.10897800408E-02 -0.18054983889E-02  0.34886842319E-01  0.34950525203E-01  0.00000000000E+00 0. -1.
       22    1    1    2    0    0  0.34418586078E-04 -0.29067016502E-03 -0.47666261754E-03  0.55935769849E-03  0.00000000000E+00 0. -1.
</event>
<event>
 5   0  0.4146200E+04  0.9118800E+02  0.7546771E-02  0.1180000E+00
      -11   -1    0    0    0    0  0.00000000000E+00  0.00000000000E+00  0.34996269501E-01  0.35000000000E-01  0.51099999109E-03 0.  1.
       11   -1    0    0    0    0 -0.00000000000E+00 -0.00000000000E+00 -0.34996269501E-01  0.35000000000E-01  0.51099999109E-03 0. -1.
       22    1    1    2    0    0  0.19526464691E-02 -0.20344302036E-03 -0.32761454362E-01  0.32820224088E-01  0.00000000000E+00 0. -1.
       22    1    1    2    0    0 -0.11658669597E-02 -0.54228892827E-03 -0.20128978957E-02  0.23885311361E-02  0.00000000000E+00 0.  1.
       22    1    1    2    0    0 -0.78677950936E-03  0.74573194863E-03  0.34774352257E-01  0.34791244776E-01  0.00000000000E+00 0.  1.
</event>
<event>
 5   0  0.4146200E+04  0.9118800E+02  0.7546771E-02  0.1180000E+00
      -11   -1    0    0    0    0  0.00000000000E+00  0.00000000000E+00  0.34996269501E-01  0.35000000000E-01  0.51099999109E-03 0. -1.
       11   -1    0    0    0    0 -0.00000000000E+00 -0.00000000000E+00 -0.34996269501E-01  0.35000000000E-01  0.51099999109E-03 0.  1.
       22    1    1    2    0    0 -0.14055142905E-01  0.57275911986E-02 -0.31281583237E-01  0.34769092493E-01  0.00000000000E+00 0.  1.
       22    1    1    2    0    0  0.38747117203E-06 -0.89069319969E-04  0.42148909251E-02  0.42158319468E-02  0.00000000000E+00 0.  1.
       22    1    1    2    0    0  0.14054755434E-01 -0.56385218787E-02  0.27066692312E-01  0.31015075560E-01  0.00000000000E+00 0. -1.
</event>
<event>
 5   0  0.4146200E+04  0.9118800E+02  0.7546771E-02  0.1180000E+00
      -11   -1    0    0    0    0  0.00000000000E+00  0.00000000000E+00  0.34996269501E-01  0.35000000000E-01  0.51099999109E-03 0. -1.
       11   -1    0    0    0    0 -0.00000000000E+00 -0.00000000000E+00 -0.34996269501E-01  0.35000000000E-01  0.51099999109E-03 0.  1.
       22    1    1    2    0    0  0.11166398550E-02  0.21411040706E-02 -0.34312808457E-01  0.34397674855E-01  0.00000000000E+00 0.  1.
       22    1    1    2    0    0 -0.14205388015E-02 -0.19583571574E-02  0.34863496057E-01  0.34947338247E-01  0.00000000000E+00 0. -1.
       22    1    1    2    0    0  0.30389894651E-03 -0.18274691325E-03 -0.55068760005E-03  0.65498689822E-03  0.00000000000E+00 0. -1.
</event>
<event>
 5   0  0.4146200E+04  0.9118800E+02  0.7546771E-02  0.1180000E+00
      -11   -1    0    0    0    0  0.00000000000E+00  0.00000000000E+00  0.34996269501E-01  0.35000000000E-01  0.51099999109E-03 0.  1.
       11   -1    0    0    0    0 -0.00000000000E+00 -0.00000000000E+00 -0.34996269501E-01  0.35000000000E-01  0.51099999109E-03 0. -1.
       22    1    1    2    0    0 -0.45731331980E-02  0.72267606631E-02  0.33861611935E-01  0.34924896274E-01  0.00000000000E+00 0.  1.
       22    1    1    2    0    0  0.23439815029E-02 -0.48288314200E-02 -0.15000612573E-01  0.15932050707E-01  0.00000000000E+00 0. -1.
       22    1    1    2    0    0  0.22291516951E-02 -0.23979292431E-02 -0.18860999362E-01  0.19143053019E-01  0.00000000000E+00 0. -1.
</event>
<event>
 5   0  0.4146200E+04  0.9118800E+02  0.7546771E-02  0.1180000E+00
      -11   -1    0    0    0    0  0.00000000000E+00  0.00000000000E+00  0.34996269501E-01  0.35000000000E-01  0.51099999109E-03 0.  1.
       11   -1    0    0    0    0 -0.00000000000E+00 -0.00000000000E+00 -0.34996269501E-01  0.35000000000E-01  0.51099999109E-03 0. -1.
       22    1    1    2    0    0  0.71202598940E-02 -0.12260648896E-01 -0.31899260354E-01  0.34908228592E-01  0.00000000000E+00 0. -1.
       22    1    1    2    0    0 -0.70166949451E-02  0.12305884773E-01  0.29864263316E-01  0.33053638702E-01  0.00000000000E+00 0.  1.
       22    1    1    2    0    0 -0.10356494883E-03 -0.45235876540E-04  0.20349970380E-02  0.20381327061E-02  0.00000000000E+00 0.  1.
</event>
<event>
 5   0  0.4146200E+04  0.9118800E+02  0.7546771E-02  0.1180000E+00
      -11   -1    0    0    0    0  0.00000000000E+00  0.00000000000E+00  0.34996269501E-01  0.35000000000E-01  0.51099999109E-03 0. -1.
       11   -1    0    0    0    0 -0.00000000000E+00 -0.00000000000E+00 -0.34996269501E-01  0.35000000000E-01  0.51099999109E-03 0.  1.
       22    1    1    2    0    0 -0.13666979719E-02 -0.67298495196E-02 -0.17275639008E-01  0.18590493297E-01  0.00000000000E+00 0.  1.
       22    1    1    2    0    0  0.15140312325E-02  0.52409659211E-05 -0.16703021521E-01  0.16771501006E-01  0.00000000000E+00 0.  1.
       22    1    1    2    0    0 -0.14733326063E-03  0.67246085537E-02  0.33978660529E-01  0.34638005697E-01  0.00000000000E+00 0. -1.
</event>
<event>
 5   0  0.4146200E+04  0.9118800E+02  0.7546771E-02  0.1180000E+00
      -11   -1    0    0    0    0  0.00000000000E+00  0.00000000000E+00  0.34996269501E-01  0.35000000000E-01  0.51099999109E-03 0. -1.
       11   -1    0    0    0    0 -0.00000000000E+00 -0.00000000000E+00 -0.34996269501E-01  0.35000000000E-01  0.51099999109E-03 0.  1.
       22    1    1    2    0    0  0.12166590284E-01  0.22140799263E-01  0.23645685172E-01  0.34602880493E-01  0.00000000000E+00 0. -1.
       22    1    1    2    0    0  0.37373237868E-03 -0.23970816694E-02 -0.47302400603E-02  0.53160932506E-02  0.00000000000E+00 0.  1.
       22    1    1    2    0    0 -0.12540322662E-01 -0.19743717594E-01 -0.18915445112E-01  0.30081026257E-01  0.00000000000E+00 0.  1.
</event>
<event>
 5   0  0.4146200E+04  0.9118800E+02  0.7546771E-02  0.1180000E+00
      -11   -1    0    0    0    0  0.00000000000E+00  0.00000000000E+00  0.34996269501E-01  0.35000000000E-01  0.51099999109E-03 0. -1.
       11   -1    0    0    0    0 -0.00000000000E+00 -0.00000000000E+00 -0.34996269501E-01  0.35000000000E-01  0.51099999109E-03 0.  1.
       22    1    1    2    0    0 -0.23477682692E-02  0.12197213236E-01 -0.22309645473E-01  0.25534375021E-01  0.00000000000E+00 0.  1.
       22    1    1    2    0    0  0.22146314440E-02 -0.12601391986E-01 -0.73817016714E-02  0.14771228519E-01  0.00000000000E+00 0. -1.
       22    1    1    2    0    0  0.13313682521E-03  0.40417875006E-03  0.29691347144E-01  0.29694396460E-01  0.00000000000E+00 0. -1.
</event>
<event>
 5   0  0.4146200E+04  0.9118800E+02  0.7546771E-02  0.1180000E+00
      -11   -1    0    0    0    0  0.00000000000E+00  0.00000000000E+00  0.34996269501E-01  0.35000000000E-01  0.51099999109E-03 0.  1.
       11   -1    0    0    0    0 -0.00000000000E+00 -0.00000000000E+00 -0.34996269501E-01  0.35000000000E-01  0.51099999109E-03 0.  1.
       22    1    1    2    0    0  0.13284383807E-03  0.68606394688E-03  0.34974298934E-01  0.34981279524E-01  0.00000000000E+00 0.  1.
       22    1    1    2    0    0 -0.26133400503E-03 -0.76924607625E-03 -0.34656092175E-01  0.34665613507E-01  0.00000000000E+00 0.  1.
       22    1    1    2    0    0  0.12849016696E-03  0.83182129371E-04 -0.31820675885E-03  0.35310696826E-03  0.00000000000E+00 0. -1.
</event>
<event>
 5   0  0.4146200E+04  0.9118800E+02  0.7546771E-02  0.1180000E+00
      -11   -1    0    0    0    0  0.00000000000E+00  0.00000000000E+00  0.34996269501E-01  0.35000000000E-01  0.51099999109E-03 0.  1.
       11   -1    0    0    0    0 -0.00000000000E+00 -0.00000000000E+00 -0.34996269501E-01  0.35000000000E-01  0.51099999109E-03 0. -1.
       22    1    1    2    0    0 -0.32971849243E-02  0.68913404393E-02  0.34068425464E-01  0.34914461403E-01  0.00000000000E+00 0.  1.
       22    1    1    2    0    0  0.32690243784E-02 -0.60253111289E-02 -0.33026435996E-01  0.33730347896E-01  0.00000000000E+00 0. -1.
       22    1    1    2    0    0  0.28160545873E-04 -0.86602931034E-03 -0.10419894687E-02  0.13551907008E-02  0.00000000000E+00 0. -1.
</event>
<event>
 5   0  0.4146200E+04  0.9118800E+02  0.7546771E-02  0.1180000E+00
      -11   -1    0    0    0    0  0.00000000000E+00  0.00000000000E+00  0.34996269501E-01  0.35000000000E-01  0.51099999109E-03 0.  1.
       11   -1    0    0    0    0 -0.00000000000E+00 -0.00000000000E+00 -0.34996269501E-01  0.35000000000E-01  0.51099999109E-03 0.  1.
       22    1    1    2    0    0 -0.57388247789E-03 -0.32075419946E-03  0.34931142191E-01  0.34937328449E-01  0.00000000000E+00 0.  1.
       22    1    1    2    0    0  0.12130414772E-03 -0.13540481801E-03 -0.33421094275E-01  0.33421588707E-01  0.00000000000E+00 0.  1.
       22    1    1    2    0    0  0.45257833017E-03  0.45615901747E-03 -0.15100479162E-02  0.16410828448E-02  0.00000000000E+00 0.  1.
</event>
<event>
 5   0  0.4146200E+04  0.9118800E+02  0.7546771E-02  0.1180000E+00
      -11   -1    0    0    0    0  0.00000000000E+00  0.00000000000E+00  0.34996269501E-01  0.35000000000E-01  0.51099999109E-03 0.  1.
       11   -1    0    0    0    0 -0.00000000000E+00 -0.00000000000E+00 -0.34996269501E-01  0.35000000000E-01  0.51099999109E-03 0. -1.
       22    1    1    2    0    0  0.10611362319E-02 -0.24575581399E-02  0.34835587871E-01  0.34938285368E-01  0.00000000000E+00 0.  1.
       22    1    1    2    0    0 -0.38521392388E-03  0.22646501078E-02 -0.33226269498E-01  0.33305585337E-01  0.00000000000E+00 0. -1.
       22    1    1    2    0    0 -0.67592230802E-03  0.19290803210E-03 -0.16093183730E-02  0.17561292951E-02  0.00000000000E+00 0.  1.
</event>
<event>
 5   0  0.4146200E+04  0.9118800E+02  0.7546771E-02  0.1180000E+00
      -11   -1    0    0    0    0  0.00000000000E+00  0.00000000000E+00  0.34996269501E-01  0.35000000000E-01  0.51099999109E-03 0. -1.
       11   -1    0    0    0    0 -0.00000000000E+00 -0.00000000000E+00 -0.34996269501E-01  0.35000000000E-01  0.51099999109E-03 0.  1.
       22    1    1    2    0    0 -0.18016768816E-01  0.24532853748E-01 -0.16108423074E-01  0.34437569100E-01  0.00000000000E+00 0. -1.
       22    1    1    2    0    0  0.18295246107E-01 -0.24575125763E-01  0.16710061289E-01  0.34898122939E-01  0.00000000000E+00 0.  1.
       22    1    1    2    0    0 -0.27847729158E-03  0.42272015086E-04 -0.60163821499E-03  0.66430796090E-03  0.00000000000E+00 0. -1.
</event>
<event>
 5   0  0.4146200E+04  0.9118800E+02  0.7546771E-02  0.1180000E+00
      -11   -1    0    0    0    0  0.00000000000E+00  0.00000000000E+00  0.34996269501E-01  0.35000000000E-01  0.51099999109E-03 0.  1.
       11   -1    0    0    0    0 -0.00000000000E+00 -0.00000000000E+00 -0.34996269501E-01  0.35000000000E-01  0.51099999109E-03 0. -1.
       22    1    1    2    0    0 -0.13473009741E-01  0.19282969988E-02 -0.30095032216E-01  0.33029551691E-01  0.00000000000E+00 0. -1.
       22    1    1    2    0    0  0.13213659474E-01 -0.18974026194E-02  0.32195773418E-01  0.34853532954E-01  0.00000000000E+00 0.  1.
       22    1    1    2    0    0  0.25935026652E-03 -0.30894379426E-04 -0.21007412016E-02  0.21169153548E-02  0.00000000000E+00 0.  1.
</event>
<event>
 5   0  0.4146200E+04  0.9118800E+02  0.7546771E-02  0.1180000E+00
      -11   -1    0    0    0    0  0.00000000000E+00  0.00000000000E+00  0.34996269501E-01  0.35000000000E-01  0.51099999109E-03 0.  1.
       11   -1    0    0    0    0 -0.00000000000E+00 -0.00000000000E+00 -0.34996269501E-01  0.35000000000E-01  0.51099999109E-03 0. -1.
       22    1    1    2    0    0 -0.29725686659E-02 -0.20417569844E-02  0.16887062307E-01  0.17267825845E-01  0.00000000000E+00 0.  1.
       22    1    1    2    0    0 -0.17398520786E-01  0.31477152749E-02  0.89455905558E-02  0.19815151460E-01  0.00000000000E+00 0.  1.
       22    1    1    2    0    0  0.20371089452E-01 -0.11059582905E-02 -0.25832652862E-01  0.32917022695E-01  0.00000000000E+00 0. -1.
</event>
<event>
 5   0  0.4146200E+04  0.9118800E+02  0.7546771E-02  0.1180000E+00
      -11   -1    0    0    0    0  0.00000000000E+00  0.00000000000E+00  0.34996269501E-01  0.35000000000E-01  0.51099999109E-03 0. -1.
       11   -1    0    0    0    0 -0.00000000000E+00 -0.00000000000E+00 -0.34996269501E-01  0.35000000000E-01  0.51099999109E-03 0.  1.
       22    1    1    2    0    0 -0.42387186108E-02 -0.14776778910E-01 -0.16850480343E-01  0.22809178377E-01  0.00000000000E+00 0.  1.
       22    1    1    2    0    0  0.31016536247E-02  0.14660606464E-01 -0.11455242643E-01  0.18862031204E-01  0.00000000000E+00 0. -1.
       22    1    1    2    0    0  0.11370649862E-02  0.11617244584E-03  0.28305722987E-01  0.28328790419E-01  0.00000000000E+00 0. -1.
</event>
<event>
 5   0  0.4146200E+04  0.9118800E+02  0.7546771E-02  0.1180000E+00
      -11   -1    0    0    0    0  0.00000000000E+00  0.00000000000E+00  0.34996269501E-01  0.35000000000E-01  0.51099999109E-03 0. -1.
       11   -1    0    0    0    0 -0.00000000000E+00 -0.00000000000E+00 -0.34996269501E-01  0.35000000000E-01  0.51099999109E-03 0.  1.
       22    1    1    2    0    0  0.11871605847E-03  0.13802175588E-01 -0.30508429888E-01  0.33485495945E-01  0.00000000000E+00 0.  1.
       22    1    1    2    0    0 -0.12469284286E-03 -0.12949711541E-01  0.32152493836E-01  0.34662565357E-01  0.00000000000E+00 0. -1.
       22    1    1    2    0    0  0.59767843922E-05 -0.85246404738E-03 -0.16440639481E-02  0.18519386976E-02  0.00000000000E+00 0. -1.
</event>
<event>
 5   0  0.4146200E+04  0.9118800E+02  0.7546771E-02  0.1180000E+00
      -11   -1    0    0    0    0  0.00000000000E+00  0.00000000000E+00  0.34996269501E-01  0.35000000000E-01  0.51099999109E-03 0.  1.
       11   -1    0    0    0    0 -0.00000000000E+00 -0.00000000000E+00 -0.34996269501E-01  0.35000000000E-01  0.51099999109E-03 0. -1.
       22    1    1    2    0    0 -0.36354619827E-03  0.14255398658E-02 -0.18258482042E-02  0.23447924028E-02  0.00000000000E+00 0. -1.
       22    1    1    2    0    0 -0.38855895764E-02  0.16103973999E-01  0.29960336861E-01  0.34235326342E-01  0.00000000000E+00 0.  1.
       22    1    1    2    0    0  0.42491357747E-02 -0.17529513865E-01 -0.28134488656E-01  0.33419881255E-01  0.00000000000E+00 0. -1.
</event>
<event>
 5   0  0.4146200E+04  0.9118800E+02  0.7546771E-02  0.1180000E+00
      -11   -1    0    0    0    0  0.00000000000E+00  0.00000000000E+00  0.34996269501E-01  0.35000000000E-01  0.51099999109E-03 0.  1.
       11   -1    0    0    0    0 -0.00000000000E+00 -0.00000000000E+00 -0.34996269501E-01  0.35000000000E-01  0.51099999109E-03 0. -1.
       22    1    1    2    0    0  0.88320600087E-03  0.34204484487E-03  0.15101862893E-02  0.17826132907E-02  0.00000000000E+00 0. -1.
       22    1    1    2    0    0 -0.10467478422E-01  0.21045068264E-01 -0.25499671188E-01  0.34679911093E-01  0.00000000000E+00 0. -1.
       22    1    1    2    0    0  0.95842724214E-02 -0.21387113109E-01  0.23989484899E-01  0.33537475616E-01  0.00000000000E+00 0.  1.
</event>
<event>
 5   0  0.4146200E+04  0.9118800E+02  0.7546771E-02  0.1180000E+00
      -11   -1    0    0    0    0  0.00000000000E+00  0.00000000000E+00  0.34996269501E-01  0.35000000000E-01  0.51099999109E-03 0.  1.
       11   -1    0    0    0    0 -0.00000000000E+00 -0.00000000000E+00 -0.34996269501E-01  0.35000000000E-01  0.51099999109E-03 0. -1.
       22    1    1    2    0    0  0.96060464032E-02 -0.10401068477E-01  0.30492656834E-01  0.33619346718E-01  0.00000000000E+00 0.  1.
       22    1    1    2    0    0 -0.75805505298E-04  0.81235042361E-04  0.14664435111E-02  0.14706468569E-02  0.00000000000E+00 0.  1.
       22    1    1    2    0    0 -0.95302408979E-02  0.10319833435E-01 -0.31959100345E-01  0.34910006425E-01  0.00000000000E+00 0. -1.
</event>
<event>
 5   0  0.4146200E+04  0.9118800E+02  0.7546771E-02  0.1180000E+00
      -11   -1    0    0    0    0  0.00000000000E+00  0.00000000000E+00  0.34996269501E-01  0.35000000000E-01  0.51099999109E-03 0. -1.
       11   -1    0    0    0    0 -0.00000000000E+00 -0.00000000000E+00 -0.34996269501E-01  0.35000000000E-01  0.51099999109E-03 0.  1.
       22    1    1    2    0    0  0.54030956527E-02 -0.13692997110E-01  0.17387387417E-01  0.22781853604E-01  0.00000000000E+00 0. -1.
       22    1    1    2    0    0  0.14826891921E-03  0.22322421183E-03  0.13271278101E-01  0.13273983394E-01  0.00000000000E+00 0.  1.
       22    1    1    2    0    0 -0.55513645719E-02  0.13469772898E-01 -0.30658665518E-01  0.33944163001E-01  0.00000000000E+00 0.  1.
</event>
<event>
 5   0  0.4146200E+04  0.9118800E+02  0.7546771E-02  0.1180000E+00
      -11   -1    0    0    0    0  0.00000000000E+00  0.00000000000E+00  0.34996269501E-01  0.35000000000E-01  0.51099999109E-03 0. -1.
       11   -1    0    0    0    0 -0.00000000000E+00 -0.00000000000E+00 -0.34996269501E-01  0.35000000000E-01  0.51099999109E-03 0.  1.
       22    1    1    2    0    0 -0.18699256773E-02 -0.15780758176E-01 -0.29285767608E-01  0.33319440797E-01  0.00000000000E+00 0.  1.
       22    1    1    2    0    0 -0.43309876240E-04 -0.91986438716E-04 -0.17584549971E-02  0.17613918437E-02  0.00000000000E+00 0.  1.
       22    1    1    2    0    0  0.19132355535E-02  0.15872744615E-01  0.31044222605E-01  0.34919167359E-01  0.00000000000E+00 0. -1.
</event>
<event>
 5   0  0.4146200E+04  0.9118800E+02  0.7546771E-02  0.1180000E+00
      -11   -1    0    0    0    0  0.00000000000E+00  0.00000000000E+00  0.34996269501E-01  0.35000000000E-01  0.51099999109E-03 0.  1.
       11   -1    0    0    0    0 -0.00000000000E+00 -0.00000000000E+00 -0.34996269501E-01  0.35000000000E-01  0.51099999109E-03 0. -1.
       22    1    1    2    0    0 -0.86063968922E-02 -0.14431580997E-01 -0.30535421754E-01  0.34853300837E-01  0.00000000000E+00 0. -1.
       22    1    1    2    0    0  0.81895273450E-02  0.14504024490E-01  0.28027302132E-01  0.32603140176E-01  0.00000000000E+00 0.  1.
       22    1    1    2    0    0  0.41686954723E-03 -0.72443492691E-04  0.25081196227E-02  0.25435589871E-02  0.00000000000E+00 0. -1.
</event>
<event>
 5   0  0.4146200E+04  0.9118800E+02  0.7546771E-02  0.1180000E+00
      -11   -1    0    0    0    0  0.00000000000E+00  0.00000000000E+00  0.34996269501E-01  0.35000000000E-01  0.51099999109E-03 0.  1.
       11   -1    0    0    0    0 -0.00000000000E+00 -0.00000000000E+00 -0.34996269501E-01  0.35000000000E-01  0.51099999109E-03 0. -1.
       22    1    1    2    0    0  0.57709566455E-02  0.14337419150E-01 -0.29400256285E-01  0.33215065830E-01  0.00000000000E+00 0. -1.
       22    1    1    2    0    0 -0.76991635517E-02 -0.14500019991E-01  0.14945571860E-01  0.22201302155E-01  0.00000000000E+00 0.  1.
       22    1    1    2    0    0  0.19282069062E-02  0.16260084149E-03  0.14454684426E-01  0.14583632015E-01  0.00000000000E+00 0.  1.
</event>
<event>
 5   0  0.4146200E+04  0.9118800E+02  0.7546771E-02  0.1180000E+00
      -11   -1    0    0    0    0  0.00000000000E+00  0.00000000000E+00  0.34996269501E-01  0.35000000000E-01  0.51099999109E-03 0. -1.
       11   -1    0    0    0    0 -0.00000000000E+00 -0.00000000000E+00 -0.34996269501E-01  0.35000000000E-01  0.51099999109E-03 0.  1.
       22    1    1    2    0    0  0.39616432367E-04  0.23841484486E-02  0.18076022740E-04  0.23845460845E-02  0.00000000000E+00 0.  1.
       22    1    1    2    0    0 -0.76124883207E-02 -0.14339118354E-01  0.30178026757E-01  0.34267675622E-01  0.00000000000E+00 0. -1.
       22    1    1    2    0    0  0.75728718883E-02  0.11954969905E-01 -0.30196102779E-01  0.33347778294E-01  0.00000000000E+00 0.  1.
</event>
<event>
 5   0  0.4146200E+04  0.9118800E+02  0.7546771E-02  0.1180000E+00
      -11   -1    0    0    0    0  0.00000000000E+00  0.00000000000E+00  0.34996269501E-01  0.35000000000E-01  0.51099999109E-03 0. -1.
       11   -1    0    0    0    0 -0.00000000000E+00 -0.00000000000E+00 -0.34996269501E-01  0.35000000000E-01  0.51099999109E-03 0.  1.
       22    1    1    2    0    0  0.47539607645E-02  0.17478922864E-01  0.29684232163E-01  0.34774509724E-01  0.00000000000E+00 0. -1.
       22    1    1    2    0    0  0.71661255620E-04  0.10849133040E-03 -0.24226476888E-02  0.24261342766E-02  0.00000000000E+00 0. -1.
       22    1    1    2    0    0 -0.48256220201E-02 -0.17587414195E-01 -0.27261584474E-01  0.32799355999E-01  0.00000000000E+00 0.  1.
</event>
<event>
 5   0  0.4146200E+04  0.9118800E+02  0.7546771E-02  0.1180000E+00
      -11   -1    0    0    0    0  0.00000000000E+00  0.00000000000E+00  0.34996269501E-01  0.35000000000E-01  0.51099999109E-03 0. -1.
       11   -1    0    0    0    0 -0.00000000000E+00 -0.00000000000E+00 -0.34996269501E-01  0.35000000000E-01  0.51099999109E-03 0.  1.
       22    1    1    2    0    0 -0.85364966549E-03 -0.19773576706E-02 -0.31063496492E-01  0.31138071158E-01  0.00000000000E+00 0.  1.
       22    1    1    2    0    0  0.46978244618E-03  0.14178838425E-02 -0.37527420988E-02  0.40390795236E-02  0.00000000000E+00 0. -1.
       22    1    1    2    0    0  0.38386721931E-03  0.55947382804E-03  0.34816238591E-01  0.34822849318E-01  0.00000000000E+00 0. -1.
</event>
<event>
 5   0  0.4146200E+04  0.9118800E+02  0.7546771E-02  0.1180000E+00
      -11   -1    0    0    0    0  0.00000000000E+00  0.00000000000E+00  0.34996269501E-01  0.35000000000E-01  0.51099999109E-03 0.  1.
       11   -1    0    0    0    0 -0.00000000000E+00 -0.00000000000E+00 -0.34996269501E-01  0.35000000000E-01  0.51099999109E-03 0. -1.
       22    1    1    2    0    0  0.52657865320E-02 -0.30691641282E-02 -0.13259949289E-01  0.14593646953E-01  0.00000000000E+00 0. -1.
       22    1    1    2    0    0 -0.58622593372E-02  0.30363746736E-02  0.34011440209E-01  0.34646265611E-01  0.00000000000E+00 0.  1.
       22    1    1    2    0    0  0.59647280523E-03  0.32789454583E-04 -0.20751490920E-01  0.20760087436E-01  0.00000000000E+00 0. -1.
</event>
<event>
 5   0  0.4146200E+04  0.9118800E+02  0.7546771E-02  0.1180000E+00
      -11   -1    0    0    0    0  0.00000000000E+00  0.00000000000E+00  0.34996269501E-01  0.35000000000E-01  0.51099999109E-03 0. -1.
       11   -1    0    0    0    0 -0.00000000000E+00 -0.00000000000E+00 -0.34996269501E-01  0.35000000000E-01  0.51099999109E-03 0.  1.
       22    1    1    2    0    0 -0.55721793254E-02  0.13103739730E-02 -0.25361374753E-01  0.25999338295E-01  0.00000000000E+00 0.  1.
       22    1    1    2    0    0  0.16504228033E-02 -0.35602624441E-02 -0.87506713149E-02  0.95902874077E-02  0.00000000000E+00 0. -1.
       22    1    1    2    0    0  0.39217565222E-02  0.22498884712E-02  0.34112046068E-01  0.34410374298E-01  0.00000000000E+00 0. -1.
</event>
<event>
 5   0  0.4146200E+04  0.9118800E+02  0.7546771E-02  0.1180000E+00
      -11   -1    0    0    0    0  0.00000000000E+00  0.00000000000E+00  0.34996269501E-01  0.35000000000E-01  0.51099999109E-03 0.  1.
       11   -1    0    0    0    0 -0.00000000000E+00 -0.00000000000E+00 -0.34996269501E-01  0.35000000000E-01  0.51099999109E-03 0.  1.
       22    1    1    2    0    0  0.38837768733E-02  0.31251695973E-02 -0.31519730982E-01  0.31911500262E-01  0.00000000000E+00 0.  1.
       22    1    1    2    0    0 -0.35170402144E-02 -0.10760897894E-02  0.34365994340E-01  0.34562249755E-01  0.00000000000E+00 0.  1.
       22    1    1    2    0    0 -0.36673665891E-03 -0.20490798078E-02 -0.28462633585E-02  0.35262499829E-02  0.00000000000E+00 0.  1.
</event>
<event>
 5   0  0.4146200E+04  0.9118800E+02  0.7546771E-02  0.1180000E+00
      -11   -1    0    0    0    0  0.00000000000E+00  0.00000000000E+00  0.34996269501E-01  0.35000000000E-01  0.51099999109E-03 0.  1.
       11   -1    0    0    0    0 -0.00000000000E+00 -0.00000000000E+00 -0.34996269501E-01  0.35000000000E-01  0.51099999109E-03 0. -1.
       22    1    1    2    0    0  0.64780573239E-04  0.93907847101E-03 -0.56627026898E-03  0.10985112266E-02  0.00000000000E+00 0.  1.
       22    1    1    2    0    0  0.91739692890E-02 -0.14206907429E-01 -0.29934155165E-01  0.34380976959E-01  0.00000000000E+00 0. -1.
       22    1    1    2    0    0 -0.92387498623E-02  0.13267828958E-01  0.30500425434E-01  0.34520511814E-01  0.00000000000E+00 0.  1.
</event>
<event>
 5   0  0.4146200E+04  0.9118800E+02  0.7546771E-02  0.1180000E+00
      -11   -1    0    0    0    0  0.00000000000E+00  0.00000000000E+00  0.34996269501E-01  0.35000000000E-01  0.51099999109E-03 0. -1.
       11   -1    0    0    0    0 -0.00000000000E+00 -0.00000000000E+00 -0.34996269501E-01  0.35000000000E-01  0.51099999109E-03 0.  1.
       22    1    1    2    0    0 -0.12671346555E-01 -0.19458089071E-01 -0.25155617884E-01  0.34234271789E-01  0.00000000000E+00 0.  1.
       22    1    1    2    0    0  0.25991379826E-03  0.47092673171E-03 -0.10051292755E-02  0.11400052761E-02  0.00000000000E+00 0.  1.
       22    1    1    2    0    0  0.12411432757E-01  0.18987162340E-01  0.26160747160E-01  0.34625722934E-01  0.00000000000E+00 0. -1.
</event>
<event>
 5   0  0.4146200E+04  0.9118800E+02  0.7546771E-02  0.1180000E+00
      -11   -1    0    0    0    0  0.00000000000E+00  0.00000000000E+00  0.34996269501E-01  0.35000000000E-01  0.51099999109E-03 0.  1.
       11   -1    0    0    0    0 -0.00000000000E+00 -0.00000000000E+00 -0.34996269501E-01  0.35000000000E-01  0.51099999109E-03 0. -1.
       22    1    1    2    0    0 -0.24344996670E-04 -0.12135371014E-03 -0.26237717271E-02  0.26266894521E-02  0.00000000000E+00 0. -1.
       22    1    1    2    0    0 -0.55745673571E-02 -0.14068875733E-01  0.31370440136E-01  0.34829780073E-01  0.00000000000E+00 0.  1.
       22    1    1    2    0    0  0.55989123538E-02  0.14190229443E-01 -0.28746668409E-01  0.32543530475E-01  0.00000000000E+00 0. -1.
</event>
<event>
 5   0  0.4146200E+04  0.9118800E+02  0.7546771E-02  0.1180000E+00
      -11   -1    0    0    0    0  0.00000000000E+00  0.00000000000E+00  0.34996269501E-01  0.35000000000E-01  0.51099999109E-03 0.  1.
       11   -1    0    0    0    0 -0.00000000000E+00 -0.00000000000E+00 -0.34996269501E-01  0.35000000000E-01  0.51099999109E-03 0. -1.
       22    1    1    2    0    0 -0.11236301580E-01  0.16797965642E-01  0.28181514415E-01  0.34678867883E-01  0.00000000000E+00 0.  1.
       22    1    1    2    0    0 -0.34852015318E-05  0.13717971566E-04  0.34958444073E-03  0.34987084842E-03  0.00000000000E+00 0.  1.
       22    1    1    2    0    0  0.11239786781E-01 -0.16811683613E-01 -0.28531098856E-01  0.34971261269E-01  0.00000000000E+00 0. -1.
</event>
<event>
 5   0  0.4146200E+04  0.9118800E+02  0.7546771E-02  0.1180000E+00
      -11   -1    0    0    0    0  0.00000000000E+00  0.00000000000E+00  0.34996269501E-01  0.35000000000E-01  0.51099999109E-03 0. -1.
       11   -1    0    0    0    0 -0.00000000000E+00 -0.00000000000E+00 -0.34996269501E-01  0.35000000000E-01  0.51099999109E-03 0.  1.
       22    1    1    2    0    0 -0.74188994027E-02  0.12601996335E-01  0.31468981287E-01  0.34700823668E-01  0.00000000000E+00 0. -1.
       22    1    1    2    0    0 -0.59604728912E-04  0.59905760355E-03 -0.39794586844E-03  0.72165341424E-03  0.00000000000E+00 0.  1.
       22    1    1    2    0    0  0.74785041316E-02 -0.13201053938E-01 -0.31071035419E-01  0.34577522918E-01  0.00000000000E+00 0.  1.
</event>
<event>
 5   0  0.4146200E+04  0.9118800E+02  0.7546771E-02  0.1180000E+00
      -11   -1    0    0    0    0  0.00000000000E+00  0.00000000000E+00  0.34996269501E-01  0.35000000000E-01  0.51099999109E-03 0. -1.
       11   -1    0    0    0    0 -0.00000000000E+00 -0.00000000000E+00 -0.34996269501E-01  0.35000000000E-01  0.51099999109E-03 0.  1.
       22    1    1    2    0    0  0.12172225136E-02 -0.34454138732E-03 -0.14606862400E-02  0.19323415089E-02  0.00000000000E+00 0.  1.
       22    1    1    2    0    0  0.18483879647E-02 -0.14866934693E-01  0.31151344554E-01  0.34566581445E-01  0.00000000000E+00 0. -1.
       22    1    1    2    0    0 -0.30656104784E-02  0.15211476080E-01 -0.29690658314E-01  0.33501077047E-01  0.00000000000E+00 0.  1.
</event>
<event>
 5   0  0.4146200E+04  0.9118800E+02  0.7546771E-02  0.1180000E+00
      -11   -1    0    0    0    0  0.00000000000E+00  0.00000000000E+00  0.34996269501E-01  0.35000000000E-01  0.51099999109E-03 0. -1.
       11   -1    0    0    0    0 -0.00000000000E+00 -0.00000000000E+00 -0.34996269501E-01  0.35000000000E-01  0.51099999109E-03 0.  1.
       22    1    1    2    0    0  0.59415900172E-03 -0.11362807237E-02 -0.19878782049E-02  0.23655482578E-02  0.00000000000E+00 0.  1.
       22    1    1    2    0    0  0.29390931300E-02 -0.40603410142E-02 -0.32345072766E-01  0.32731152894E-01  0.00000000000E+00 0.  1.
       22    1    1    2    0    0 -0.35332521317E-02  0.51966217379E-02  0.34332950971E-01  0.34903298848E-01  0.00000000000E+00 0. -1.
</event>
<event>
 5   0  0.4146200E+04  0.9118800E+02  0.7546771E-02  0.1180000E+00
      -11   -1    0    0    0    0  0.00000000000E+00  0.00000000000E+00  0.34996269501E-01  0.35000000000E-01  0.51099999109E-03 0. -1.
       11   -1    0    0    0    0 -0.00000000000E+00 -0.00000000000E+00 -0.34996269501E-01  0.35000000000E-01  0.51099999109E-03 0. -1.
       22    1    1    2    0    0  0.00000000000E+00 -0.00000000000E+00  0.34571169304E-01  0.34568162463E-01  0.00000000000E+00 0. -1.
       22    1    1    2    0    0  0.17162283447E-02 -0.12076023243E-02 -0.23827980718E-02  0.31751330296E-02  0.00000000000E+00 0.  1.
       22    1    1    2    0    0 -0.17162283447E-02  0.12076023243E-02 -0.32188371233E-01  0.32256704508E-01  0.00000000000E+00 0. -1.
</event>
<event>
 5   0  0.4146200E+04  0.9118800E+02  0.7546771E-02  0.1180000E+00
      -11   -1    0    0    0    0  0.00000000000E+00  0.00000000000E+00  0.34996269501E-01  0.35000000000E-01  0.51099999109E-03 0.  1.
       11   -1    0    0    0    0 -0.00000000000E+00 -0.00000000000E+00 -0.34996269501E-01  0.35000000000E-01  0.51099999109E-03 0. -1.
       22    1    1    2    0    0 -0.25035468469E-02  0.23646085594E-02  0.34445383509E-01  0.34617099323E-01  0.00000000000E+00 0.  1.
       22    1    1    2    0    0  0.23149097526E-02  0.30438539793E-03 -0.30652156361E-01  0.30740952283E-01  0.00000000000E+00 0. -1.
       22    1    1    2    0    0  0.18863709430E-03 -0.26689939573E-02 -0.37932271479E-02  0.46419483941E-02  0.00000000000E+00 0.  1.
</event>
<event>
 5   0  0.4146200E+04  0.9118800E+02  0.7546771E-02  0.1180000E+00
      -11   -1    0    0    0    0  0.00000000000E+00  0.00000000000E+00  0.34996269501E-01  0.35000000000E-01  0.51099999109E-03 0.  1.
       11   -1    0    0    0    0 -0.00000000000E+00 -0.00000000000E+00 -0.34996269501E-01  0.35000000000E-01  0.51099999109E-03 0. -1.
       22    1    1    2    0    0 -0.12018624478E-01 -0.11796315388E-01 -0.26763735598E-01  0.31621162759E-01  0.00000000000E+00 0. -1.
       22    1    1    2    0    0  0.14200620662E-01  0.12844036544E-01  0.29217172181E-01  0.34932363965E-01  0.00000000000E+00 0.  1.
       22    1    1    2    0    0 -0.21819961845E-02 -0.10477211556E-02 -0.24534365836E-02  0.34464732755E-02  0.00000000000E+00 0. -1.
</event>
<event>
 5   0  0.4146200E+04  0.9118800E+02  0.7546771E-02  0.1180000E+00
      -11   -1    0    0    0    0  0.00000000000E+00  0.00000000000E+00  0.34996269501E-01  0.35000000000E-01  0.51099999109E-03 0. -1.
       11   -1    0    0    0    0 -0.00000000000E+00 -0.00000000000E+00 -0.34996269501E-01  0.35000000000E-01  0.51099999109E-03 0.  1.
       22    1    1    2    0    0  0.19220951067E-01 -0.10723165106E-01  0.23896945275E-01  0.32488385976E-01  0.00000000000E+00 0. -1.
       22    1    1    2    0    0 -0.19124977865E-01  0.10769471738E-01 -0.26780701189E-01  0.34625889967E-01  0.00000000000E+00 0.  1.
       22    1    1    2    0    0 -0.95973202394E-04 -0.46306632000E-04  0.28837559143E-02  0.28857240570E-02  0.00000000000E+00 0.  1.
</event>
<event>
 5   0  0.4146200E+04  0.9118800E+02  0.7546771E-02  0.1180000E+00
      -11   -1    0    0    0    0  0.00000000000E+00  0.00000000000E+00  0.34996269501E-01  0.35000000000E-01  0.51099999109E-03 0. -1.
       11   -1    0    0    0    0 -0.00000000000E+00 -0.00000000000E+00 -0.34996269501E-01  0.35000000000E-01  0.51099999109E-03 0.  1.
       22    1    1    2    0    0 -0.69773133114E-02  0.20904455589E-03 -0.14550630200E-01  0.16138384055E-01  0.00000000000E+00 0.  1.
       22    1    1    2    0    0  0.82665612224E-02 -0.25725950291E-02  0.33561941081E-01  0.34660614085E-01  0.00000000000E+00 0. -1.
       22    1    1    2    0    0 -0.12892479110E-02  0.23635504732E-02 -0.19011310881E-01  0.19201001860E-01  0.00000000000E+00 0.  1.
</event>
<event>
 5   0  0.4146200E+04  0.9118800E+02  0.7546771E-02  0.1180000E+00
      -11   -1    0    0    0    0  0.00000000000E+00  0.00000000000E+00  0.34996269501E-01  0.35000000000E-01  0.51099999109E-03 0.  1.
       11   -1    0    0    0    0 -0.00000000000E+00 -0.00000000000E+00 -0.34996269501E-01  0.35000000000E-01  0.51099999109E-03 0. -1.
       22    1    1    2    0    0  0.20329651041E-03  0.90570789173E-03 -0.11220012666E-02  0.14562015996E-02  0.00000000000E+00 0.  1.
       22    1    1    2    0    0 -0.18411256981E-02 -0.11598913199E-02  0.34778502576E-01  0.34846511061E-01  0.00000000000E+00 0.  1.
       22    1    1    2    0    0  0.16378291877E-02  0.25418342813E-03 -0.33656501309E-01  0.33697287339E-01  0.00000000000E+00 0. -1.
</event>
<event>
 5   0  0.4146200E+04  0.9118800E+02  0.7546771E-02  0.1180000E+00
      -11   -1    0    0    0    0  0.00000000000E+00  0.00000000000E+00  0.34996269501E-01  0.35000000000E-01  0.51099999109E-03 0.  1.
       11   -1    0    0    0    0 -0.00000000000E+00 -0.00000000000E+00 -0.34996269501E-01  0.35000000000E-01  0.51099999109E-03 0. -1.
       22    1    1    2    0    0 -0.77499837916E-04 -0.83352881124E-04  0.31041013931E-03  0.33061818198E-03  0.00000000000E+00 0.  1.
       22    1    1    2    0    0 -0.58981696602E-02 -0.12051847294E-01  0.31968851261E-01  0.34670490038E-01  0.00000000000E+00 0.  1.
       22    1    1    2    0    0  0.59756694982E-02  0.12135200175E-01 -0.32279261401E-01  0.34998891780E-01  0.00000000000E+00 0. -1.
</event>
<event>
 5   0  0.4146200E+04  0.9118800E+02  0.7546771E-02  0.1180000E+00
      -11   -1    0    0    0    0  0.00000000000E+00  0.00000000000E+00  0.34996269501E-01  0.35000000000E-01  0.51099999109E-03 0.  1.
       11   -1    0    0    0    0 -0.00000000000E+00 -0.00000000000E+00 -0.34996269501E-01  0.35000000000E-01  0.51099999109E-03 0. -1.
       22    1    1    2    0    0  0.63214477938E-02  0.72167855525E-02 -0.27293332293E-01  0.28930411051E-01  0.00000000000E+00 0. -1.
       22    1    1    2    0    0  0.41395261435E-03 -0.90422991523E-03 -0.62246906617E-02  0.63036308854E-02  0.00000000000E+00 0.  1.
       22    1    1    2    0    0 -0.67354004081E-02 -0.63125556373E-02  0.33518022954E-01  0.34765958064E-01  0.00000000000E+00 0.  1.
</event>
<event>
 5   0  0.4146200E+04  0.9118800E+02  0.7546771E-02  0.1180000E+00
      -11   -1    0    0    0    0  0.00000000000E+00  0.00000000000E+00  0.34996269501E-01  0.35000000000E-01  0.51099999109E-03 0.  1.
       11   -1    0    0    0    0 -0.00000000000E+00 -0.00000000000E+00 -0.34996269501E-01  0.35000000000E-01  0.51099999109E-03 0. -1.
       22    1    1    2    0    0  0.17730866203E-02  0.70214334441E-03  0.24521597060E-02  0.31064334312E-02  0.00000000000E+00 0. -1.
       22    1    1    2    0    0  0.16173810976E-01  0.17467612084E-01 -0.23759356086E-01  0.33633564115E-01  0.00000000000E+00 0. -1.
       22    1    1    2    0    0 -0.17946897596E-01 -0.18169755429E-01  0.21307196380E-01  0.33260002454E-01  0.00000000000E+00 0.  1.
</event>
<event>
 5   0  0.4146200E+04  0.9118800E+02  0.7546771E-02  0.1180000E+00
      -11   -1    0    0    0    0  0.00000000000E+00  0.00000000000E+00  0.34996269501E-01  0.35000000000E-01  0.51099999109E-03 0. -1.
       11   -1    0    0    0    0 -0.00000000000E+00 -0.00000000000E+00 -0.34996269501E-01  0.35000000000E-01  0.51099999109E-03 0.  1.
       22    1    1    2    0    0  0.29571678278E-02  0.12967692210E-01  0.15635935602E-01  0.20527746222E-01  0.00000000000E+00 0. -1.
       22    1    1    2    0    0 -0.26083610710E-02 -0.12970032441E-01 -0.31207949750E-01  0.33896333380E-01  0.00000000000E+00 0.  1.
       22    1    1    2    0    0 -0.34880675675E-03  0.23402313540E-05  0.15572014148E-01  0.15575920398E-01  0.00000000000E+00 0. -1.
</event>
<event>
 5   0  0.4146200E+04  0.9118800E+02  0.7546771E-02  0.1180000E+00
      -11   -1    0    0    0    0  0.00000000000E+00  0.00000000000E+00  0.34996269501E-01  0.35000000000E-01  0.51099999109E-03 0. -1.
       11   -1    0    0    0    0 -0.00000000000E+00 -0.00000000000E+00 -0.34996269501E-01  0.35000000000E-01  0.51099999109E-03 0.  1.
       22    1    1    2    0    0  0.13406470610E-01 -0.30192151642E-01 -0.95933609848E-02  0.34399593747E-01  0.00000000000E+00 0.  1.
       22    1    1    2    0    0 -0.12946969085E-01  0.30295395059E-01  0.10500054861E-01  0.34578694630E-01  0.00000000000E+00 0. -1.
       22    1    1    2    0    0 -0.45950152530E-03 -0.10324341634E-03 -0.90669387605E-03  0.10217116225E-02  0.00000000000E+00 0. -1.
</event>
<event>
 5   0  0.4146200E+04  0.9118800E+02  0.7546771E-02  0.1180000E+00
      -11   -1    0    0    0    0  0.00000000000E+00  0.00000000000E+00  0.34996269501E-01  0.35000000000E-01  0.51099999109E-03 0.  1.
       11   -1    0    0    0    0 -0.00000000000E+00 -0.00000000000E+00 -0.34996269501E-01  0.35000000000E-01  0.51099999109E-03 0. -1.
       22    1    1    2    0    0 -0.51589387549E-02 -0.31300849903E-02  0.13404288185E-02  0.61813291888E-02  0.00000000000E+00 0.  1.
       22    1    1    2    0    0  0.97150400731E-02  0.14413998742E-01  0.27490402116E-01  0.32524876200E-01  0.00000000000E+00 0.  1.
       22    1    1    2    0    0 -0.45561013182E-02 -0.11283913752E-01 -0.28830830934E-01  0.31293794611E-01  0.00000000000E+00 0. -1.
</event>
<event>
 5   0  0.4146200E+04  0.9118800E+02  0.7546771E-02  0.1180000E+00
      -11   -1    0    0    0    0  0.00000000000E+00  0.00000000000E+00  0.34996269501E-01  0.35000000000E-01  0.51099999109E-03 0.  1.
       11   -1    0    0    0    0 -0.00000000000E+00 -0.00000000000E+00 -0.34996269501E-01  0.35000000000E-01  0.51099999109E-03 0. -1.
       22    1    1    2    0    0  0.29955391051E-02 -0.30534990216E-02 -0.34116228832E-01  0.34383341614E-01  0.00000000000E+00 0. -1.
       22    1    1    2    0    0 -0.33390110871E-02  0.33886809004E-02  0.34605696851E-01  0.34931166712E-01  0.00000000000E+00 0.  1.
       22    1    1    2    0    0  0.34347198202E-03 -0.33518187876E-03 -0.48946801888E-03  0.68549167448E-03  0.00000000000E+00 0.  1.
</event>
<event>
 5   0  0.4146200E+04  0.9118800E+02  0.7546771E-02  0.1180000E+00
      -11   -1    0    0    0    0  0.00000000000E+00  0.00000000000E+00  0.34996269501E-01  0.35000000000E-01  0.51099999109E-03 0.  1.
       11   -1    0    0    0    0 -0.00000000000E+00 -0.00000000000E+00 -0.34996269501E-01  0.35000000000E-01  0.51099999109E-03 0. -1.
       22    1    1    2    0    0 -0.23945324508E-01 -0.93379373409E-03  0.24201849279E-01  0.34058479782E-01  0.00000000000E+00 0.  1.
       22    1    1    2    0    0  0.24106541818E-01  0.92637389380E-03 -0.25226047571E-01  0.34904684543E-01  0.00000000000E+00 0. -1.
       22    1    1    2    0    0 -0.16121730928E-03  0.74198402953E-05  0.10241982920E-02  0.10368356746E-02  0.00000000000E+00 0.  1.
</event>
<event>
 5   0  0.4146200E+04  0.9118800E+02  0.7546771E-02  0.1180000E+00
      -11   -1    0    0    0    0  0.00000000000E+00  0.00000000000E+00  0.34996269501E-01  0.35000000000E-01  0.51099999109E-03 0. -1.
       11   -1    0    0    0    0 -0.00000000000E+00 -0.00000000000E+00 -0.34996269501E-01  0.35000000000E-01  0.51099999109E-03 0. -1.
       22    1    1    2    0    0 -0.72396924144E-03 -0.13360082297E-03 -0.10279361151E-02  0.12643707127E-02  0.00000000000E+00 0.  1.
       22    1    1    2    0    0  0.00000000000E+00  0.00000000000E+00  0.34879327174E-01  0.34876233881E-01  0.00000000000E+00 0. -1.
       22    1    1    2    0    0  0.72396924144E-03  0.13360082297E-03 -0.33851391059E-01  0.33859395406E-01  0.00000000000E+00 0. -1.
</event>
<event>
 5   0  0.4146200E+04  0.9118800E+02  0.7546771E-02  0.1180000E+00
      -11   -1    0    0    0    0  0.00000000000E+00  0.00000000000E+00  0.34996269501E-01  0.35000000000E-01  0.51099999109E-03 0.  1.
       11   -1    0    0    0    0 -0.00000000000E+00 -0.00000000000E+00 -0.34996269501E-01  0.35000000000E-01  0.51099999109E-03 0. -1.
       22    1    1    2    0    0 -0.38824709604E-02  0.14251658816E-01  0.29742974886E-01  0.33208852958E-01  0.00000000000E+00 0.  1.
       22    1    1    2    0    0  0.70757509070E-04 -0.83865503979E-04  0.19047977999E-02  0.19079556354E-02  0.00000000000E+00 0. -1.
       22    1    1    2    0    0  0.38117134513E-02 -0.14167793312E-01 -0.31647772685E-01  0.34883191407E-01  0.00000000000E+00 0. -1.
</event>
<event>
 5   0  0.4146200E+04  0.9118800E+02  0.7546771E-02  0.1180000E+00
      -11   -1    0    0    0    0  0.00000000000E+00  0.00000000000E+00  0.34996269501E-01  0.35000000000E-01  0.51099999109E-03 0.  1.
       11   -1    0    0    0    0 -0.00000000000E+00 -0.00000000000E+00 -0.34996269501E-01  0.35000000000E-01  0.51099999109E-03 0. -1.
       22    1    1    2    0    0 -0.17798255429E-04  0.31325481881E-03 -0.31483540417E-03  0.44448474791E-03  0.00000000000E+00 0. -1.
       22    1    1    2    0    0  0.55592889799E-02  0.32094383896E-01  0.11926728484E-01  0.34687202597E-01  0.00000000000E+00 0.  1.
       22    1    1    2    0    0 -0.55414907245E-02 -0.32407638715E-01 -0.11611893080E-01  0.34868312655E-01  0.00000000000E+00 0. -1.
</event>
<event>
 5   0  0.4146200E+04  0.9118800E+02  0.7546771E-02  0.1180000E+00
      -11   -1    0    0    0    0  0.00000000000E+00  0.00000000000E+00  0.34996269501E-01  0.35000000000E-01  0.51099999109E-03 0. -1.
       11   -1    0    0    0    0 -0.00000000000E+00 -0.00000000000E+00 -0.34996269501E-01  0.35000000000E-01  0.51099999109E-03 0.  1.
       22    1    1    2    0    0 -0.76876686260E-02  0.13210897877E-01  0.30620320706E-01  0.34223268572E-01  0.00000000000E+00 0. -1.
       22    1    1    2    0    0 -0.29394280657E-03 -0.38364875123E-03  0.78765066353E-03  0.92411163049E-03  0.00000000000E+00 0.  1.
       22    1    1    2    0    0  0.79816114326E-02 -0.12827249126E-01 -0.31407971370E-01  0.34852619797E-01  0.00000000000E+00 0.  1.
</event>
<event>
 5   0  0.4146200E+04  0.9118800E+02  0.7546771E-02  0.1180000E+00
      -11   -1    0    0    0    0  0.00000000000E+00  0.00000000000E+00  0.34996269501E-01  0.35000000000E-01  0.51099999109E-03 0. -1.
       11   -1    0    0    0    0 -0.00000000000E+00 -0.00000000000E+00 -0.34996269501E-01  0.35000000000E-01  0.51099999109E-03 0.  1.
       22    1    1    2    0    0  0.39944403722E-03  0.51962792806E-03  0.82447554444E-03  0.10532467165E-02  0.00000000000E+00 0. -1.
       22    1    1    2    0    0  0.18214920536E-01  0.80147244185E-03  0.28710352870E-01  0.34010440311E-01  0.00000000000E+00 0. -1.
       22    1    1    2    0    0 -0.18614364573E-01 -0.13211003699E-02 -0.29534828415E-01  0.34936312973E-01  0.00000000000E+00 0.  1.
</event>
<event>
 5   0  0.4146200E+04  0.9118800E+02  0.7546771E-02  0.1180000E+00
      -11   -1    0    0    0    0  0.00000000000E+00  0.00000000000E+00  0.34996269501E-01  0.35000000000E-01  0.51099999109E-03 0. -1.
       11   -1    0    0    0    0 -0.00000000000E+00 -0.00000000000E+00 -0.34996269501E-01  0.35000000000E-01  0.51099999109E-03 0.  1.
       22    1    1    2    0    0 -0.16349607184E-01  0.19525319169E-01  0.23893340232E-01  0.34920473239E-01  0.00000000000E+00 0. -1.
       22    1    1    2    0    0  0.15192196734E-03 -0.12277024189E-02 -0.13717087300E-02  0.18471378816E-02  0.00000000000E+00 0. -1.
       22    1    1    2    0    0  0.16197685217E-01 -0.18297616750E-01 -0.22521631502E-01  0.33232388880E-01  0.00000000000E+00 0.  1.
</event>
<event>
 5   0  0.4146200E+04  0.9118800E+02  0.7546771E-02  0.1180000E+00
      -11   -1    0    0    0    0  0.00000000000E+00  0.00000000000E+00  0.34996269501E-01  0.35000000000E-01  0.51099999109E-03 0. -1.
       11   -1    0    0    0    0 -0.00000000000E+00 -0.00000000000E+00 -0.34996269501E-01  0.35000000000E-01  0.51099999109E-03 0.  1.
       22    1    1    2    0    0  0.26965038953E-01 -0.12671531288E-01 -0.12785802658E-01  0.32421563511E-01  0.00000000000E+00 0.  1.
       22    1    1    2    0    0 -0.26494647241E-01  0.13758549075E-01  0.16198880439E-01  0.33965684633E-01  0.00000000000E+00 0. -1.
       22    1    1    2    0    0 -0.47039171154E-03 -0.10870177869E-02 -0.34130777818E-02  0.36127518564E-02  0.00000000000E+00 0. -1.
</event>
<event>
 5   0  0.4146200E+04  0.9118800E+02  0.7546771E-02  0.1180000E+00
      -11   -1    0    0    0    0  0.00000000000E+00  0.00000000000E+00  0.34996269501E-01  0.35000000000E-01  0.51099999109E-03 0. -1.
       11   -1    0    0    0    0 -0.00000000000E+00 -0.00000000000E+00 -0.34996269501E-01  0.35000000000E-01  0.51099999109E-03 0.  1.
       22    1    1    2    0    0  0.14462731032E-01  0.14920993785E-01  0.27898926385E-01  0.34787307138E-01  0.00000000000E+00 0. -1.
       22    1    1    2    0    0 -0.14808804732E-01 -0.14667917177E-01 -0.26303864464E-01  0.33561015743E-01  0.00000000000E+00 0.  1.
       22    1    1    2    0    0  0.34607370051E-03 -0.25307660736E-03 -0.15950619211E-02  0.16516771196E-02  0.00000000000E+00 0. -1.
</event>
<event>
 5   0  0.4146200E+04  0.9118800E+02  0.7546771E-02  0.1180000E+00
      -11   -1    0    0    0    0  0.00000000000E+00  0.00000000000E+00  0.34996269501E-01  0.35000000000E-01  0.51099999109E-03 0. -1.
       11   -1    0    0    0    0 -0.00000000000E+00 -0.00000000000E+00 -0.34996269501E-01  0.35000000000E-01  0.51099999109E-03 0.  1.
       22    1    1    2    0    0 -0.20598269661E-02 -0.17153996508E-01  0.27613938068E-01  0.32573487055E-01  0.00000000000E+00 0. -1.
       22    1    1    2    0    0  0.17343943070E-02 -0.61942800939E-03  0.21049277006E-02  0.27968795640E-02  0.00000000000E+00 0.  1.
       22    1    1    2    0    0  0.32543265917E-03  0.17773424517E-01 -0.29718865769E-01  0.34629633381E-01  0.00000000000E+00 0.  1.
</event>
<event>
 5   0  0.4146200E+04  0.9118800E+02  0.7546771E-02  0.1180000E+00
      -11   -1    0    0    0    0  0.00000000000E+00  0.00000000000E+00  0.34996269501E-01  0.35000000000E-01  0.51099999109E-03 0. -1.
       11   -1    0    0    0    0 -0.00000000000E+00 -0.00000000000E+00 -0.34996269501E-01  0.35000000000E-01  0.51099999109E-03 0.  1.
       22    1    1    2    0    0  0.97046695206E-04 -0.61304842514E-04  0.36080806400E-02  0.36099061275E-02  0.00000000000E+00 0.  1.
       22    1    1    2    0    0 -0.13597824337E-01 -0.24727693426E-02  0.28385982755E-01  0.31571813883E-01  0.00000000000E+00 0. -1.
       22    1    1    2    0    0  0.13500777642E-01  0.25340741852E-02 -0.31994063395E-01  0.34818279989E-01  0.00000000000E+00 0.  1.
</event>
<event>
 5   0  0.4146200E+04  0.9118800E+02  0.7546771E-02  0.1180000E+00
      -11   -1    0    0    0    0  0.00000000000E+00  0.00000000000E+00  0.34996269501E-01  0.35000000000E-01  0.51099999109E-03 0. -1.
       11   -1    0    0    0    0 -0.00000000000E+00 -0.00000000000E+00 -0.34996269501E-01  0.35000000000E-01  0.51099999109E-03 0.  1.
       22    1    1    2    0    0 -0.15597714844E-01 -0.96752812132E-02 -0.21284781843E-01  0.28105901747E-01  0.00000000000E+00 0.  1.
       22    1    1    2    0    0 -0.15225642584E-02  0.43883057106E-02 -0.70063005488E-02  0.84061689437E-02  0.00000000000E+00 0.  1.
       22    1    1    2    0    0  0.17120279102E-01  0.52869755026E-02  0.28291082392E-01  0.33487929309E-01  0.00000000000E+00 0. -1.
</event>
<event>
 5   0  0.4146200E+04  0.9118800E+02  0.7546771E-02  0.1180000E+00
      -11   -1    0    0    0    0  0.00000000000E+00  0.00000000000E+00  0.34996269501E-01  0.35000000000E-01  0.51099999109E-03 0.  1.
       11   -1    0    0    0    0 -0.00000000000E+00 -0.00000000000E+00 -0.34996269501E-01  0.35000000000E-01  0.51099999109E-03 0. -1.
       22    1    1    2    0    0  0.33855670730E-02 -0.84581645621E-02 -0.14559656661E-01  0.17175162714E-01  0.00000000000E+00 0. -1.
       22    1    1    2    0    0 -0.27502090677E-02  0.84719026539E-02  0.33098019787E-01  0.34275584581E-01  0.00000000000E+00 0.  1.
       22    1    1    2    0    0 -0.63535800526E-03 -0.13738091816E-04 -0.18538363126E-01  0.18549252706E-01  0.00000000000E+00 0. -1.
</event>
<event>
 5   0  0.4146200E+04  0.9118800E+02  0.7546771E-02  0.1180000E+00
      -11   -1    0    0    0    0  0.00000000000E+00  0.00000000000E+00  0.34996269501E-01  0.35000000000E-01  0.51099999109E-03 0.  1.
       11   -1    0    0    0    0 -0.00000000000E+00 -0.00000000000E+00 -0.34996269501E-01  0.35000000000E-01  0.51099999109E-03 0. -1.
       22    1    1    2    0    0  0.12162943797E-02 -0.69478494513E-03  0.16791972353E-02  0.21867330640E-02  0.00000000000E+00 0.  1.
       22    1    1    2    0    0 -0.13658666047E-01  0.21367160510E-02 -0.32080585998E-01  0.34932631043E-01  0.00000000000E+00 0. -1.
       22    1    1    2    0    0  0.12442371667E-01 -0.14419311059E-02  0.30401388762E-01  0.32880635893E-01  0.00000000000E+00 0.  1.
</event>
<event>
 5   0  0.4146200E+04  0.9118800E+02  0.7546771E-02  0.1180000E+00
      -11   -1    0    0    0    0  0.00000000000E+00  0.00000000000E+00  0.34996269501E-01  0.35000000000E-01  0.51099999109E-03 0.  1.
       11   -1    0    0    0    0 -0.00000000000E+00 -0.00000000000E+00 -0.34996269501E-01  0.35000000000E-01  0.51099999109E-03 0. -1.
       22    1    1    2    0    0 -0.22595406939E-01 -0.42255265679E-02 -0.23990971243E-01  0.33226107065E-01  0.00000000000E+00 0. -1.
       22    1    1    2    0    0  0.25022805127E-01  0.43540175938E-02  0.22429221443E-01  0.33884631032E-01  0.00000000000E+00 0.  1.
       22    1    1    2    0    0 -0.24273981880E-02 -0.12849102597E-03  0.15617498006E-02  0.28892619034E-02  0.00000000000E+00 0.  1.
</event>
<event>
 5   0  0.4146200E+04  0.9118800E+02  0.7546771E-02  0.1180000E+00
      -11   -1    0    0    0    0  0.00000000000E+00  0.00000000000E+00  0.34996269501E-01  0.35000000000E-01  0.51099999109E-03 0. -1.
       11   -1    0    0    0    0 -0.00000000000E+00 -0.00000000000E+00 -0.34996269501E-01  0.35000000000E-01  0.51099999109E-03 0.  1.
       22    1    1    2    0    0 -0.26646673770E-02  0.21165701124E-02 -0.14032777776E-01  0.14439500455E-01  0.00000000000E+00 0.  1.
       22    1    1    2    0    0  0.60275189529E-02  0.98059583510E-02 -0.17915625866E-01  0.21294540476E-01  0.00000000000E+00 0.  1.
       22    1    1    2    0    0 -0.33628515759E-02 -0.11922528463E-01  0.31948403642E-01  0.34265959069E-01  0.00000000000E+00 0. -1.
</event>
<event>
 5   0  0.4146200E+04  0.9118800E+02  0.7546771E-02  0.1180000E+00
      -11   -1    0    0    0    0  0.00000000000E+00  0.00000000000E+00  0.34996269501E-01  0.35000000000E-01  0.51099999109E-03 0.  1.
       11   -1    0    0    0    0 -0.00000000000E+00 -0.00000000000E+00 -0.34996269501E-01  0.35000000000E-01  0.51099999109E-03 0. -1.
       22    1    1    2    0    0 -0.11019872119E-01 -0.17037352120E-02 -0.26056736246E-01  0.28342438126E-01  0.00000000000E+00 0. -1.
       22    1    1    2    0    0  0.42416297947E-02  0.58014158976E-02 -0.55457489431E-02  0.90776197911E-02  0.00000000000E+00 0. -1.
       22    1    1    2    0    0  0.67782423238E-02 -0.40976806857E-02  0.31602485189E-01  0.32579942082E-01  0.00000000000E+00 0.  1.
</event>
<event>
 5   0  0.4146200E+04  0.9118800E+02  0.7546771E-02  0.1180000E+00
      -11   -1    0    0    0    0  0.00000000000E+00  0.00000000000E+00  0.34996269501E-01  0.35000000000E-01  0.51099999109E-03 0. -1.
       11   -1    0    0    0    0 -0.00000000000E+00 -0.00000000000E+00 -0.34996269501E-01  0.35000000000E-01  0.51099999109E-03 0.  1.
       22    1    1    2    0    0  0.85624652273E-02  0.12330996761E-01 -0.24070313173E-01  0.28368103006E-01  0.00000000000E+00 0.  1.
       22    1    1    2    0    0  0.16310191927E-02 -0.24685287574E-02 -0.69331438972E-02  0.75380595734E-02  0.00000000000E+00 0.  1.
       22    1    1    2    0    0 -0.10193484420E-01 -0.98624680041E-02  0.31003457070E-01  0.34093837421E-01  0.00000000000E+00 0. -1.
</event>
<event>
 5   0  0.4146200E+04  0.9118800E+02  0.7546771E-02  0.1180000E+00
      -11   -1    0    0    0    0  0.00000000000E+00  0.00000000000E+00  0.34996269501E-01  0.35000000000E-01  0.51099999109E-03 0.  1.
       11   -1    0    0    0    0 -0.00000000000E+00 -0.00000000000E+00 -0.34996269501E-01  0.35000000000E-01  0.51099999109E-03 0. -1.
       22    1    1    2    0    0  0.31005798764E-02  0.19593949653E-01 -0.24102167790E-01  0.31216196930E-01  0.00000000000E+00 0. -1.
       22    1    1    2    0    0 -0.54991265417E-02 -0.24389153223E-01  0.19267980790E-01  0.31564636405E-01  0.00000000000E+00 0.  1.
       22    1    1    2    0    0  0.23985466653E-02  0.47952035699E-02  0.48341870005E-02  0.72191666651E-02  0.00000000000E+00 0.  1.
</event>
<event>
 5   0  0.4146200E+04  0.9118800E+02  0.7546771E-02  0.1180000E+00
      -11   -1    0    0    0    0  0.00000000000E+00  0.00000000000E+00  0.34996269501E-01  0.35000000000E-01  0.51099999109E-03 0.  1.
       11   -1    0    0    0    0 -0.00000000000E+00 -0.00000000000E+00 -0.34996269501E-01  0.35000000000E-01  0.51099999109E-03 0. -1.
       22    1    1    2    0    0 -0.41775034797E-03 -0.63956163744E-03 -0.84576253722E-03  0.11396792139E-02  0.00000000000E+00 0. -1.
       22    1    1    2    0    0  0.19584924336E-01  0.25690041505E-02 -0.27943736928E-01  0.34220191073E-01  0.00000000000E+00 0. -1.
       22    1    1    2    0    0 -0.19167173988E-01 -0.19294425131E-02  0.28789499465E-01  0.34640129713E-01  0.00000000000E+00 0.  1.
</event>
<event>
 5   0  0.4146200E+04  0.9118800E+02  0.7546771E-02  0.1180000E+00
      -11   -1    0    0    0    0  0.00000000000E+00  0.00000000000E+00  0.34996269501E-01  0.35000000000E-01  0.51099999109E-03 0. -1.
       11   -1    0    0    0    0 -0.00000000000E+00 -0.00000000000E+00 -0.34996269501E-01  0.35000000000E-01  0.51099999109E-03 0.  1.
       22    1    1    2    0    0  0.16197410182E-02 -0.37400761159E-02  0.75188496276E-03  0.41445218440E-02  0.00000000000E+00 0. -1.
       22    1    1    2    0    0 -0.15175447098E-01  0.16784389956E-01 -0.25936862886E-01  0.34419918611E-01  0.00000000000E+00 0.  1.
       22    1    1    2    0    0  0.13555706080E-01 -0.13044313840E-01  0.25184977923E-01  0.31435559545E-01  0.00000000000E+00 0. -1.
</event>
<event>
 5   0  0.4146200E+04  0.9118800E+02  0.7546771E-02  0.1180000E+00
      -11   -1    0    0    0    0  0.00000000000E+00  0.00000000000E+00  0.34996269501E-01  0.35000000000E-01  0.51099999109E-03 0. -1.
       11   -1    0    0    0    0 -0.00000000000E+00 -0.00000000000E+00 -0.34996269501E-01  0.35000000000E-01  0.51099999109E-03 0.  1.
       22    1    1    2    0    0  0.71136124187E-03  0.71398060774E-03 -0.22247069896E-02  0.24423603981E-02  0.00000000000E+00 0. -1.
       22    1    1    2    0    0 -0.18706593300E-02  0.91212749336E-02  0.33490572444E-01  0.34760832345E-01  0.00000000000E+00 0. -1.
       22    1    1    2    0    0  0.11592980882E-02 -0.98352555413E-02 -0.31265865454E-01  0.32796807256E-01  0.00000000000E+00 0.  1.
</event>
<event>
 5   0  0.4146200E+04  0.9118800E+02  0.7546771E-02  0.1180000E+00
      -11   -1    0    0    0    0  0.00000000000E+00  0.00000000000E+00  0.34996269501E-01  0.35000000000E-01  0.51099999109E-03 0.  1.
       11   -1    0    0    0    0 -0.00000000000E+00 -0.00000000000E+00 -0.34996269501E-01  0.35000000000E-01  0.51099999109E-03 0. -1.
       22    1    1    2    0    0  0.64209435437E-03 -0.10949102932E-02  0.34824957255E-01  0.34848081174E-01  0.00000000000E+00 0.  1.
       22    1    1    2    0    0 -0.14592339284E-02  0.30130049313E-03 -0.34712756030E-02  0.37775521117E-02  0.00000000000E+00 0. -1.
       22    1    1    2    0    0  0.81713957403E-03  0.79360980002E-03 -0.31353681652E-01  0.31374366714E-01  0.00000000000E+00 0. -1.
</event>
<event>
 5   0  0.4146200E+04  0.9118800E+02  0.7546771E-02  0.1180000E+00
      -11   -1    0    0    0    0  0.00000000000E+00  0.00000000000E+00  0.34996269501E-01  0.35000000000E-01  0.51099999109E-03 0.  1.
       11   -1    0    0    0    0 -0.00000000000E+00 -0.00000000000E+00 -0.34996269501E-01  0.35000000000E-01  0.51099999109E-03 0. -1.
       22    1    1    2    0    0 -0.21758670283E-01 -0.19374737809E-02  0.27068830700E-01  0.34783834358E-01  0.00000000000E+00 0.  1.
       22    1    1    2    0    0  0.15844924462E-02 -0.11805201750E-02 -0.36389342294E-02  0.41407833222E-02  0.00000000000E+00 0. -1.
       22    1    1    2    0    0  0.20174177837E-01  0.31179939559E-02 -0.23429896471E-01  0.31075382320E-01  0.00000000000E+00 0. -1.
</event>
<event>
 5   0  0.4146200E+04  0.9118800E+02  0.7546771E-02  0.1180000E+00
      -11   -1    0    0    0    0  0.00000000000E+00  0.00000000000E+00  0.34996269501E-01  0.35000000000E-01  0.51099999109E-03 0.  1.
       11   -1    0    0    0    0 -0.00000000000E+00 -0.00000000000E+00 -0.34996269501E-01  0.35000000000E-01  0.51099999109E-03 0. -1.
       22    1    1    2    0    0  0.63311900823E-02 -0.19926773776E-01  0.27497031428E-01  0.34543407740E-01  0.00000000000E+00 0.  1.
       22    1    1    2    0    0 -0.66131185915E-02  0.20488730118E-01 -0.27356533469E-01  0.34812373127E-01  0.00000000000E+00 0. -1.
       22    1    1    2    0    0  0.28192850916E-03 -0.56195634126E-03 -0.14049795877E-03  0.64421913211E-03  0.00000000000E+00 0. -1.
</event>
<event>
 5   0  0.4146200E+04  0.9118800E+02  0.7546771E-02  0.1180000E+00
      -11   -1    0    0    0    0  0.00000000000E+00  0.00000000000E+00  0.34996269501E-01  0.35000000000E-01  0.51099999109E-03 0.  1.
       11   -1    0    0    0    0 -0.00000000000E+00 -0.00000000000E+00 -0.34996269501E-01  0.35000000000E-01  0.51099999109E-03 0. -1.
       22    1    1    2    0    0 -0.19345124825E-01 -0.82729615096E-02  0.26854330171E-01  0.34114964393E-01  0.00000000000E+00 0.  1.
       22    1    1    2    0    0  0.19331159021E-01  0.82902746263E-02 -0.27843668506E-01  0.34895447243E-01  0.00000000000E+00 0. -1.
       22    1    1    2    0    0  0.13965804318E-04 -0.17313116664E-04  0.98933833496E-03  0.98958836327E-03  0.00000000000E+00 0. -1.
</event>
<event>
 5   0  0.4146200E+04  0.9118800E+02  0.7546771E-02  0.1180000E+00
      -11   -1    0    0    0    0  0.00000000000E+00  0.00000000000E+00  0.34996269501E-01  0.35000000000E-01  0.51099999109E-03 0.  1.
       11   -1    0    0    0    0 -0.00000000000E+00 -0.00000000000E+00 -0.34996269501E-01  0.35000000000E-01  0.51099999109E-03 0.  1.
       22    1    1    2    0    0  0.00000000000E+00  0.00000000000E+00  0.34679056835E-01  0.34678629247E-01  0.00000000000E+00 0.  1.
       22    1    1    2    0    0 -0.73202976705E-04 -0.18830660043E-02 -0.27326982983E-02  0.33194783087E-02  0.00000000000E+00 0. -1.
       22    1    1    2    0    0  0.73202976705E-04  0.18830660043E-02 -0.31946358536E-01  0.32001892444E-01  0.00000000000E+00 0.  1.
</event>
<event>
 5   0  0.4146200E+04  0.9118800E+02  0.7546771E-02  0.1180000E+00
      -11   -1    0    0    0    0  0.00000000000E+00  0.00000000000E+00  0.34996269501E-01  0.35000000000E-01  0.51099999109E-03 0.  1.
       11   -1    0    0    0    0 -0.00000000000E+00 -0.00000000000E+00 -0.34996269501E-01  0.35000000000E-01  0.51099999109E-03 0. -1.
       22    1    1    2    0    0 -0.14261647256E-03 -0.26961359559E-03 -0.73010669261E-03  0.79125642605E-03  0.00000000000E+00 0. -1.
       22    1    1    2    0    0 -0.51188180357E-02 -0.75774857938E-02  0.33696507065E-01  0.34915257087E-01  0.00000000000E+00 0.  1.
       22    1    1    2    0    0  0.52614345083E-02  0.78470993894E-02 -0.32966400373E-01  0.34293486487E-01  0.00000000000E+00 0. -1.
</event>
<event>
 5   0  0.4146200E+04  0.9118800E+02  0.7546771E-02  0.1180000E+00
      -11   -1    0    0    0    0  0.00000000000E+00  0.00000000000E+00  0.34996269501E-01  0.35000000000E-01  0.51099999109E-03 0.  1.
       11   -1    0    0    0    0 -0.00000000000E+00 -0.00000000000E+00 -0.34996269501E-01  0.35000000000E-01  0.51099999109E-03 0.  1.
       22    1    1    2    0    0  0.00000000000E+00 -0.00000000000E+00  0.34838152929E-01  0.34836524833E-01  0.00000000000E+00 0.  1.
       22    1    1    2    0    0 -0.50998054746E-03  0.59628827706E-03 -0.81512550247E-03  0.11314015436E-02  0.00000000000E+00 0. -1.
       22    1    1    2    0    0  0.50998054746E-03 -0.59628827706E-03 -0.34023027426E-01  0.34032073623E-01  0.00000000000E+00 0.  1.
</event>
<event>
 5   0  0.4146200E+04  0.9118800E+02  0.7546771E-02  0.1180000E+00
      -11   -1    0    0    0    0  0.00000000000E+00  0.00000000000E+00  0.34996269501E-01  0.35000000000E-01  0.51099999109E-03 0. -1.
       11   -1    0    0    0    0 -0.00000000000E+00 -0.00000000000E+00 -0.34996269501E-01  0.35000000000E-01  0.51099999109E-03 0.  1.
       22    1    1    2    0    0 -0.60359957040E-02  0.63088705051E-02  0.31496790189E-01  0.32684597035E-01  0.00000000000E+00 0. -1.
       22    1    1    2    0    0  0.11517184107E-01 -0.21955240388E-02 -0.12584864959E-01  0.17200136092E-01  0.00000000000E+00 0.  1.
       22    1    1    2    0    0 -0.54811884026E-02 -0.41133464663E-02 -0.18911925230E-01  0.20115266873E-01  0.00000000000E+00 0.  1.
</event>
<event>
 5   0  0.4146200E+04  0.9118800E+02  0.7546771E-02  0.1180000E+00
      -11   -1    0    0    0    0  0.00000000000E+00  0.00000000000E+00  0.34996269501E-01  0.35000000000E-01  0.51099999109E-03 0.  1.
       11   -1    0    0    0    0 -0.00000000000E+00 -0.00000000000E+00 -0.34996269501E-01  0.35000000000E-01  0.51099999109E-03 0. -1.
       22    1    1    2    0    0  0.43651214580E-02 -0.29686802779E-02  0.33973329238E-01  0.34381018708E-01  0.00000000000E+00 0.  1.
       22    1    1    2    0    0  0.26427681300E-02  0.59873703089E-03 -0.46984033649E-02  0.54238089569E-02  0.00000000000E+00 0.  1.
       22    1    1    2    0    0 -0.70078895880E-02  0.23699432470E-02 -0.29274925873E-01  0.30195172335E-01  0.00000000000E+00 0. -1.
</event>
<event>
 5   0  0.4146200E+04  0.9118800E+02  0.7546771E-02  0.1180000E+00
      -11   -1    0    0    0    0  0.00000000000E+00  0.00000000000E+00  0.34996269501E-01  0.35000000000E-01  0.51099999109E-03 0. -1.
       11   -1    0    0    0    0 -0.00000000000E+00 -0.00000000000E+00 -0.34996269501E-01  0.35000000000E-01  0.51099999109E-03 0.  1.
       22    1    1    2    0    0 -0.51912439471E-02 -0.13615091266E-01 -0.19133308184E-01  0.24050014677E-01  0.00000000000E+00 0.  1.
       22    1    1    2    0    0  0.84412475860E-03 -0.16863845806E-02 -0.11382193918E-01  0.11537364429E-01  0.00000000000E+00 0. -1.
       22    1    1    2    0    0  0.43471191885E-02  0.15301475846E-01  0.30515502102E-01  0.34412620895E-01  0.00000000000E+00 0. -1.
</event>
<event>
 5   0  0.4146200E+04  0.9118800E+02  0.7546771E-02  0.1180000E+00
      -11   -1    0    0    0    0  0.00000000000E+00  0.00000000000E+00  0.34996269501E-01  0.35000000000E-01  0.51099999109E-03 0. -1.
       11   -1    0    0    0    0 -0.00000000000E+00 -0.00000000000E+00 -0.34996269501E-01  0.35000000000E-01  0.51099999109E-03 0.  1.
       22    1    1    2    0    0  0.81214515890E-02  0.18093996721E-01  0.28492729748E-01  0.34715793837E-01  0.00000000000E+00 0. -1.
       22    1    1    2    0    0 -0.80289922781E-02 -0.18026009219E-01 -0.28825075948E-01  0.34932602663E-01  0.00000000000E+00 0.  1.
       22    1    1    2    0    0 -0.92459310872E-04 -0.67987502256E-04  0.33234620017E-03  0.35160350026E-03  0.00000000000E+00 0.  1.
</event>
<event>
 5   0  0.4146200E+04  0.9118800E+02  0.7546771E-02  0.1180000E+00
      -11   -1    0    0    0    0  0.00000000000E+00  0.00000000000E+00  0.34996269501E-01  0.35000000000E-01  0.51099999109E-03 0.  1.
       11   -1    0    0    0    0 -0.00000000000E+00 -0.00000000000E+00 -0.34996269501E-01  0.35000000000E-01  0.51099999109E-03 0. -1.
       22    1    1    2    0    0  0.19641902523E-02  0.17407778781E-02  0.34801658776E-01  0.34900484302E-01  0.00000000000E+00 0.  1.
       22    1    1    2    0    0 -0.60112764514E-03 -0.16802467903E-02 -0.31153377737E-01  0.31204447250E-01  0.00000000000E+00 0. -1.
       22    1    1    2    0    0 -0.13630626071E-02 -0.60531087820E-04 -0.36482810384E-02  0.38950684485E-02  0.00000000000E+00 0. -1.
</event>
<event>
 5   0  0.4146200E+04  0.9118800E+02  0.7546771E-02  0.1180000E+00
      -11   -1    0    0    0    0  0.00000000000E+00  0.00000000000E+00  0.34996269501E-01  0.35000000000E-01  0.51099999109E-03 0. -1.
       11   -1    0    0    0    0 -0.00000000000E+00 -0.00000000000E+00 -0.34996269501E-01  0.35000000000E-01  0.51099999109E-03 0.  1.
       22    1    1    2    0    0  0.34283720317E-02 -0.11617682699E-02  0.26289297079E-03  0.36294011923E-02  0.00000000000E+00 0.  1.
       22    1    1    2    0    0  0.16941929734E-01 -0.11189394615E-01 -0.24880776552E-01  0.32113619802E-01  0.00000000000E+00 0.  1.
       22    1    1    2    0    0 -0.20370301765E-01  0.12351162884E-01  0.24617883581E-01  0.34256979006E-01  0.00000000000E+00 0. -1.
</event>
<event>
 5   0  0.4146200E+04  0.9118800E+02  0.7546771E-02  0.1180000E+00
      -11   -1    0    0    0    0  0.00000000000E+00  0.00000000000E+00  0.34996269501E-01  0.35000000000E-01  0.51099999109E-03 0.  1.
       11   -1    0    0    0    0 -0.00000000000E+00 -0.00000000000E+00 -0.34996269501E-01  0.35000000000E-01  0.51099999109E-03 0. -1.
       22    1    1    2    0    0 -0.16271472003E-01  0.10384606584E-01  0.28898342116E-01  0.34752194637E-01  0.00000000000E+00 0.  1.
       22    1    1    2    0    0  0.16306442896E-01 -0.10848726001E-01 -0.28690290549E-01  0.34737986521E-01  0.00000000000E+00 0. -1.
       22    1    1    2    0    0 -0.34970893143E-04  0.46411941654E-03 -0.20805156704E-03  0.50981884109E-03  0.00000000000E+00 0.  1.
</event>
<event>
 5   0  0.4146200E+04  0.9118800E+02  0.7546771E-02  0.1180000E+00
      -11   -1    0    0    0    0  0.00000000000E+00  0.00000000000E+00  0.34996269501E-01  0.35000000000E-01  0.51099999109E-03 0. -1.
       11   -1    0    0    0    0 -0.00000000000E+00 -0.00000000000E+00 -0.34996269501E-01  0.35000000000E-01  0.51099999109E-03 0.  1.
       22    1    1    2    0    0  0.56067238028E-02 -0.24806942416E-02  0.34369640165E-01  0.34912195015E-01  0.00000000000E+00 0. -1.
       22    1    1    2    0    0 -0.40652489325E-02  0.89159442772E-03 -0.28718044364E-01  0.29018050617E-01  0.00000000000E+00 0.  1.
       22    1    1    2    0    0 -0.15414748703E-02  0.15890998139E-02 -0.56515958007E-02  0.60697543680E-02  0.00000000000E+00 0.  1.
</event>
<event>
 5   0  0.4146200E+04  0.9118800E+02  0.7546771E-02  0.1180000E+00
      -11   -1    0    0    0    0  0.00000000000E+00  0.00000000000E+00  0.34996269501E-01  0.35000000000E-01  0.51099999109E-03 0. -1.
       11   -1    0    0    0    0 -0.00000000000E+00 -0.00000000000E+00 -0.34996269501E-01  0.35000000000E-01  0.51099999109E-03 0.  1.
       22    1    1    2    0    0  0.18741343021E-02 -0.15793817804E-01  0.30832401405E-01  0.34692852818E-01  0.00000000000E+00 0. -1.
       22    1    1    2    0    0 -0.16412283914E-02  0.15770923397E-01 -0.31125822965E-01  0.34931826615E-01  0.00000000000E+00 0.  1.
       22    1    1    2    0    0 -0.23290591063E-03  0.22894406615E-04  0.29342155917E-03  0.37532056758E-03  0.00000000000E+00 0.  1.
</event>
<event>
 5   0  0.4146200E+04  0.9118800E+02  0.7546771E-02  0.1180000E+00
      -11   -1    0    0    0    0  0.00000000000E+00  0.00000000000E+00  0.34996269501E-01  0.35000000000E-01  0.51099999109E-03 0.  1.
       11   -1    0    0    0    0 -0.00000000000E+00 -0.00000000000E+00 -0.34996269501E-01  0.35000000000E-01  0.51099999109E-03 0. -1.
       22    1    1    2    0    0 -0.41701541030E-02 -0.99446208773E-04 -0.32377794881E-01  0.32645392878E-01  0.00000000000E+00 0. -1.
       22    1    1    2    0    0  0.19780494625E-03 -0.77994244390E-03 -0.23011746295E-02  0.24377944310E-02  0.00000000000E+00 0.  1.
       22    1    1    2    0    0  0.39723491567E-02  0.87938865267E-03  0.34678969510E-01  0.34916812691E-01  0.00000000000E+00 0.  1.
</event>
<event>
 5   0  0.4146200E+04  0.9118800E+02  0.7546771E-02  0.1180000E+00
      -11   -1    0    0    0    0  0.00000000000E+00  0.00000000000E+00  0.34996269501E-01  0.35000000000E-01  0.51099999109E-03 0. -1.
       11   -1    0    0    0    0 -0.00000000000E+00 -0.00000000000E+00 -0.34996269501E-01  0.35000000000E-01  0.51099999109E-03 0.  1.
       22    1    1    2    0    0 -0.84403880544E-03  0.15794101578E-02 -0.32763446846E-01  0.32812351138E-01  0.00000000000E+00 0.  1.
       22    1    1    2    0    0  0.19128283186E-02 -0.22015971946E-02  0.34736679583E-01  0.34858899162E-01  0.00000000000E+00 0. -1.
       22    1    1    2    0    0 -0.10687895131E-02  0.62218703681E-03 -0.19732327362E-02  0.23287496996E-02  0.00000000000E+00 0.  1.
</event>
<event>
 5   0  0.4146200E+04  0.9118800E+02  0.7546771E-02  0.1180000E+00
      -11   -1    0    0    0    0  0.00000000000E+00  0.00000000000E+00  0.34996269501E-01  0.35000000000E-01  0.51099999109E-03 0. -1.
       11   -1    0    0    0    0 -0.00000000000E+00 -0.00000000000E+00 -0.34996269501E-01  0.35000000000E-01  0.51099999109E-03 0.  1.
       22    1    1    2    0    0 -0.64536679124E-02  0.14564750075E-01  0.28661849287E-01  0.32791513823E-01  0.00000000000E+00 0. -1.
       22    1    1    2    0    0  0.57034912298E-03 -0.26610828560E-02  0.22720110676E-02  0.35452354477E-02  0.00000000000E+00 0.  1.
       22    1    1    2    0    0  0.58833187894E-02 -0.11903667219E-01 -0.30933860354E-01  0.33663250729E-01  0.00000000000E+00 0.  1.
</event>
<event>
 5   0  0.4146200E+04  0.9118800E+02  0.7546771E-02  0.1180000E+00
      -11   -1    0    0    0    0  0.00000000000E+00  0.00000000000E+00  0.34996269501E-01  0.35000000000E-01  0.51099999109E-03 0. -1.
       11   -1    0    0    0    0 -0.00000000000E+00 -0.00000000000E+00 -0.34996269501E-01  0.35000000000E-01  0.51099999109E-03 0.  1.
       22    1    1    2    0    0 -0.23343895028E-01  0.78920148975E-02  0.24554601573E-01  0.34787207313E-01  0.00000000000E+00 0.  1.
       22    1    1    2    0    0  0.23537093104E-01 -0.73414060486E-02 -0.23969322771E-01  0.34386326187E-01  0.00000000000E+00 0. -1.
       22    1    1    2    0    0 -0.19319807551E-03 -0.55060884887E-03 -0.58527880106E-03  0.82646650011E-03  0.00000000000E+00 0. -1.
</event>
<event>
 5   0  0.4146200E+04  0.9118800E+02  0.7546771E-02  0.1180000E+00
      -11   -1    0    0    0    0  0.00000000000E+00  0.00000000000E+00  0.34996269501E-01  0.35000000000E-01  0.51099999109E-03 0. -1.
       11   -1    0    0    0    0 -0.00000000000E+00 -0.00000000000E+00 -0.34996269501E-01  0.35000000000E-01  0.51099999109E-03 0.  1.
       22    1    1    2    0    0 -0.63142935800E-03  0.65170129349E-03  0.28362531967E-01  0.28377044194E-01  0.00000000000E+00 0. -1.
       22    1    1    2    0    0  0.31121678124E-02  0.10904583595E-01 -0.49306838651E-03  0.11350711357E-01  0.00000000000E+00 0. -1.
       22    1    1    2    0    0 -0.24807384544E-02 -0.11556284888E-01 -0.27869463581E-01  0.30272244449E-01  0.00000000000E+00 0.  1.
</event>
<event>
 5   0  0.4146200E+04  0.9118800E+02  0.7546771E-02  0.1180000E+00
      -11   -1    0    0    0    0  0.00000000000E+00  0.00000000000E+00  0.34996269501E-01  0.35000000000E-01  0.51099999109E-03 0.  1.
       11   -1    0    0    0    0 -0.00000000000E+00 -0.00000000000E+00 -0.34996269501E-01  0.35000000000E-01  0.51099999109E-03 0. -1.
       22    1    1    2    0    0  0.17678697155E-01  0.31816407085E-02 -0.28548794961E-01  0.33729703000E-01  0.00000000000E+00 0.  1.
       22    1    1    2    0    0  0.34729304976E-03  0.43093186382E-03  0.10474654601E-01  0.10489266120E-01  0.00000000000E+00 0.  1.
       22    1    1    2    0    0 -0.18025990205E-01 -0.36125725723E-02  0.18074140360E-01  0.25781030880E-01  0.00000000000E+00 0. -1.
</event>
<event>
 5   0  0.4146200E+04  0.9118800E+02  0.7546771E-02  0.1180000E+00
      -11   -1    0    0    0    0  0.00000000000E+00  0.00000000000E+00  0.34996269501E-01  0.35000000000E-01  0.51099999109E-03 0.  1.
       11   -1    0    0    0    0 -0.00000000000E+00 -0.00000000000E+00 -0.34996269501E-01  0.35000000000E-01  0.51099999109E-03 0. -1.
       22    1    1    2    0    0 -0.10207051133E-01 -0.12243696795E-01 -0.29814858351E-01  0.33808545999E-01  0.00000000000E+00 0. -1.
       22    1    1    2    0    0 -0.26467094060E-02  0.84315077558E-03  0.77074093410E-02  0.81926877555E-02  0.00000000000E+00 0.  1.
       22    1    1    2    0    0  0.12853760539E-01  0.11400546020E-01  0.22107449010E-01  0.27998766246E-01  0.00000000000E+00 0.  1.
</event>
<event>
 5   0  0.4146200E+04  0.9118800E+02  0.7546771E-02  0.1180000E+00
      -11   -1    0    0    0    0  0.00000000000E+00  0.00000000000E+00  0.34996269501E-01  0.35000000000E-01  0.51099999109E-03 0.  1.
       11   -1    0    0    0    0 -0.00000000000E+00 -0.00000000000E+00 -0.34996269501E-01  0.35000000000E-01  0.51099999109E-03 0. -1.
       22    1    1    2    0    0 -0.11172424191E-01 -0.66556157687E-02 -0.74576630229E-02  0.14991231481E-01  0.00000000000E+00 0.  1.
       22    1    1    2    0    0  0.47605119330E-03 -0.36811516228E-03  0.29508144697E-01  0.29514280221E-01  0.00000000000E+00 0.  1.
       22    1    1    2    0    0  0.10696372998E-01  0.70237309310E-02 -0.22050481674E-01  0.25494488298E-01  0.00000000000E+00 0. -1.
</event>
<event>
 5   0  0.4146200E+04  0.9118800E+02  0.7546771E-02  0.1180000E+00
      -11   -1    0    0    0    0  0.00000000000E+00  0.00000000000E+00  0.34996269501E-01  0.35000000000E-01  0.51099999109E-03 0. -1.
       11   -1    0    0    0    0 -0.00000000000E+00 -0.00000000000E+00 -0.34996269501E-01  0.35000000000E-01  0.51099999109E-03 0. -1.
       22    1    1    2    0    0 -0.00000000000E+00 -0.00000000000E+00  0.34888104146E-01  0.34884480976E-01  0.00000000000E+00 0. -1.
       22    1    1    2    0    0 -0.59654648667E-03 -0.40032807254E-03 -0.10642721801E-02  0.12840582345E-02  0.00000000000E+00 0.  1.
       22    1    1    2    0    0  0.59654648667E-03  0.40032807254E-03 -0.33823831966E-01  0.33831460789E-01  0.00000000000E+00 0. -1.
</event>
<event>
 5   0  0.4146200E+04  0.9118800E+02  0.7546771E-02  0.1180000E+00
      -11   -1    0    0    0    0  0.00000000000E+00  0.00000000000E+00  0.34996269501E-01  0.35000000000E-01  0.51099999109E-03 0. -1.
       11   -1    0    0    0    0 -0.00000000000E+00 -0.00000000000E+00 -0.34996269501E-01  0.35000000000E-01  0.51099999109E-03 0.  1.
       22    1    1    2    0    0  0.13385260618E-02 -0.11045496581E-01  0.97257700864E-03  0.11168731028E-01  0.00000000000E+00 0. -1.
       22    1    1    2    0    0  0.23997124897E-02  0.15569216233E-02  0.27984739654E-01  0.28130557734E-01  0.00000000000E+00 0. -1.
       22    1    1    2    0    0 -0.37382385516E-02  0.94885749580E-02 -0.28957316662E-01  0.30700711237E-01  0.00000000000E+00 0.  1.
</event>
<event>
 5   0  0.4146200E+04  0.9118800E+02  0.7546771E-02  0.1180000E+00
      -11   -1    0    0    0    0  0.00000000000E+00  0.00000000000E+00  0.34996269501E-01  0.35000000000E-01  0.51099999109E-03 0.  1.
       11   -1    0    0    0    0 -0.00000000000E+00 -0.00000000000E+00 -0.34996269501E-01  0.35000000000E-01  0.51099999109E-03 0. -1.
       22    1    1    2    0    0 -0.11044524773E-01 -0.45354263028E-02  0.16229414255E-01  0.20148089395E-01  0.00000000000E+00 0.  1.
       22    1    1    2    0    0  0.57144276149E-03  0.78473456654E-02  0.14895369348E-01  0.16845753436E-01  0.00000000000E+00 0.  1.
       22    1    1    2    0    0  0.10473082012E-01 -0.33119193626E-02 -0.31124783603E-01  0.33006157168E-01  0.00000000000E+00 0. -1.
</event>
<event>
 5   0  0.4146200E+04  0.9118800E+02  0.7546771E-02  0.1180000E+00
      -11   -1    0    0    0    0  0.00000000000E+00  0.00000000000E+00  0.34996269501E-01  0.35000000000E-01  0.51099999109E-03 0.  1.
       11   -1    0    0    0    0 -0.00000000000E+00 -0.00000000000E+00 -0.34996269501E-01  0.35000000000E-01  0.51099999109E-03 0. -1.
       22    1    1    2    0    0  0.14497143717E-01 -0.24828878171E-02 -0.30680477212E-01  0.34023867944E-01  0.00000000000E+00 0. -1.
       22    1    1    2    0    0 -0.14135015028E-01  0.20592571554E-02  0.16662855974E-01  0.21947436276E-01  0.00000000000E+00 0.  1.
       22    1    1    2    0    0 -0.36212868986E-03  0.42363066171E-03  0.14017621238E-01  0.14028695781E-01  0.00000000000E+00 0.  1.
</event>
<event>
 5   0  0.4146200E+04  0.9118800E+02  0.7546771E-02  0.1180000E+00
      -11   -1    0    0    0    0  0.00000000000E+00  0.00000000000E+00  0.34996269501E-01  0.35000000000E-01  0.51099999109E-03 0. -1.
       11   -1    0    0    0    0 -0.00000000000E+00 -0.00000000000E+00 -0.34996269501E-01  0.35000000000E-01  0.51099999109E-03 0.  1.
       22    1    1    2    0    0 -0.14091608322E-01 -0.13386083592E-01  0.28677171719E-01  0.34643048896E-01  0.00000000000E+00 0. -1.
       22    1    1    2    0    0 -0.22633755723E-03 -0.47394258803E-04  0.28523465975E-03  0.36719710879E-03  0.00000000000E+00 0. -1.
       22    1    1    2    0    0  0.14317945880E-01  0.13433477850E-01 -0.28962406379E-01  0.34989753995E-01  0.00000000000E+00 0.  1.
</event>
<event>
 5   0  0.4146200E+04  0.9118800E+02  0.7546771E-02  0.1180000E+00
      -11   -1    0    0    0    0  0.00000000000E+00  0.00000000000E+00  0.34996269501E-01  0.35000000000E-01  0.51099999109E-03 0.  1.
       11   -1    0    0    0    0 -0.00000000000E+00 -0.00000000000E+00 -0.34996269501E-01  0.35000000000E-01  0.51099999109E-03 0. -1.
       22    1    1    2    0    0  0.21937619313E-03  0.29691510416E-02 -0.51066284095E-02  0.59111451966E-02  0.00000000000E+00 0.  1.
       22    1    1    2    0    0  0.21173485944E-02 -0.53288859576E-02 -0.29131281282E-01  0.29690263383E-01  0.00000000000E+00 0. -1.
       22    1    1    2    0    0 -0.23367247875E-02  0.23597349160E-02  0.34237909692E-01  0.34398591420E-01  0.00000000000E+00 0.  1.
</event>
<event>
 5   0  0.4146200E+04  0.9118800E+02  0.7546771E-02  0.1180000E+00
      -11   -1    0    0    0    0  0.00000000000E+00  0.00000000000E+00  0.34996269501E-01  0.35000000000E-01  0.51099999109E-03 0.  1.
       11   -1    0    0    0    0 -0.00000000000E+00 -0.00000000000E+00 -0.34996269501E-01  0.35000000000E-01  0.51099999109E-03 0. -1.
       22    1    1    2    0    0 -0.16774795532E-01  0.86194640595E-02 -0.27883854046E-01  0.33663010000E-01  0.00000000000E+00 0. -1.
       22    1    1    2    0    0  0.46489586001E-03 -0.34844850274E-03  0.12290417553E-01  0.12304141910E-01  0.00000000000E+00 0.  1.
       22    1    1    2    0    0  0.16309899672E-01 -0.82710155567E-02  0.15593436493E-01  0.24032848090E-01  0.00000000000E+00 0.  1.
</event>
<event>
 5   0  0.4146200E+04  0.9118800E+02  0.7546771E-02  0.1180000E+00
      -11   -1    0    0    0    0  0.00000000000E+00  0.00000000000E+00  0.34996269501E-01  0.35000000000E-01  0.51099999109E-03 0.  1.
       11   -1    0    0    0    0 -0.00000000000E+00 -0.00000000000E+00 -0.34996269501E-01  0.35000000000E-01  0.51099999109E-03 0.  1.
       22    1    1    2    0    0 -0.73232428528E-02 -0.13897558092E-01 -0.22362349251E-01  0.27328495583E-01  0.00000000000E+00 0. -1.
       22    1    1    2    0    0  0.73232428528E-02  0.13897558092E-01 -0.40808027714E-02  0.16230371470E-01  0.00000000000E+00 0.  1.
       22    1    1    2    0    0 -0.00000000000E+00  0.00000000000E+00  0.26443152022E-01  0.26441132947E-01  0.00000000000E+00 0.  1.
</event>
<event>
 5   0  0.4146200E+04  0.9118800E+02  0.7546771E-02  0.1180000E+00
      -11   -1    0    0    0    0  0.00000000000E+00  0.00000000000E+00  0.34996269501E-01  0.35000000000E-01  0.51099999109E-03 0.  1.
       11   -1    0    0    0    0 -0.00000000000E+00 -0.00000000000E+00 -0.34996269501E-01  0.35000000000E-01  0.51099999109E-03 0. -1.
       22    1    1    2    0    0  0.14542101362E-01  0.24828883878E-02 -0.30733321484E-01  0.34090680489E-01  0.00000000000E+00 0. -1.
       22    1    1    2    0    0  0.12973448806E-04  0.44287726270E-03 -0.87903306625E-03  0.98438189324E-03  0.00000000000E+00 0.  1.
       22    1    1    2    0    0 -0.14555074811E-01 -0.29257656505E-02  0.31612354550E-01  0.34924937618E-01  0.00000000000E+00 0.  1.
</event>
<event>
 5   0  0.4146200E+04  0.9118800E+02  0.7546771E-02  0.1180000E+00
      -11   -1    0    0    0    0  0.00000000000E+00  0.00000000000E+00  0.34996269501E-01  0.35000000000E-01  0.51099999109E-03 0.  1.
       11   -1    0    0    0    0 -0.00000000000E+00 -0.00000000000E+00 -0.34996269501E-01  0.35000000000E-01  0.51099999109E-03 0. -1.
       22    1    1    2    0    0  0.70447629298E-02  0.12192518943E-02  0.33874827426E-01  0.34621080184E-01  0.00000000000E+00 0.  1.
       22    1    1    2    0    0 -0.73005039552E-02 -0.13160111609E-02 -0.17570198705E-01  0.19071998477E-01  0.00000000000E+00 0. -1.
       22    1    1    2    0    0  0.25574102540E-03  0.96759266561E-04 -0.16304628722E-01  0.16306921340E-01  0.00000000000E+00 0. -1.
</event>
<event>
 5   0  0.4146200E+04  0.9118800E+02  0.7546771E-02  0.1180000E+00
      -11   -1    0    0    0    0  0.00000000000E+00  0.00000000000E+00  0.34996269501E-01  0.35000000000E-01  0.51099999109E-03 0.  1.
       11   -1    0    0    0    0 -0.00000000000E+00 -0.00000000000E+00 -0.34996269501E-01  0.35000000000E-01  0.51099999109E-03 0. -1.
       22    1    1    2    0    0 -0.15143969945E-01  0.17334410414E-01  0.25494968818E-01  0.34348435847E-01  0.00000000000E+00 0.  1.
       22    1    1    2    0    0  0.14843697841E-01 -0.17291190518E-01 -0.26295087099E-01  0.34795865281E-01  0.00000000000E+00 0. -1.
       22    1    1    2    0    0  0.30027210391E-03 -0.43219896806E-04  0.80011828059E-03  0.85569887157E-03  0.00000000000E+00 0.  1.
</event>
<event>
 5   0  0.4146200E+04  0.9118800E+02  0.7546771E-02  0.1180000E+00
      -11   -1    0    0    0    0  0.00000000000E+00  0.00000000000E+00  0.34996269501E-01  0.35000000000E-01  0.51099999109E-03 0.  1.
       11   -1    0    0    0    0 -0.00000000000E+00 -0.00000000000E+00 -0.34996269501E-01  0.35000000000E-01  0.51099999109E-03 0. -1.
       22    1    1    2    0    0 -0.16563395705E-01  0.14259870219E-01 -0.13293240411E-01  0.25581247362E-01  0.00000000000E+00 0. -1.
       22    1    1    2    0    0  0.35368393529E-02 -0.32299427542E-02 -0.12558177438E-01  0.13440594606E-01  0.00000000000E+00 0. -1.
       22    1    1    2    0    0  0.13026556352E-01 -0.11029927465E-01  0.25851417849E-01  0.30978158032E-01  0.00000000000E+00 0.  1.
</event>
<event>
 5   0  0.4146200E+04  0.9118800E+02  0.7546771E-02  0.1180000E+00
      -11   -1    0    0    0    0  0.00000000000E+00  0.00000000000E+00  0.34996269501E-01  0.35000000000E-01  0.51099999109E-03 0. -1.
       11   -1    0    0    0    0 -0.00000000000E+00 -0.00000000000E+00 -0.34996269501E-01  0.35000000000E-01  0.51099999109E-03 0.  1.
       22    1    1    2    0    0 -0.14109989579E-01  0.62930959236E-02 -0.31095494601E-01  0.34722106024E-01  0.00000000000E+00 0.  1.
       22    1    1    2    0    0  0.13306292800E-01 -0.37117657678E-02  0.24105234626E-01  0.27783033844E-01  0.00000000000E+00 0. -1.
       22    1    1    2    0    0  0.80369677873E-03 -0.25813301558E-02  0.69902599755E-02  0.74948601328E-02  0.00000000000E+00 0. -1.
</event>
<event>
 5   0  0.4146200E+04  0.9118800E+02  0.7546771E-02  0.1180000E+00
      -11   -1    0    0    0    0  0.00000000000E+00  0.00000000000E+00  0.34996269501E-01  0.35000000000E-01  0.51099999109E-03 0.  1.
       11   -1    0    0    0    0 -0.00000000000E+00 -0.00000000000E+00 -0.34996269501E-01  0.35000000000E-01  0.51099999109E-03 0. -1.
       22    1    1    2    0    0  0.47509415564E-02  0.83136793765E-02 -0.26933095518E-01  0.28584617273E-01  0.00000000000E+00 0. -1.
       22    1    1    2    0    0 -0.16895261314E-02 -0.37015348531E-02  0.32972606782E-01  0.33222712966E-01  0.00000000000E+00 0.  1.
       22    1    1    2    0    0 -0.30614154250E-02 -0.46121445234E-02 -0.60395112639E-02  0.81926697612E-02  0.00000000000E+00 0.  1.
</event>
<event>
 5   0  0.4146200E+04  0.9118800E+02  0.7546771E-02  0.1180000E+00
      -11   -1    0    0    0    0  0.00000000000E+00  0.00000000000E+00  0.34996269501E-01  0.35000000000E-01  0.51099999109E-03 0. -1.
       11   -1    0    0    0    0 -0.00000000000E+00 -0.00000000000E+00 -0.34996269501E-01  0.35000000000E-01  0.51099999109E-03 0.  1.
       22    1    1    2    0    0  0.55459733338E-02  0.56576820217E-03 -0.89322241331E-02  0.10529128257E-01  0.00000000000E+00 0. -1.
       22    1    1    2    0    0 -0.19297442757E-01 -0.25876729553E-02 -0.19666045756E-01  0.27673827057E-01  0.00000000000E+00 0.  1.
       22    1    1    2    0    0  0.13751469423E-01  0.20219047531E-02  0.28598269890E-01  0.31797044687E-01  0.00000000000E+00 0. -1.
</event>
<event>
 5   0  0.4146200E+04  0.9118800E+02  0.7546771E-02  0.1180000E+00
      -11   -1    0    0    0    0  0.00000000000E+00  0.00000000000E+00  0.34996269501E-01  0.35000000000E-01  0.51099999109E-03 0. -1.
       11   -1    0    0    0    0 -0.00000000000E+00 -0.00000000000E+00 -0.34996269501E-01  0.35000000000E-01  0.51099999109E-03 0.  1.
       22    1    1    2    0    0 -0.10871593670E-02 -0.83589894451E-03  0.14493008925E-01  0.14557745369E-01  0.00000000000E+00 0. -1.
       22    1    1    2    0    0  0.10935176656E-01  0.13332357340E-01 -0.29111905708E-01  0.33835379334E-01  0.00000000000E+00 0.  1.
       22    1    1    2    0    0 -0.98480172888E-02 -0.12496458396E-01  0.14618896783E-01  0.21606875297E-01  0.00000000000E+00 0. -1.
</event>
<event>
 5   0  0.4146200E+04  0.9118800E+02  0.7546771E-02  0.1180000E+00
      -11   -1    0    0    0    0  0.00000000000E+00  0.00000000000E+00  0.34996269501E-01  0.35000000000E-01  0.51099999109E-03 0.  1.
       11   -1    0    0    0    0 -0.00000000000E+00 -0.00000000000E+00 -0.34996269501E-01  0.35000000000E-01  0.51099999109E-03 0. -1.
       22    1    1    2    0    0  0.10614598273E-01 -0.15642920689E-01 -0.27959425270E-01  0.33750557412E-01  0.00000000000E+00 0. -1.
       22    1    1    2    0    0 -0.11332191864E-01  0.14211659368E-01  0.29081263772E-01  0.34294456359E-01  0.00000000000E+00 0.  1.
       22    1    1    2    0    0  0.71759359036E-03  0.14312613214E-02 -0.11218385016E-02  0.19549862287E-02  0.00000000000E+00 0. -1.
</event>
<event>
 5   0  0.4146200E+04  0.9118800E+02  0.7546771E-02  0.1180000E+00
      -11   -1    0    0    0    0  0.00000000000E+00  0.00000000000E+00  0.34996269501E-01  0.35000000000E-01  0.51099999109E-03 0.  1.
       11   -1    0    0    0    0 -0.00000000000E+00 -0.00000000000E+00 -0.34996269501E-01  0.35000000000E-01  0.51099999109E-03 0. -1.
       22    1    1    2    0    0 -0.66809349626E-02 -0.16944603213E-01 -0.29482479320E-01  0.34655029316E-01  0.00000000000E+00 0. -1.
       22    1    1    2    0    0  0.66580019579E-02  0.17375818125E-01  0.29537088609E-01  0.34909707089E-01  0.00000000000E+00 0.  1.
       22    1    1    2    0    0  0.22933004753E-04 -0.43121491154E-03 -0.54609288484E-04  0.43526359488E-03  0.00000000000E+00 0. -1.
</event>
<event>
 5   0  0.4146200E+04  0.9118800E+02  0.7546771E-02  0.1180000E+00
      -11   -1    0    0    0    0  0.00000000000E+00  0.00000000000E+00  0.34996269501E-01  0.35000000000E-01  0.51099999109E-03 0.  1.
       11   -1    0    0    0    0 -0.00000000000E+00 -0.00000000000E+00 -0.34996269501E-01  0.35000000000E-01  0.51099999109E-03 0. -1.
       22    1    1    2    0    0 -0.66936330306E-05 -0.13026728651E-04  0.22900688408E-02  0.22901156730E-02  0.00000000000E+00 0. -1.
       22    1    1    2    0    0 -0.16679416237E-01  0.91874251720E-03  0.28294625311E-01  0.32857766743E-01  0.00000000000E+00 0.  1.
       22    1    1    2    0    0  0.16686109870E-01 -0.90571578855E-03 -0.30584694152E-01  0.34852117584E-01  0.00000000000E+00 0. -1.
</event>
<event>
 5   0  0.4146200E+04  0.9118800E+02  0.7546771E-02  0.1180000E+00
      -11   -1    0    0    0    0  0.00000000000E+00  0.00000000000E+00  0.34996269501E-01  0.35000000000E-01  0.51099999109E-03 0.  1.
       11   -1    0    0    0    0 -0.00000000000E+00 -0.00000000000E+00 -0.34996269501E-01  0.35000000000E-01  0.51099999109E-03 0. -1.
       22    1    1    2    0    0  0.27831503904E-02  0.61815098074E-03  0.24685715962E-01  0.24849800991E-01  0.00000000000E+00 0.  1.
       22    1    1    2    0    0  0.81317552776E-02  0.52358241568E-02  0.64610407213E-02  0.11631179893E-01  0.00000000000E+00 0.  1.
       22    1    1    2    0    0 -0.10914905668E-01 -0.58539751375E-02 -0.31146756683E-01  0.33519019116E-01  0.00000000000E+00 0. -1.
</event>
<event>
 5   0  0.4146200E+04  0.9118800E+02  0.7546771E-02  0.1180000E+00
      -11   -1    0    0    0    0  0.00000000000E+00  0.00000000000E+00  0.34996269501E-01  0.35000000000E-01  0.51099999109E-03 0.  1.
       11   -1    0    0    0    0 -0.00000000000E+00 -0.00000000000E+00 -0.34996269501E-01  0.35000000000E-01  0.51099999109E-03 0. -1.
       22    1    1    2    0    0  0.22361017740E-03 -0.34577500133E-04 -0.65581319539E-03  0.69374927906E-03  0.00000000000E+00 0. -1.
       22    1    1    2    0    0  0.29455058775E-02 -0.32985001353E-01 -0.97832436056E-02  0.34531118930E-01  0.00000000000E+00 0.  1.
       22    1    1    2    0    0 -0.31691160549E-02  0.33019578853E-01  0.10439056801E-01  0.34775131791E-01  0.00000000000E+00 0. -1.
</event>
<event>
 5   0  0.4146200E+04  0.9118800E+02  0.7546771E-02  0.1180000E+00
      -11   -1    0    0    0    0  0.00000000000E+00  0.00000000000E+00  0.34996269501E-01  0.35000000000E-01  0.51099999109E-03 0.  1.
       11   -1    0    0    0    0 -0.00000000000E+00 -0.00000000000E+00 -0.34996269501E-01  0.35000000000E-01  0.51099999109E-03 0. -1.
       22    1    1    2    0    0 -0.24955889714E-02  0.10830465516E-02  0.34849494738E-01  0.34955517986E-01  0.00000000000E+00 0.  1.
       22    1    1    2    0    0  0.20423267994E-02 -0.14457557876E-02 -0.33230106306E-01  0.33324184516E-01  0.00000000000E+00 0. -1.
       22    1    1    2    0    0  0.45326217203E-03  0.36270923595E-03 -0.16193884324E-02  0.17202974979E-02  0.00000000000E+00 0. -1.
</event>
<event>
 5   0  0.4146200E+04  0.9118800E+02  0.7546771E-02  0.1180000E+00
      -11   -1    0    0    0    0  0.00000000000E+00  0.00000000000E+00  0.34996269501E-01  0.35000000000E-01  0.51099999109E-03 0. -1.
       11   -1    0    0    0    0 -0.00000000000E+00 -0.00000000000E+00 -0.34996269501E-01  0.35000000000E-01  0.51099999109E-03 0.  1.
       22    1    1    2    0    0 -0.20782276746E-03 -0.16988199785E-03 -0.34294971022E-01  0.34296021454E-01  0.00000000000E+00 0.  1.
       22    1    1    2    0    0 -0.31923028308E-03 -0.17589396590E-03 -0.65432881559E-03  0.74899456592E-03  0.00000000000E+00 0.  1.
       22    1    1    2    0    0  0.52705305053E-03  0.34577596375E-03  0.34949299837E-01  0.34954983980E-01  0.00000000000E+00 0. -1.
</event>
<event>
 5   0  0.4146200E+04  0.9118800E+02  0.7546771E-02  0.1180000E+00
      -11   -1    0    0    0    0  0.00000000000E+00  0.00000000000E+00  0.34996269501E-01  0.35000000000E-01  0.51099999109E-03 0. -1.
       11   -1    0    0    0    0 -0.00000000000E+00 -0.00000000000E+00 -0.34996269501E-01  0.35000000000E-01  0.51099999109E-03 0.  1.
       22    1    1    2    0    0 -0.14365785325E-01 -0.18537010954E-01 -0.25871792601E-01  0.34919138241E-01  0.00000000000E+00 0.  1.
       22    1    1    2    0    0  0.14370083037E-01  0.18613145770E-01  0.25442714888E-01  0.34645060583E-01  0.00000000000E+00 0. -1.
       22    1    1    2    0    0 -0.42977122571E-05 -0.76134815419E-04  0.42907771335E-03  0.43580117547E-03  0.00000000000E+00 0. -1.
</event>
<event>
 5   0  0.4146200E+04  0.9118800E+02  0.7546771E-02  0.1180000E+00
      -11   -1    0    0    0    0  0.00000000000E+00  0.00000000000E+00  0.34996269501E-01  0.35000000000E-01  0.51099999109E-03 0.  1.
       11   -1    0    0    0    0 -0.00000000000E+00 -0.00000000000E+00 -0.34996269501E-01  0.35000000000E-01  0.51099999109E-03 0. -1.
       22    1    1    2    0    0 -0.46028873740E-02 -0.42794866261E-04 -0.64474763250E-02  0.79220170752E-02  0.00000000000E+00 0. -1.
       22    1    1    2    0    0  0.81962273235E-02 -0.21456421530E-03  0.33651769654E-01  0.34636191780E-01  0.00000000000E+00 0.  1.
       22    1    1    2    0    0 -0.35933399496E-02  0.25735908156E-03 -0.27204293329E-01  0.27441791145E-01  0.00000000000E+00 0. -1.
</event>
<event>
 5   0  0.4146200E+04  0.9118800E+02  0.7546771E-02  0.1180000E+00
      -11   -1    0    0    0    0  0.00000000000E+00  0.00000000000E+00  0.34996269501E-01  0.35000000000E-01  0.51099999109E-03 0.  1.
       11   -1    0    0    0    0 -0.00000000000E+00 -0.00000000000E+00 -0.34996269501E-01  0.35000000000E-01  0.51099999109E-03 0. -1.
       22    1    1    2    0    0 -0.44985436029E-03 -0.12286642369E-01  0.29505489623E-01  0.31964634638E-01  0.00000000000E+00 0.  1.
       22    1    1    2    0    0  0.14161664558E-03 -0.12549940246E-03  0.31207677395E-02  0.31264991058E-02  0.00000000000E+00 0. -1.
       22    1    1    2    0    0  0.30823771471E-03  0.12412141772E-01 -0.32626257362E-01  0.34908866256E-01  0.00000000000E+00 0. -1.
</event>
<event>
 5   0  0.4146200E+04  0.9118800E+02  0.7546771E-02  0.1180000E+00
      -11   -1    0    0    0    0  0.00000000000E+00  0.00000000000E+00  0.34996269501E-01  0.35000000000E-01  0.51099999109E-03 0.  1.
       11   -1    0    0    0    0 -0.00000000000E+00 -0.00000000000E+00 -0.34996269501E-01  0.35000000000E-01  0.51099999109E-03 0.  1.
       22    1    1    2    0    0 -0.64052402443E-02  0.17262728359E-01 -0.36187197380E-02  0.18764968040E-01  0.00000000000E+00 0. -1.
       22    1    1    2    0    0  0.00000000000E+00  0.00000000000E+00  0.23868324543E-01  0.23865790324E-01  0.00000000000E+00 0.  1.
       22    1    1    2    0    0  0.64052402443E-02 -0.17262728359E-01 -0.20249604805E-01  0.27369241636E-01  0.00000000000E+00 0.  1.
</event>
<event>
 5   0  0.4146200E+04  0.9118800E+02  0.7546771E-02  0.1180000E+00
      -11   -1    0    0    0    0  0.00000000000E+00  0.00000000000E+00  0.34996269501E-01  0.35000000000E-01  0.51099999109E-03 0.  1.
       11   -1    0    0    0    0 -0.00000000000E+00 -0.00000000000E+00 -0.34996269501E-01  0.35000000000E-01  0.51099999109E-03 0. -1.
       22    1    1    2    0    0 -0.52378516406E-03 -0.93117744843E-04  0.25886205004E-01  0.25891671081E-01  0.00000000000E+00 0.  1.
       22    1    1    2    0    0  0.16207835163E-01  0.95045029112E-03 -0.32525826128E-02  0.16558277993E-01  0.00000000000E+00 0.  1.
       22    1    1    2    0    0 -0.15684049999E-01 -0.85733254628E-03 -0.22633622392E-01  0.27550050926E-01  0.00000000000E+00 0. -1.
</event>
<event>
 5   0  0.4146200E+04  0.9118800E+02  0.7546771E-02  0.1180000E+00
      -11   -1    0    0    0    0  0.00000000000E+00  0.00000000000E+00  0.34996269501E-01  0.35000000000E-01  0.51099999109E-03 0. -1.
       11   -1    0    0    0    0 -0.00000000000E+00 -0.00000000000E+00 -0.34996269501E-01  0.35000000000E-01  0.51099999109E-03 0.  1.
       22    1    1    2    0    0  0.67018614562E-02  0.21692759254E-01  0.26291093959E-01  0.34737765797E-01  0.00000000000E+00 0. -1.
       22    1    1    2    0    0  0.94413664474E-03 -0.79767315556E-03 -0.16584269874E-02  0.20683463297E-02  0.00000000000E+00 0.  1.
       22    1    1    2    0    0 -0.76459981010E-02 -0.20895086098E-01 -0.24632666971E-01  0.33193887873E-01  0.00000000000E+00 0.  1.
</event>
<event>
 5   0  0.4146200E+04  0.9118800E+02  0.7546771E-02  0.1180000E+00
      -11   -1    0    0    0    0  0.00000000000E+00  0.00000000000E+00  0.34996269501E-01  0.35000000000E-01  0.51099999109E-03 0. -1.
       11   -1    0    0    0    0 -0.00000000000E+00 -0.00000000000E+00 -0.34996269501E-01  0.35000000000E-01  0.51099999109E-03 0.  1.
       22    1    1    2    0    0  0.11351082752E-02 -0.25810656580E-03  0.24048959462E-01  0.24077116542E-01  0.00000000000E+00 0. -1.
       22    1    1    2    0    0 -0.15293536619E-01  0.11444320140E-01 -0.19536813885E-01  0.27323100529E-01  0.00000000000E+00 0.  1.
       22    1    1    2    0    0  0.14158428343E-01 -0.11186213574E-01 -0.45121455770E-02  0.18599782928E-01  0.00000000000E+00 0. -1.
</event>
<event>
 5   0  0.4146200E+04  0.9118800E+02  0.7546771E-02  0.1180000E+00
      -11   -1    0    0    0    0  0.00000000000E+00  0.00000000000E+00  0.34996269501E-01  0.35000000000E-01  0.51099999109E-03 0.  1.
       11   -1    0    0    0    0 -0.00000000000E+00 -0.00000000000E+00 -0.34996269501E-01  0.35000000000E-01  0.51099999109E-03 0. -1.
       22    1    1    2    0    0  0.14241275148E-02  0.12334829772E-02 -0.23672521330E-01  0.23747376393E-01  0.00000000000E+00 0. -1.
       22    1    1    2    0    0 -0.12512291359E-02  0.25255254807E-02  0.34590101984E-01  0.34704740434E-01  0.00000000000E+00 0.  1.
       22    1    1    2    0    0 -0.17289837888E-03 -0.37590084579E-02 -0.10917580654E-01  0.11547883173E-01  0.00000000000E+00 0. -1.
</event>
<event>
 5   0  0.4146200E+04  0.9118800E+02  0.7546771E-02  0.1180000E+00
      -11   -1    0    0    0    0  0.00000000000E+00  0.00000000000E+00  0.34996269501E-01  0.35000000000E-01  0.51099999109E-03 0.  1.
       11   -1    0    0    0    0 -0.00000000000E+00 -0.00000000000E+00 -0.34996269501E-01  0.35000000000E-01  0.51099999109E-03 0.  1.
       22    1    1    2    0    0 -0.10309110442E-01  0.57526078119E-02 -0.20649547079E-01  0.23786005325E-01  0.00000000000E+00 0.  1.
       22    1    1    2    0    0  0.10309110442E-01 -0.57526078119E-02 -0.10058060084E-01  0.15509185259E-01  0.00000000000E+00 0. -1.
       22    1    1    2    0    0 -0.00000000000E+00  0.00000000000E+00  0.30707607163E-01  0.30704809416E-01  0.00000000000E+00 0.  1.
</event>
<event>
 5   0  0.4146200E+04  0.9118800E+02  0.7546771E-02  0.1180000E+00
      -11   -1    0    0    0    0  0.00000000000E+00  0.00000000000E+00  0.34996269501E-01  0.35000000000E-01  0.51099999109E-03 0.  1.
       11   -1    0    0    0    0 -0.00000000000E+00 -0.00000000000E+00 -0.34996269501E-01  0.35000000000E-01  0.51099999109E-03 0. -1.
       22    1    1    2    0    0 -0.11640753140E-01 -0.11659551145E-01 -0.30632999311E-01  0.34782652478E-01  0.00000000000E+00 0. -1.
       22    1    1    2    0    0  0.11532892439E-01  0.11645792847E-01  0.27017928117E-01  0.31600641430E-01  0.00000000000E+00 0.  1.
       22    1    1    2    0    0  0.10786070149E-03  0.13758298010E-04  0.36150711943E-02  0.36167060928E-02  0.00000000000E+00 0. -1.
</event>
<event>
 5   0  0.4146200E+04  0.9118800E+02  0.7546771E-02  0.1180000E+00
      -11   -1    0    0    0    0  0.00000000000E+00  0.00000000000E+00  0.34996269501E-01  0.35000000000E-01  0.51099999109E-03 0. -1.
       11   -1    0    0    0    0 -0.00000000000E+00 -0.00000000000E+00 -0.34996269501E-01  0.35000000000E-01  0.51099999109E-03 0.  1.
       22    1    1    2    0    0  0.13276275990E-01 -0.43425554339E-02  0.32012491239E-01  0.34927308616E-01  0.00000000000E+00 0. -1.
       22    1    1    2    0    0  0.96122831545E-04 -0.29100612564E-04 -0.11544834948E-02  0.11588436409E-02  0.00000000000E+00 0. -1.
       22    1    1    2    0    0 -0.13372398821E-01  0.43716560464E-02 -0.30858007744E-01  0.33913847743E-01  0.00000000000E+00 0.  1.
</event>
<event>
 5   0  0.4146200E+04  0.9118800E+02  0.7546771E-02  0.1180000E+00
      -11   -1    0    0    0    0  0.00000000000E+00  0.00000000000E+00  0.34996269501E-01  0.35000000000E-01  0.51099999109E-03 0. -1.
       11   -1    0    0    0    0 -0.00000000000E+00 -0.00000000000E+00 -0.34996269501E-01  0.35000000000E-01  0.51099999109E-03 0.  1.
       22    1    1    2    0    0  0.43743277200E-03 -0.40810035982E-04 -0.10916855939E-02  0.11767711438E-02  0.00000000000E+00 0. -1.
       22    1    1    2    0    0  0.17429670522E-02  0.37052903500E-03  0.34898803938E-01  0.34944266228E-01  0.00000000000E+00 0. -1.
       22    1    1    2    0    0 -0.21803998242E-02 -0.32971899902E-03 -0.33807118344E-01  0.33878962628E-01  0.00000000000E+00 0.  1.
</event>
<event>
 5   0  0.4146200E+04  0.9118800E+02  0.7546771E-02  0.1180000E+00
      -11   -1    0    0    0    0  0.00000000000E+00  0.00000000000E+00  0.34996269501E-01  0.35000000000E-01  0.51099999109E-03 0. -1.
       11   -1    0    0    0    0 -0.00000000000E+00 -0.00000000000E+00 -0.34996269501E-01  0.35000000000E-01  0.51099999109E-03 0.  1.
       22    1    1    2    0    0  0.10728007786E-01  0.53854776801E-02 -0.23270981896E-01  0.26184577890E-01  0.00000000000E+00 0.  1.
       22    1    1    2    0    0 -0.20462006580E-03  0.14347277788E-03 -0.92172719564E-02  0.92206592024E-02  0.00000000000E+00 0. -1.
       22    1    1    2    0    0 -0.10523387720E-01 -0.55289504580E-02  0.32488253852E-01  0.34594762907E-01  0.00000000000E+00 0. -1.
</event>
<event>
 5   0  0.4146200E+04  0.9118800E+02  0.7546771E-02  0.1180000E+00
      -11   -1    0    0    0    0  0.00000000000E+00  0.00000000000E+00  0.34996269501E-01  0.35000000000E-01  0.51099999109E-03 0.  1.
       11   -1    0    0    0    0 -0.00000000000E+00 -0.00000000000E+00 -0.34996269501E-01  0.35000000000E-01  0.51099999109E-03 0. -1.
       22    1    1    2    0    0 -0.67521065740E-03  0.21325980170E-02 -0.34494344365E-01  0.34566800212E-01  0.00000000000E+00 0. -1.
       22    1    1    2    0    0  0.78536768468E-03 -0.22758413444E-02  0.34903229814E-01  0.34986164518E-01  0.00000000000E+00 0.  1.
       22    1    1    2    0    0 -0.11015702728E-03  0.14324332736E-03 -0.40888544935E-03  0.44703526950E-03  0.00000000000E+00 0.  1.
</event>
<event>
 5   0  0.4146200E+04  0.9118800E+02  0.7546771E-02  0.1180000E+00
      -11   -1    0    0    0    0  0.00000000000E+00  0.00000000000E+00  0.34996269501E-01  0.35000000000E-01  0.51099999109E-03 0.  1.
       11   -1    0    0    0    0 -0.00000000000E+00 -0.00000000000E+00 -0.34996269501E-01  0.35000000000E-01  0.51099999109E-03 0. -1.
       22    1    1    2    0    0  0.12747639471E-01 -0.13829029665E-01 -0.27805424868E-01  0.33569123099E-01  0.00000000000E+00 0. -1.
       22    1    1    2    0    0 -0.12164929245E-01  0.12645076325E-01  0.13693734705E-01  0.22257624064E-01  0.00000000000E+00 0.  1.
       22    1    1    2    0    0 -0.58271022582E-03  0.11839533397E-02  0.14111690163E-01  0.14173252836E-01  0.00000000000E+00 0.  1.
</event>
<event>
 5   0  0.4146200E+04  0.9118800E+02  0.7546771E-02  0.1180000E+00
      -11   -1    0    0    0    0  0.00000000000E+00  0.00000000000E+00  0.34996269501E-01  0.35000000000E-01  0.51099999109E-03 0. -1.
       11   -1    0    0    0    0 -0.00000000000E+00 -0.00000000000E+00 -0.34996269501E-01  0.35000000000E-01  0.51099999109E-03 0.  1.
       22    1    1    2    0    0  0.30638972582E-02 -0.16168993548E-03  0.34830592060E-01  0.34965465152E-01  0.00000000000E+00 0. -1.
       22    1    1    2    0    0 -0.30449225962E-02  0.36247082645E-03 -0.34566488165E-01  0.34702233974E-01  0.00000000000E+00 0.  1.
       22    1    1    2    0    0 -0.18974662071E-04 -0.20078089098E-03 -0.26410389454E-03  0.33230087435E-03  0.00000000000E+00 0.  1.
</event>
<event>
 5   0  0.4146200E+04  0.9118800E+02  0.7546771E-02  0.1180000E+00
      -11   -1    0    0    0    0  0.00000000000E+00  0.00000000000E+00  0.34996269501E-01  0.35000000000E-01  0.51099999109E-03 0. -1.
       11   -1    0    0    0    0 -0.00000000000E+00 -0.00000000000E+00 -0.34996269501E-01  0.35000000000E-01  0.51099999109E-03 0.  1.
       22    1    1    2    0    0 -0.92699951881E-02 -0.10571930101E-01  0.28053177515E-01  0.31379599831E-01  0.00000000000E+00 0. -1.
       22    1    1    2    0    0 -0.31526433680E-03  0.28919110417E-02  0.36229589634E-02  0.46463289515E-02  0.00000000000E+00 0. -1.
       22    1    1    2    0    0  0.95852595249E-02  0.76800190589E-02 -0.31676136479E-01  0.33974071218E-01  0.00000000000E+00 0.  1.
</event>
<event>
 5   0  0.4146200E+04  0.9118800E+02  0.7546771E-02  0.1180000E+00
      -11   -1    0    0    0    0  0.00000000000E+00  0.00000000000E+00  0.34996269501E-01  0.35000000000E-01  0.51099999109E-03 0. -1.
       11   -1    0    0    0    0 -0.00000000000E+00 -0.00000000000E+00 -0.34996269501E-01  0.35000000000E-01  0.51099999109E-03 0.  1.
       22    1    1    2    0    0  0.91295489422E-02 -0.13964272948E-01  0.25054864936E-01  0.30101425877E-01  0.00000000000E+00 0. -1.
       22    1    1    2    0    0 -0.83667681168E-02  0.14644143296E-01 -0.30233755933E-01  0.34619846034E-01  0.00000000000E+00 0.  1.
       22    1    1    2    0    0 -0.76278082541E-03 -0.67987034805E-03  0.51788909975E-02  0.52787280894E-02  0.00000000000E+00 0. -1.
</event>
<event>
 5   0  0.4146200E+04  0.9118800E+02  0.7546771E-02  0.1180000E+00
      -11   -1    0    0    0    0  0.00000000000E+00  0.00000000000E+00  0.34996269501E-01  0.35000000000E-01  0.51099999109E-03 0. -1.
       11   -1    0    0    0    0 -0.00000000000E+00 -0.00000000000E+00 -0.34996269501E-01  0.35000000000E-01  0.51099999109E-03 0.  1.
       22    1    1    2    0    0  0.83512333613E-02 -0.85847127115E-02 -0.32675670257E-01  0.34801434133E-01  0.00000000000E+00 0.  1.
       22    1    1    2    0    0 -0.39463828706E-02  0.65311637133E-02  0.14512485518E-01  0.16396410373E-01  0.00000000000E+00 0. -1.
       22    1    1    2    0    0 -0.44048504907E-02  0.20535489981E-02  0.18163184739E-01  0.18802155493E-01  0.00000000000E+00 0. -1.
</event>
<event>
 5   0  0.4146200E+04  0.9118800E+02  0.7546771E-02  0.1180000E+00
      -11   -1    0    0    0    0  0.00000000000E+00  0.00000000000E+00  0.34996269501E-01  0.35000000000E-01  0.51099999109E-03 0. -1.
       11   -1    0    0    0    0 -0.00000000000E+00 -0.00000000000E+00 -0.34996269501E-01  0.35000000000E-01  0.51099999109E-03 0.  1.
       22    1    1    2    0    0  0.61236857811E-02 -0.17233068417E-01 -0.29749456153E-01  0.34921459248E-01  0.00000000000E+00 0.  1.
       22    1    1    2    0    0 -0.49725174117E-02  0.16421112137E-01  0.27024062446E-01  0.32010604560E-01  0.00000000000E+00 0. -1.
       22    1    1    2    0    0 -0.11511683695E-02  0.81195628032E-03  0.27253937073E-02  0.30679361916E-02  0.00000000000E+00 0. -1.
</event>
<event>
 5   0  0.4146200E+04  0.9118800E+02  0.7546771E-02  0.1180000E+00
      -11   -1    0    0    0    0  0.00000000000E+00  0.00000000000E+00  0.34996269501E-01  0.35000000000E-01  0.51099999109E-03 0. -1.
       11   -1    0    0    0    0 -0.00000000000E+00 -0.00000000000E+00 -0.34996269501E-01  0.35000000000E-01  0.51099999109E-03 0.  1.
       22    1    1    2    0    0 -0.37479420402E-02  0.20618376407E-01 -0.27315734493E-01  0.34428387504E-01  0.00000000000E+00 0.  1.
       22    1    1    2    0    0  0.57266526627E-02 -0.18797937871E-01  0.25964505991E-01  0.32562441405E-01  0.00000000000E+00 0. -1.
       22    1    1    2    0    0 -0.19787106225E-02 -0.18204385359E-02  0.13512285021E-02  0.30091710911E-02  0.00000000000E+00 0.  1.
</event>
<event>
 5   0  0.4146200E+04  0.9118800E+02  0.7546771E-02  0.1180000E+00
      -11   -1    0    0    0    0  0.00000000000E+00  0.00000000000E+00  0.34996269501E-01  0.35000000000E-01  0.51099999109E-03 0.  1.
       11   -1    0    0    0    0 -0.00000000000E+00 -0.00000000000E+00 -0.34996269501E-01  0.35000000000E-01  0.51099999109E-03 0. -1.
       22    1    1    2    0    0  0.89010512741E-02  0.11683684711E-01  0.30792162760E-01  0.34115897902E-01  0.00000000000E+00 0.  1.
       22    1    1    2    0    0 -0.36165407955E-03  0.16304222456E-03 -0.12367204498E-01  0.12373565514E-01  0.00000000000E+00 0.  1.
       22    1    1    2    0    0 -0.85393971945E-02 -0.11846726936E-01 -0.18424958262E-01  0.23510536584E-01  0.00000000000E+00 0. -1.
</event>
<event>
 5   0  0.4146200E+04  0.9118800E+02  0.7546771E-02  0.1180000E+00
      -11   -1    0    0    0    0  0.00000000000E+00  0.00000000000E+00  0.34996269501E-01  0.35000000000E-01  0.51099999109E-03 0.  1.
       11   -1    0    0    0    0 -0.00000000000E+00 -0.00000000000E+00 -0.34996269501E-01  0.35000000000E-01  0.51099999109E-03 0. -1.
       22    1    1    2    0    0  0.11866412701E-01 -0.12942573849E-01 -0.27531538929E-01  0.32654365773E-01  0.00000000000E+00 0. -1.
       22    1    1    2    0    0 -0.11364428246E-01  0.12134528567E-01  0.30221429449E-01  0.34492489194E-01  0.00000000000E+00 0.  1.
       22    1    1    2    0    0 -0.50198445529E-03  0.80804528179E-03 -0.26898905193E-02  0.28531450325E-02  0.00000000000E+00 0.  1.
</event>
<event>
 5   0  0.4146200E+04  0.9118800E+02  0.7546771E-02  0.1180000E+00
      -11   -1    0    0    0    0  0.00000000000E+00  0.00000000000E+00  0.34996269501E-01  0.35000000000E-01  0.51099999109E-03 0. -1.
       11   -1    0    0    0    0 -0.00000000000E+00 -0.00000000000E+00 -0.34996269501E-01  0.35000000000E-01  0.51099999109E-03 0.  1.
       22    1    1    2    0    0 -0.10191996189E-02 -0.19664931808E-03 -0.31049308301E-01  0.31066653904E-01  0.00000000000E+00 0.  1.
       22    1    1    2    0    0 -0.11702677882E-02  0.28671888384E-02 -0.32333787733E-02  0.44771683934E-02  0.00000000000E+00 0.  1.
       22    1    1    2    0    0  0.21894674071E-02 -0.26705395203E-02  0.34282687074E-01  0.34456177703E-01  0.00000000000E+00 0. -1.
</event>
<event>
 5   0  0.4146200E+04  0.9118800E+02  0.7546771E-02  0.1180000E+00
      -11   -1    0    0    0    0  0.00000000000E+00  0.00000000000E+00  0.34996269501E-01  0.35000000000E-01  0.51099999109E-03 0.  1.
       11   -1    0    0    0    0 -0.00000000000E+00 -0.00000000000E+00 -0.34996269501E-01  0.35000000000E-01  0.51099999109E-03 0.  1.
       22    1    1    2    0    0 -0.58274732107E-03 -0.61538284469E-03 -0.31561189312E-01  0.31572566594E-01  0.00000000000E+00 0.  1.
       22    1    1    2    0    0  0.16986873964E-02  0.36090580528E-03 -0.32034893853E-02  0.36439176874E-02  0.00000000000E+00 0. -1.
       22    1    1    2    0    0 -0.11159400753E-02  0.25447703941E-03  0.34764678698E-01  0.34783515719E-01  0.00000000000E+00 0.  1.
</event>
<event>
 5   0  0.4146200E+04  0.9118800E+02  0.7546771E-02  0.1180000E+00
      -11   -1    0    0    0    0  0.00000000000E+00  0.00000000000E+00  0.34996269501E-01  0.35000000000E-01  0.51099999109E-03 0. -1.
       11   -1    0    0    0    0 -0.00000000000E+00 -0.00000000000E+00 -0.34996269501E-01  0.35000000000E-01  0.51099999109E-03 0. -1.
       22    1    1    2    0    0  0.33281488055E-03 -0.63670684253E-03  0.33223826126E-01  0.33231593158E-01  0.00000000000E+00 0. -1.
       22    1    1    2    0    0  0.74866040826E-02  0.20777268735E-02 -0.17560770984E-01  0.19202782798E-01  0.00000000000E+00 0. -1.
       22    1    1    2    0    0 -0.78194189631E-02 -0.14410200309E-02 -0.15663055143E-01  0.17565624044E-01  0.00000000000E+00 0.  1.
</event>
<event>
 5   0  0.4146200E+04  0.9118800E+02  0.7546771E-02  0.1180000E+00
      -11   -1    0    0    0    0  0.00000000000E+00  0.00000000000E+00  0.34996269501E-01  0.35000000000E-01  0.51099999109E-03 0.  1.
       11   -1    0    0    0    0 -0.00000000000E+00 -0.00000000000E+00 -0.34996269501E-01  0.35000000000E-01  0.51099999109E-03 0. -1.
       22    1    1    2    0    0 -0.78753489071E-02 -0.35547389840E-02 -0.14201840951E-01  0.16623765399E-01  0.00000000000E+00 0.  1.
       22    1    1    2    0    0 -0.18817659075E-01  0.12963186114E-01  0.92100249879E-02  0.24636823000E-01  0.00000000000E+00 0.  1.
       22    1    1    2    0    0  0.26693007982E-01 -0.94084471298E-02  0.49918159634E-02  0.28739411600E-01  0.00000000000E+00 0. -1.
</event>
<event>
 5   0  0.4146200E+04  0.9118800E+02  0.7546771E-02  0.1180000E+00
      -11   -1    0    0    0    0  0.00000000000E+00  0.00000000000E+00  0.34996269501E-01  0.35000000000E-01  0.51099999109E-03 0.  1.
       11   -1    0    0    0    0 -0.00000000000E+00 -0.00000000000E+00 -0.34996269501E-01  0.35000000000E-01  0.51099999109E-03 0. -1.
       22    1    1    2    0    0  0.54764294563E-02 -0.13289041344E-01  0.31365766775E-01  0.34502191594E-01  0.00000000000E+00 0.  1.
       22    1    1    2    0    0  0.15475661712E-03 -0.12568780843E-04  0.49332049266E-03  0.51717762256E-03  0.00000000000E+00 0. -1.
       22    1    1    2    0    0 -0.56311860734E-02  0.13301610125E-01 -0.31859087267E-01  0.34980630783E-01  0.00000000000E+00 0. -1.
</event>
<event>
 5   0  0.4146200E+04  0.9118800E+02  0.7546771E-02  0.1180000E+00
      -11   -1    0    0    0    0  0.00000000000E+00  0.00000000000E+00  0.34996269501E-01  0.35000000000E-01  0.51099999109E-03 0.  1.
       11   -1    0    0    0    0 -0.00000000000E+00 -0.00000000000E+00 -0.34996269501E-01  0.35000000000E-01  0.51099999109E-03 0. -1.
       22    1    1    2    0    0  0.37783222635E-03 -0.30622045181E-02 -0.29978046906E-01  0.30136409043E-01  0.00000000000E+00 0. -1.
       22    1    1    2    0    0 -0.48815189922E-03  0.43720580773E-03  0.34568358481E-01  0.34574569401E-01  0.00000000000E+00 0.  1.
       22    1    1    2    0    0  0.11031967287E-03  0.26249987104E-02 -0.45903115751E-02  0.52890215556E-02  0.00000000000E+00 0.  1.
</event>
<event>
 5   0  0.4146200E+04  0.9118800E+02  0.7546771E-02  0.1180000E+00
      -11   -1    0    0    0    0  0.00000000000E+00  0.00000000000E+00  0.34996269501E-01  0.35000000000E-01  0.51099999109E-03 0. -1.
       11   -1    0    0    0    0 -0.00000000000E+00 -0.00000000000E+00 -0.34996269501E-01  0.35000000000E-01  0.51099999109E-03 0.  1.
       22    1    1    2    0    0 -0.24207474463E-02  0.25139031887E-03 -0.31193974939E-01  0.31288772552E-01  0.00000000000E+00 0.  1.
       22    1    1    2    0    0  0.11679034676E-02 -0.25060027541E-02 -0.31952775840E-02  0.42253813026E-02  0.00000000000E+00 0. -1.
       22    1    1    2    0    0  0.12528439787E-02  0.22546124352E-02  0.34389252523E-01  0.34485846146E-01  0.00000000000E+00 0. -1.
</event>
<event>
 5   0  0.4146200E+04  0.9118800E+02  0.7546771E-02  0.1180000E+00
      -11   -1    0    0    0    0  0.00000000000E+00  0.00000000000E+00  0.34996269501E-01  0.35000000000E-01  0.51099999109E-03 0.  1.
       11   -1    0    0    0    0 -0.00000000000E+00 -0.00000000000E+00 -0.34996269501E-01  0.35000000000E-01  0.51099999109E-03 0. -1.
       22    1    1    2    0    0  0.29554771240E-01  0.15901241497E-01  0.30787906900E-03  0.33562311805E-01  0.00000000000E+00 0.  1.
       22    1    1    2    0    0 -0.27797069277E-01 -0.12236829891E-01  0.38607896760E-02  0.30615727382E-01  0.00000000000E+00 0. -1.
       22    1    1    2    0    0 -0.17577019627E-02 -0.36644116057E-02 -0.41686687450E-02  0.58219608133E-02  0.00000000000E+00 0. -1.
</event>
<event>
 5   0  0.4146200E+04  0.9118800E+02  0.7546771E-02  0.1180000E+00
      -11   -1    0    0    0    0  0.00000000000E+00  0.00000000000E+00  0.34996269501E-01  0.35000000000E-01  0.51099999109E-03 0. -1.
       11   -1    0    0    0    0 -0.00000000000E+00 -0.00000000000E+00 -0.34996269501E-01  0.35000000000E-01  0.51099999109E-03 0.  1.
       22    1    1    2    0    0  0.94058063922E-02 -0.13125627991E-01  0.30115880317E-01  0.34171882467E-01  0.00000000000E+00 0. -1.
       22    1    1    2    0    0 -0.96443316152E-02  0.13646621221E-01 -0.21679614270E-01  0.27372414543E-01  0.00000000000E+00 0.  1.
       22    1    1    2    0    0  0.23852522301E-03 -0.52099322983E-03 -0.84362660474E-02  0.84557029897E-02  0.00000000000E+00 0. -1.
</event>
<event>
 5   0  0.4146200E+04  0.9118800E+02  0.7546771E-02  0.1180000E+00
      -11   -1    0    0    0    0  0.00000000000E+00  0.00000000000E+00  0.34996269501E-01  0.35000000000E-01  0.51099999109E-03 0.  1.
       11   -1    0    0    0    0 -0.00000000000E+00 -0.00000000000E+00 -0.34996269501E-01  0.35000000000E-01  0.51099999109E-03 0. -1.
       22    1    1    2    0    0 -0.84432058002E-02 -0.40597858366E-03 -0.13032783047E-01  0.15534026418E-01  0.00000000000E+00 0.  1.
       22    1    1    2    0    0 -0.20504451640E-03 -0.73598674386E-02  0.31662712892E-01  0.32507492669E-01  0.00000000000E+00 0.  1.
       22    1    1    2    0    0  0.86482503166E-02  0.77658460223E-02 -0.18629929844E-01  0.21958480913E-01  0.00000000000E+00 0. -1.
</event>
<event>
 5   0  0.4146200E+04  0.9118800E+02  0.7546771E-02  0.1180000E+00
      -11   -1    0    0    0    0  0.00000000000E+00  0.00000000000E+00  0.34996269501E-01  0.35000000000E-01  0.51099999109E-03 0.  1.
       11   -1    0    0    0    0 -0.00000000000E+00 -0.00000000000E+00 -0.34996269501E-01  0.35000000000E-01  0.51099999109E-03 0. -1.
       22    1    1    2    0    0  0.33394642184E-02  0.36233060974E-02 -0.85023848080E-02  0.98270502067E-02  0.00000000000E+00 0.  1.
       22    1    1    2    0    0 -0.10576702941E-01  0.88624669061E-02 -0.22262032852E-01  0.26191755792E-01  0.00000000000E+00 0. -1.
       22    1    1    2    0    0  0.72372387227E-02 -0.12485773003E-01  0.30764417660E-01  0.33981194001E-01  0.00000000000E+00 0.  1.
</event>
<event>
 5   0  0.4146200E+04  0.9118800E+02  0.7546771E-02  0.1180000E+00
      -11   -1    0    0    0    0  0.00000000000E+00  0.00000000000E+00  0.34996269501E-01  0.35000000000E-01  0.51099999109E-03 0. -1.
       11   -1    0    0    0    0 -0.00000000000E+00 -0.00000000000E+00 -0.34996269501E-01  0.35000000000E-01  0.51099999109E-03 0.  1.
       22    1    1    2    0    0 -0.11053113041E-03  0.96122972400E-03 -0.20501402963E-01  0.20524222352E-01  0.00000000000E+00 0.  1.
       22    1    1    2    0    0 -0.56682619990E-02 -0.18677445046E-02  0.34128443607E-01  0.34646332081E-01  0.00000000000E+00 0. -1.
       22    1    1    2    0    0  0.57787931294E-02  0.90651478063E-03 -0.13627040645E-01  0.14829445567E-01  0.00000000000E+00 0.  1.
</event>
<event>
 5   0  0.4146200E+04  0.9118800E+02  0.7546771E-02  0.1180000E+00
      -11   -1    0    0    0    0  0.00000000000E+00  0.00000000000E+00  0.34996269501E-01  0.35000000000E-01  0.51099999109E-03 0.  1.
       11   -1    0    0    0    0 -0.00000000000E+00 -0.00000000000E+00 -0.34996269501E-01  0.35000000000E-01  0.51099999109E-03 0.  1.
       22    1    1    2    0    0  0.12232410188E-03  0.13565936721E-02  0.34680818114E-01  0.34707556160E-01  0.00000000000E+00 0.  1.
       22    1    1    2    0    0  0.20105929780E-04  0.10807288541E-03 -0.33215703236E-01  0.33215885137E-01  0.00000000000E+00 0.  1.
       22    1    1    2    0    0 -0.14243003166E-03 -0.14646665575E-02 -0.14651148781E-02  0.20765587024E-02  0.00000000000E+00 0. -1.
</event>
<event>
 5   0  0.4146200E+04  0.9118800E+02  0.7546771E-02  0.1180000E+00
      -11   -1    0    0    0    0  0.00000000000E+00  0.00000000000E+00  0.34996269501E-01  0.35000000000E-01  0.51099999109E-03 0. -1.
       11   -1    0    0    0    0 -0.00000000000E+00 -0.00000000000E+00 -0.34996269501E-01  0.35000000000E-01  0.51099999109E-03 0.  1.
       22    1    1    2    0    0  0.28573462936E-03 -0.14020171411E-03  0.15696128846E-03  0.35487694364E-03  0.00000000000E+00 0. -1.
       22    1    1    2    0    0 -0.22478774786E-01  0.85694745706E-02 -0.25405831279E-01  0.34988390549E-01  0.00000000000E+00 0.  1.
       22    1    1    2    0    0  0.22193040156E-01 -0.84292728565E-02  0.25248869990E-01  0.34656732507E-01  0.00000000000E+00 0. -1.
</event>
<event>
 5   0  0.4146200E+04  0.9118800E+02  0.7546771E-02  0.1180000E+00
      -11   -1    0    0    0    0  0.00000000000E+00  0.00000000000E+00  0.34996269501E-01  0.35000000000E-01  0.51099999109E-03 0.  1.
       11   -1    0    0    0    0 -0.00000000000E+00 -0.00000000000E+00 -0.34996269501E-01  0.35000000000E-01  0.51099999109E-03 0. -1.
       22    1    1    2    0    0 -0.37538371284E-02  0.26731669014E-04 -0.92741530199E-02  0.10005094802E-01  0.00000000000E+00 0. -1.
       22    1    1    2    0    0  0.43964993984E-03 -0.53512419607E-03 -0.25274471946E-01  0.25283958989E-01  0.00000000000E+00 0.  1.
       22    1    1    2    0    0  0.33141871886E-02  0.50839252706E-03  0.34548624966E-01  0.34710946209E-01  0.00000000000E+00 0.  1.
</event>
<event>
 5   0  0.4146200E+04  0.9118800E+02  0.7546771E-02  0.1180000E+00
      -11   -1    0    0    0    0  0.00000000000E+00  0.00000000000E+00  0.34996269501E-01  0.35000000000E-01  0.51099999109E-03 0. -1.
       11   -1    0    0    0    0 -0.00000000000E+00 -0.00000000000E+00 -0.34996269501E-01  0.35000000000E-01  0.51099999109E-03 0.  1.
       22    1    1    2    0    0  0.69241305133E-02 -0.46186246086E-02  0.30881436583E-01  0.31983408231E-01  0.00000000000E+00 0. -1.
       22    1    1    2    0    0  0.50907135253E-02  0.81674434074E-02 -0.14219686287E-01  0.17170380721E-01  0.00000000000E+00 0.  1.
       22    1    1    2    0    0 -0.12014844039E-01 -0.35488187988E-02 -0.16661750295E-01  0.20846211048E-01  0.00000000000E+00 0.  1.
</event>
<event>
 5   0  0.4146200E+04  0.9118800E+02  0.7546771E-02  0.1180000E+00
      -11   -1    0    0    0    0  0.00000000000E+00  0.00000000000E+00  0.34996269501E-01  0.35000000000E-01  0.51099999109E-03 0.  1.
       11   -1    0    0    0    0 -0.00000000000E+00 -0.00000000000E+00 -0.34996269501E-01  0.35000000000E-01  0.51099999109E-03 0. -1.
       22    1    1    2    0    0  0.15736249242E-01  0.14298971314E-01 -0.26741611237E-01  0.34164365828E-01  0.00000000000E+00 0. -1.
       22    1    1    2    0    0 -0.12588367537E-01 -0.15062019712E-01  0.18472848906E-01  0.26955103074E-01  0.00000000000E+00 0.  1.
       22    1    1    2    0    0 -0.31478817051E-02  0.76304839748E-03  0.82687623315E-02  0.88805310979E-02  0.00000000000E+00 0.  1.
</event>
<event>
 5   0  0.4146200E+04  0.9118800E+02  0.7546771E-02  0.1180000E+00
      -11   -1    0    0    0    0  0.00000000000E+00  0.00000000000E+00  0.34996269501E-01  0.35000000000E-01  0.51099999109E-03 0.  1.
       11   -1    0    0    0    0 -0.00000000000E+00 -0.00000000000E+00 -0.34996269501E-01  0.35000000000E-01  0.51099999109E-03 0. -1.
       22    1    1    2    0    0 -0.22334428212E-01 -0.37205840035E-02  0.26396689206E-01  0.34777214235E-01  0.00000000000E+00 0.  1.
       22    1    1    2    0    0  0.54790959655E-03 -0.10484460700E-03  0.23294097291E-03  0.60453189698E-03  0.00000000000E+00 0. -1.
       22    1    1    2    0    0  0.21786518615E-01  0.38254286105E-02 -0.26629630179E-01  0.34618253868E-01  0.00000000000E+00 0. -1.
</event>
<event>
 5   0  0.4146200E+04  0.9118800E+02  0.7546771E-02  0.1180000E+00
      -11   -1    0    0    0    0  0.00000000000E+00  0.00000000000E+00  0.34996269501E-01  0.35000000000E-01  0.51099999109E-03 0.  1.
       11   -1    0    0    0    0 -0.00000000000E+00 -0.00000000000E+00 -0.34996269501E-01  0.35000000000E-01  0.51099999109E-03 0. -1.
       22    1    1    2    0    0 -0.15824450099E-01  0.97427464926E-02 -0.29597501054E-01  0.34947766722E-01  0.00000000000E+00 0. -1.
       22    1    1    2    0    0 -0.34975050566E-05 -0.12716563858E-04  0.68205151602E-03  0.68217901906E-03  0.00000000000E+00 0.  1.
       22    1    1    2    0    0  0.15827947604E-01 -0.97300299287E-02  0.28915449538E-01  0.34370054259E-01  0.00000000000E+00 0.  1.
</event>
<event>
 5   0  0.4146200E+04  0.9118800E+02  0.7546771E-02  0.1180000E+00
      -11   -1    0    0    0    0  0.00000000000E+00  0.00000000000E+00  0.34996269501E-01  0.35000000000E-01  0.51099999109E-03 0. -1.
       11   -1    0    0    0    0 -0.00000000000E+00 -0.00000000000E+00 -0.34996269501E-01  0.35000000000E-01  0.51099999109E-03 0.  1.
       22    1    1    2    0    0  0.85720155474E-02 -0.10176522264E-01 -0.32347878672E-01  0.34977511497E-01  0.00000000000E+00 0.  1.
       22    1    1    2    0    0 -0.35878344896E-06 -0.92108611869E-05  0.55366916769E-03  0.55374589474E-03  0.00000000000E+00 0. -1.
       22    1    1    2    0    0 -0.85716567640E-02  0.10185733125E-01  0.31794209505E-01  0.34468742608E-01  0.00000000000E+00 0. -1.
</event>
<event>
 5   0  0.4146200E+04  0.9118800E+02  0.7546771E-02  0.1180000E+00
      -11   -1    0    0    0    0  0.00000000000E+00  0.00000000000E+00  0.34996269501E-01  0.35000000000E-01  0.51099999109E-03 0. -1.
       11   -1    0    0    0    0 -0.00000000000E+00 -0.00000000000E+00 -0.34996269501E-01  0.35000000000E-01  0.51099999109E-03 0.  1.
       22    1    1    2    0    0  0.16548983094E-01 -0.38616440959E-02 -0.26129841483E-01  0.31169692852E-01  0.00000000000E+00 0.  1.
       22    1    1    2    0    0 -0.88975672726E-02 -0.26558964920E-02  0.27182149752E-01  0.28724375618E-01  0.00000000000E+00 0. -1.
       22    1    1    2    0    0 -0.76514158215E-02  0.65175405880E-02 -0.10523082689E-02  0.10105931530E-01  0.00000000000E+00 0. -1.
</event>
<event>
 5   0  0.4146200E+04  0.9118800E+02  0.7546771E-02  0.1180000E+00
      -11   -1    0    0    0    0  0.00000000000E+00  0.00000000000E+00  0.34996269501E-01  0.35000000000E-01  0.51099999109E-03 0.  1.
       11   -1    0    0    0    0 -0.00000000000E+00 -0.00000000000E+00 -0.34996269501E-01  0.35000000000E-01  0.51099999109E-03 0. -1.
       22    1    1    2    0    0 -0.11233238844E-01 -0.19699539758E-01 -0.26477499988E-01  0.34861375865E-01  0.00000000000E+00 0. -1.
       22    1    1    2    0    0  0.47260583116E-03 -0.53277083024E-04  0.12538445561E-03  0.49184955111E-03  0.00000000000E+00 0.  1.
       22    1    1    2    0    0  0.10760633013E-01  0.19752816841E-01  0.26352115533E-01  0.34646774583E-01  0.00000000000E+00 0.  1.
</event>
<event>
 5   0  0.4146200E+04  0.9118800E+02  0.7546771E-02  0.1180000E+00
      -11   -1    0    0    0    0  0.00000000000E+00  0.00000000000E+00  0.34996269501E-01  0.35000000000E-01  0.51099999109E-03 0.  1.
       11   -1    0    0    0    0 -0.00000000000E+00 -0.00000000000E+00 -0.34996269501E-01  0.35000000000E-01  0.51099999109E-03 0. -1.
       22    1    1    2    0    0  0.11749914987E-01  0.37949974125E-02 -0.62097486879E-02  0.13821124640E-01  0.00000000000E+00 0.  1.
       22    1    1    2    0    0 -0.10337704078E-03 -0.44059393198E-03  0.29722641833E-01  0.29726086983E-01  0.00000000000E+00 0.  1.
       22    1    1    2    0    0 -0.11646537946E-01 -0.33544034805E-02 -0.23512893145E-01  0.26452788376E-01  0.00000000000E+00 0. -1.
</event>
<event>
 5   0  0.4146200E+04  0.9118800E+02  0.7546771E-02  0.1180000E+00
      -11   -1    0    0    0    0  0.00000000000E+00  0.00000000000E+00  0.34996269501E-01  0.35000000000E-01  0.51099999109E-03 0. -1.
       11   -1    0    0    0    0 -0.00000000000E+00 -0.00000000000E+00 -0.34996269501E-01  0.35000000000E-01  0.51099999109E-03 0.  1.
       22    1    1    2    0    0 -0.53472824132E-02 -0.37425798980E-02  0.34116864940E-01  0.34735584159E-01  0.00000000000E+00 0. -1.
       22    1    1    2    0    0  0.23247307415E-03  0.16665042578E-02 -0.17406134453E-02  0.24209533943E-02  0.00000000000E+00 0. -1.
       22    1    1    2    0    0  0.51148093390E-02  0.20760756402E-02 -0.32376251495E-01  0.32843462447E-01  0.00000000000E+00 0.  1.
</event>
<event>
 5   0  0.4146200E+04  0.9118800E+02  0.7546771E-02  0.1180000E+00
      -11   -1    0    0    0    0  0.00000000000E+00  0.00000000000E+00  0.34996269501E-01  0.35000000000E-01  0.51099999109E-03 0.  1.
       11   -1    0    0    0    0 -0.00000000000E+00 -0.00000000000E+00 -0.34996269501E-01  0.35000000000E-01  0.51099999109E-03 0. -1.
       22    1    1    2    0    0 -0.27080352010E-02 -0.12024397540E-01  0.10622070755E-01  0.16271077960E-01  0.00000000000E+00 0.  1.
       22    1    1    2    0    0  0.24245124567E-02  0.13197749089E-01 -0.30757597580E-01  0.33557244382E-01  0.00000000000E+00 0. -1.
       22    1    1    2    0    0  0.28352274432E-03 -0.11733515485E-02  0.20135526825E-01  0.20171677658E-01  0.00000000000E+00 0.  1.
</event>
<event>
 5   0  0.4146200E+04  0.9118800E+02  0.7546771E-02  0.1180000E+00
      -11   -1    0    0    0    0  0.00000000000E+00  0.00000000000E+00  0.34996269501E-01  0.35000000000E-01  0.51099999109E-03 0. -1.
       11   -1    0    0    0    0 -0.00000000000E+00 -0.00000000000E+00 -0.34996269501E-01  0.35000000000E-01  0.51099999109E-03 0.  1.
       22    1    1    2    0    0 -0.30604562529E-03  0.11817552183E-03 -0.38173146408E-03  0.50333715280E-03  0.00000000000E+00 0.  1.
       22    1    1    2    0    0 -0.63373073976E-02 -0.65382536986E-02  0.33706637465E-01  0.34914862675E-01  0.00000000000E+00 0. -1.
       22    1    1    2    0    0  0.66433530229E-02  0.64200781768E-02 -0.33324906000E-01  0.34581800172E-01  0.00000000000E+00 0.  1.
</event>
<event>
 5   0  0.4146200E+04  0.9118800E+02  0.7546771E-02  0.1180000E+00
      -11   -1    0    0    0    0  0.00000000000E+00  0.00000000000E+00  0.34996269501E-01  0.35000000000E-01  0.51099999109E-03 0.  1.
       11   -1    0    0    0    0 -0.00000000000E+00 -0.00000000000E+00 -0.34996269501E-01  0.35000000000E-01  0.51099999109E-03 0. -1.
       22    1    1    2    0    0  0.11699465166E-02 -0.24648025419E-02 -0.52830584903E-02  0.59459846480E-02  0.00000000000E+00 0.  1.
       22    1    1    2    0    0 -0.17422845427E-01  0.25833444990E-01 -0.86840038504E-02  0.32347091766E-01  0.00000000000E+00 0. -1.
       22    1    1    2    0    0  0.16252898911E-01 -0.23368642448E-01  0.13967062341E-01  0.31706923586E-01  0.00000000000E+00 0.  1.
</event>
<event>
 5   0  0.4146200E+04  0.9118800E+02  0.7546771E-02  0.1180000E+00
      -11   -1    0    0    0    0  0.00000000000E+00  0.00000000000E+00  0.34996269501E-01  0.35000000000E-01  0.51099999109E-03 0. -1.
       11   -1    0    0    0    0 -0.00000000000E+00 -0.00000000000E+00 -0.34996269501E-01  0.35000000000E-01  0.51099999109E-03 0.  1.
       22    1    1    2    0    0  0.44419418612E-02 -0.19378164828E-01 -0.23354517987E-01  0.30670468369E-01  0.00000000000E+00 0.  1.
       22    1    1    2    0    0 -0.41349053662E-02  0.17816247028E-01  0.28544238519E-01  0.33901174805E-01  0.00000000000E+00 0. -1.
       22    1    1    2    0    0 -0.30703649505E-03  0.15619178001E-02 -0.51897205321E-02  0.54283568255E-02  0.00000000000E+00 0.  1.
</event>
<event>
 5   0  0.4146200E+04  0.9118800E+02  0.7546771E-02  0.1180000E+00
      -11   -1    0    0    0    0  0.00000000000E+00  0.00000000000E+00  0.34996269501E-01  0.35000000000E-01  0.51099999109E-03 0. -1.
       11   -1    0    0    0    0 -0.00000000000E+00 -0.00000000000E+00 -0.34996269501E-01  0.35000000000E-01  0.51099999109E-03 0. -1.
       22    1    1    2    0    0  0.10001646343E-02  0.96008593092E-03 -0.15349131618E-02  0.20683454026E-02  0.00000000000E+00 0.  1.
       22    1    1    2    0    0 -0.10001646343E-02 -0.96008593092E-03 -0.33185141307E-01  0.33214088846E-01  0.00000000000E+00 0. -1.
       22    1    1    2    0    0  0.00000000000E+00  0.00000000000E+00  0.34720054469E-01  0.34717565751E-01  0.00000000000E+00 0. -1.
</event>
<event>
 5   0  0.4146200E+04  0.9118800E+02  0.7546771E-02  0.1180000E+00
      -11   -1    0    0    0    0  0.00000000000E+00  0.00000000000E+00  0.34996269501E-01  0.35000000000E-01  0.51099999109E-03 0.  1.
       11   -1    0    0    0    0 -0.00000000000E+00 -0.00000000000E+00 -0.34996269501E-01  0.35000000000E-01  0.51099999109E-03 0. -1.
       22    1    1    2    0    0  0.86851461455E-02  0.13223406575E-01 -0.31073219764E-01  0.34868828938E-01  0.00000000000E+00 0. -1.
       22    1    1    2    0    0  0.18595326117E-04  0.15796774807E-03  0.16415964391E-02  0.16492842279E-02  0.00000000000E+00 0.  1.
       22    1    1    2    0    0 -0.87037414716E-02 -0.13381374323E-01  0.29431623325E-01  0.33481886834E-01  0.00000000000E+00 0.  1.
</event>
<event>
 5   0  0.4146200E+04  0.9118800E+02  0.7546771E-02  0.1180000E+00
      -11   -1    0    0    0    0  0.00000000000E+00  0.00000000000E+00  0.34996269501E-01  0.35000000000E-01  0.51099999109E-03 0.  1.
       11   -1    0    0    0    0 -0.00000000000E+00 -0.00000000000E+00 -0.34996269501E-01  0.35000000000E-01  0.51099999109E-03 0. -1.
       22    1    1    2    0    0 -0.47330978582E-03  0.11433934732E-02  0.34772763426E-01  0.34794776147E-01  0.00000000000E+00 0.  1.
       22    1    1    2    0    0 -0.19054050737E-02 -0.18957309730E-03 -0.55644817392E-02  0.58847228890E-02  0.00000000000E+00 0.  1.
       22    1    1    2    0    0  0.23787148595E-02 -0.95382037589E-03 -0.29208281687E-01  0.29320500964E-01  0.00000000000E+00 0. -1.
</event>
<event>
 5   0  0.4146200E+04  0.9118800E+02  0.7546771E-02  0.1180000E+00
      -11   -1    0    0    0    0  0.00000000000E+00  0.00000000000E+00  0.34996269501E-01  0.35000000000E-01  0.51099999109E-03 0. -1.
       11   -1    0    0    0    0 -0.00000000000E+00 -0.00000000000E+00 -0.34996269501E-01  0.35000000000E-01  0.51099999109E-03 0.  1.
       22    1    1    2    0    0  0.46393177691E-03  0.19158541148E-03 -0.48896538692E-05  0.50195773949E-03  0.00000000000E+00 0.  1.
       22    1    1    2    0    0  0.14372960073E-01  0.87568936175E-02  0.30264168281E-01  0.34629251347E-01  0.00000000000E+00 0. -1.
       22    1    1    2    0    0 -0.14836891850E-01 -0.89484790290E-02 -0.30259278627E-01  0.34868790913E-01  0.00000000000E+00 0.  1.
</event>
<event>
 5   0  0.4146200E+04  0.9118800E+02  0.7546771E-02  0.1180000E+00
      -11   -1    0    0    0    0  0.00000000000E+00  0.00000000000E+00  0.34996269501E-01  0.35000000000E-01  0.51099999109E-03 0.  1.
       11   -1    0    0    0    0 -0.00000000000E+00 -0.00000000000E+00 -0.34996269501E-01  0.35000000000E-01  0.51099999109E-03 0. -1.
       22    1    1    2    0    0 -0.11067661385E-01 -0.15050457129E-01 -0.24416305201E-01  0.30743541566E-01  0.00000000000E+00 0. -1.
       22    1    1    2    0    0  0.10474744027E-01  0.14590269485E-01  0.29272018002E-01  0.34343081748E-01  0.00000000000E+00 0.  1.
       22    1    1    2    0    0  0.59291735813E-03  0.46018764439E-03 -0.48557128001E-02  0.49133766861E-02  0.00000000000E+00 0. -1.
</event>
<event>
 5   0  0.4146200E+04  0.9118800E+02  0.7546771E-02  0.1180000E+00
      -11   -1    0    0    0    0  0.00000000000E+00  0.00000000000E+00  0.34996269501E-01  0.35000000000E-01  0.51099999109E-03 0. -1.
       11   -1    0    0    0    0 -0.00000000000E+00 -0.00000000000E+00 -0.34996269501E-01  0.35000000000E-01  0.51099999109E-03 0.  1.
       22    1    1    2    0    0  0.89944305353E-02 -0.17180686307E-01 -0.29085403863E-01  0.34957638371E-01  0.00000000000E+00 0.  1.
       22    1    1    2    0    0 -0.90895239288E-02  0.17058792248E-01  0.28497146192E-01  0.34434128119E-01  0.00000000000E+00 0. -1.
       22    1    1    2    0    0  0.95093393484E-04  0.12189405904E-03  0.58825767087E-03  0.60823350981E-03  0.00000000000E+00 0.  1.
</event>
<event>
 5   0  0.4146200E+04  0.9118800E+02  0.7546771E-02  0.1180000E+00
      -11   -1    0    0    0    0  0.00000000000E+00  0.00000000000E+00  0.34996269501E-01  0.35000000000E-01  0.51099999109E-03 0.  1.
       11   -1    0    0    0    0 -0.00000000000E+00 -0.00000000000E+00 -0.34996269501E-01  0.35000000000E-01  0.51099999109E-03 0. -1.
       22    1    1    2    0    0 -0.15427535945E-01  0.11442441958E-01 -0.29223402130E-01  0.34970638761E-01  0.00000000000E+00 0. -1.
       22    1    1    2    0    0  0.46154832106E-05 -0.11105336546E-03  0.51335965893E-03  0.52525450220E-03  0.00000000000E+00 0. -1.
       22    1    1    2    0    0  0.15422920462E-01 -0.11331388593E-01  0.28710042471E-01  0.34504106737E-01  0.00000000000E+00 0.  1.
</event>
<event>
 5   0  0.4146200E+04  0.9118800E+02  0.7546771E-02  0.1180000E+00
      -11   -1    0    0    0    0  0.00000000000E+00  0.00000000000E+00  0.34996269501E-01  0.35000000000E-01  0.51099999109E-03 0.  1.
       11   -1    0    0    0    0 -0.00000000000E+00 -0.00000000000E+00 -0.34996269501E-01  0.35000000000E-01  0.51099999109E-03 0. -1.
       22    1    1    2    0    0 -0.14776188728E-04 -0.53432570949E-04  0.34997926103E-03  0.35434285451E-03  0.00000000000E+00 0. -1.
       22    1    1    2    0    0  0.70201771753E-02 -0.15107966946E-01  0.30392754163E-01  0.34659097773E-01  0.00000000000E+00 0.  1.
       22    1    1    2    0    0 -0.70054009865E-02  0.15161399517E-01 -0.30742733424E-01  0.34986559372E-01  0.00000000000E+00 0. -1.
</event>
<event>
 5   0  0.4146200E+04  0.9118800E+02  0.7546771E-02  0.1180000E+00
      -11   -1    0    0    0    0  0.00000000000E+00  0.00000000000E+00  0.34996269501E-01  0.35000000000E-01  0.51099999109E-03 0. -1.
       11   -1    0    0    0    0 -0.00000000000E+00 -0.00000000000E+00 -0.34996269501E-01  0.35000000000E-01  0.51099999109E-03 0.  1.
       22    1    1    2    0    0  0.12181467638E-01 -0.85568688621E-02  0.23697313678E-01  0.27985189549E-01  0.00000000000E+00 0. -1.
       22    1    1    2    0    0  0.10756850484E-03 -0.11249358598E-03  0.74369133348E-02  0.74385419095E-02  0.00000000000E+00 0. -1.
       22    1    1    2    0    0 -0.12289036143E-01  0.86693624480E-02 -0.31134227013E-01  0.34576268542E-01  0.00000000000E+00 0.  1.
</event>
<event>
 5   0  0.4146200E+04  0.9118800E+02  0.7546771E-02  0.1180000E+00
      -11   -1    0    0    0    0  0.00000000000E+00  0.00000000000E+00  0.34996269501E-01  0.35000000000E-01  0.51099999109E-03 0. -1.
       11   -1    0    0    0    0 -0.00000000000E+00 -0.00000000000E+00 -0.34996269501E-01  0.35000000000E-01  0.51099999109E-03 0.  1.
       22    1    1    2    0    0  0.12671377883E-01 -0.18453148438E-02 -0.29791710610E-01  0.32427072415E-01  0.00000000000E+00 0.  1.
       22    1    1    2    0    0 -0.11066154605E-03  0.17822529073E-03 -0.26947326643E-02  0.27028863024E-02  0.00000000000E+00 0. -1.
       22    1    1    2    0    0 -0.12560716337E-01  0.16670895530E-02  0.32486443274E-01  0.34870041283E-01  0.00000000000E+00 0. -1.
</event>
<event>
 5   0  0.4146200E+04  0.9118800E+02  0.7546771E-02  0.1180000E+00
      -11   -1    0    0    0    0  0.00000000000E+00  0.00000000000E+00  0.34996269501E-01  0.35000000000E-01  0.51099999109E-03 0.  1.
       11   -1    0    0    0    0 -0.00000000000E+00 -0.00000000000E+00 -0.34996269501E-01  0.35000000000E-01  0.51099999109E-03 0. -1.
       22    1    1    2    0    0 -0.16312945008E-02  0.82043995683E-02  0.32464973173E-01  0.33525330381E-01  0.00000000000E+00 0.  1.
       22    1    1    2    0    0  0.20195200370E-02  0.38013550840E-02 -0.57438111104E-02  0.71777522754E-02  0.00000000000E+00 0. -1.
       22    1    1    2    0    0 -0.38822553623E-03 -0.12005754652E-01 -0.26721162063E-01  0.29296917343E-01  0.00000000000E+00 0. -1.
</event>
<event>
 5   0  0.4146200E+04  0.9118800E+02  0.7546771E-02  0.1180000E+00
      -11   -1    0    0    0    0  0.00000000000E+00  0.00000000000E+00  0.34996269501E-01  0.35000000000E-01  0.51099999109E-03 0.  1.
       11   -1    0    0    0    0 -0.00000000000E+00 -0.00000000000E+00 -0.34996269501E-01  0.35000000000E-01  0.51099999109E-03 0.  1.
       22    1    1    2    0    0 -0.67075263311E-02 -0.76609027724E-02 -0.25840287819E-01  0.27774103322E-01  0.00000000000E+00 0.  1.
       22    1    1    2    0    0  0.65950925253E-02  0.83218166510E-02 -0.47471339371E-02  0.11631128854E-01  0.00000000000E+00 0. -1.
       22    1    1    2    0    0  0.11243380578E-03 -0.66091387867E-03  0.30587421756E-01  0.30594767824E-01  0.00000000000E+00 0.  1.
</event>
<event>
 5   0  0.4146200E+04  0.9118800E+02  0.7546771E-02  0.1180000E+00
      -11   -1    0    0    0    0  0.00000000000E+00  0.00000000000E+00  0.34996269501E-01  0.35000000000E-01  0.51099999109E-03 0.  1.
       11   -1    0    0    0    0 -0.00000000000E+00 -0.00000000000E+00 -0.34996269501E-01  0.35000000000E-01  0.51099999109E-03 0. -1.
       22    1    1    2    0    0  0.16575061730E-03  0.64914490288E-04 -0.32087147668E-03  0.36694095265E-03  0.00000000000E+00 0.  1.
       22    1    1    2    0    0  0.73650017788E-02  0.31435085814E-01 -0.12742714043E-01  0.34710007671E-01  0.00000000000E+00 0.  1.
       22    1    1    2    0    0 -0.75307523960E-02 -0.31500000304E-01  0.13063585520E-01  0.34923051376E-01  0.00000000000E+00 0. -1.
</event>
<event>
 5   0  0.4146200E+04  0.9118800E+02  0.7546771E-02  0.1180000E+00
      -11   -1    0    0    0    0  0.00000000000E+00  0.00000000000E+00  0.34996269501E-01  0.35000000000E-01  0.51099999109E-03 0.  1.
       11   -1    0    0    0    0 -0.00000000000E+00 -0.00000000000E+00 -0.34996269501E-01  0.35000000000E-01  0.51099999109E-03 0. -1.
       22    1    1    2    0    0  0.12279371502E-01  0.16777125435E-01 -0.27263892979E-01  0.34286655753E-01  0.00000000000E+00 0.  1.
       22    1    1    2    0    0 -0.96847651544E-02 -0.13885748835E-01  0.26936356571E-01  0.31814713610E-01  0.00000000000E+00 0. -1.
       22    1    1    2    0    0 -0.25946063479E-02 -0.28913766000E-02  0.32753640809E-03  0.38986306368E-02  0.00000000000E+00 0. -1.
</event>
<event>
 5   0  0.4146200E+04  0.9118800E+02  0.7546771E-02  0.1180000E+00
      -11   -1    0    0    0    0  0.00000000000E+00  0.00000000000E+00  0.34996269501E-01  0.35000000000E-01  0.51099999109E-03 0.  1.
       11   -1    0    0    0    0 -0.00000000000E+00 -0.00000000000E+00 -0.34996269501E-01  0.35000000000E-01  0.51099999109E-03 0. -1.
       22    1    1    2    0    0 -0.65582016796E-03  0.13643303653E-04 -0.15289874555E-01  0.15303939040E-01  0.00000000000E+00 0.  1.
       22    1    1    2    0    0  0.94245951609E-02  0.59356202295E-02  0.32572170116E-01  0.34423841266E-01  0.00000000000E+00 0.  1.
       22    1    1    2    0    0 -0.87687749929E-02 -0.59492635331E-02 -0.17282295561E-01  0.20272219694E-01  0.00000000000E+00 0. -1.
</event>
<event>
 5   0  0.4146200E+04  0.9118800E+02  0.7546771E-02  0.1180000E+00
      -11   -1    0    0    0    0  0.00000000000E+00  0.00000000000E+00  0.34996269501E-01  0.35000000000E-01  0.51099999109E-03 0.  1.
       11   -1    0    0    0    0 -0.00000000000E+00 -0.00000000000E+00 -0.34996269501E-01  0.35000000000E-01  0.51099999109E-03 0. -1.
       22    1    1    2    0    0 -0.29280403325E-02  0.14714632483E-02 -0.25441752259E-01  0.25651927458E-01  0.00000000000E+00 0. -1.
       22    1    1    2    0    0 -0.35531217914E-02  0.19118527419E-02 -0.86162520440E-02  0.95141817650E-02  0.00000000000E+00 0. -1.
       22    1    1    2    0    0  0.64811621239E-02 -0.33833159902E-02  0.34058004303E-01  0.34833890777E-01  0.00000000000E+00 0.  1.
</event>
<event>
 5   0  0.4146200E+04  0.9118800E+02  0.7546771E-02  0.1180000E+00
      -11   -1    0    0    0    0  0.00000000000E+00  0.00000000000E+00  0.34996269501E-01  0.35000000000E-01  0.51099999109E-03 0. -1.
       11   -1    0    0    0    0 -0.00000000000E+00 -0.00000000000E+00 -0.34996269501E-01  0.35000000000E-01  0.51099999109E-03 0.  1.
       22    1    1    2    0    0 -0.20095485948E-01 -0.43353832439E-02 -0.28149136341E-01  0.34856821141E-01  0.00000000000E+00 0.  1.
       22    1    1    2    0    0  0.10811298081E-02  0.52370157344E-03  0.39709121588E-02  0.41486441608E-02  0.00000000000E+00 0. -1.
       22    1    1    2    0    0  0.19014356140E-01  0.38116816705E-02  0.24178224182E-01  0.30994534698E-01  0.00000000000E+00 0. -1.
</event>
<event>
 5   0  0.4146200E+04  0.9118800E+02  0.7546771E-02  0.1180000E+00
      -11   -1    0    0    0    0  0.00000000000E+00  0.00000000000E+00  0.34996269501E-01  0.35000000000E-01  0.51099999109E-03 0. -1.
       11   -1    0    0    0    0 -0.00000000000E+00 -0.00000000000E+00 -0.34996269501E-01  0.35000000000E-01  0.51099999109E-03 0.  1.
       22    1    1    2    0    0 -0.52200731872E-04 -0.13073553238E-03 -0.47451928746E-03  0.49495984686E-03  0.00000000000E+00 0.  1.
       22    1    1    2    0    0 -0.57379432281E-02  0.15201295857E-01 -0.30509941848E-01  0.34566746156E-01  0.00000000000E+00 0.  1.
       22    1    1    2    0    0  0.57901439599E-02 -0.15070560324E-01  0.30984461136E-01  0.34938293997E-01  0.00000000000E+00 0. -1.
</event>
<event>
 5   0  0.4146200E+04  0.9118800E+02  0.7546771E-02  0.1180000E+00
      -11   -1    0    0    0    0  0.00000000000E+00  0.00000000000E+00  0.34996269501E-01  0.35000000000E-01  0.51099999109E-03 0.  1.
       11   -1    0    0    0    0 -0.00000000000E+00 -0.00000000000E+00 -0.34996269501E-01  0.35000000000E-01  0.51099999109E-03 0. -1.
       22    1    1    2    0    0  0.54536665864E-03  0.54448130763E-02 -0.28003152543E-01  0.28532787571E-01  0.00000000000E+00 0. -1.
       22    1    1    2    0    0  0.96361166380E-03 -0.28638286889E-02  0.34333586838E-01  0.34466291465E-01  0.00000000000E+00 0.  1.
       22    1    1    2    0    0 -0.15089783224E-02 -0.25809843873E-02 -0.63304342943E-02  0.70009209637E-02  0.00000000000E+00 0.  1.
</event>
<event>
 5   0  0.4146200E+04  0.9118800E+02  0.7546771E-02  0.1180000E+00
      -11   -1    0    0    0    0  0.00000000000E+00  0.00000000000E+00  0.34996269501E-01  0.35000000000E-01  0.51099999109E-03 0.  1.
       11   -1    0    0    0    0 -0.00000000000E+00 -0.00000000000E+00 -0.34996269501E-01  0.35000000000E-01  0.51099999109E-03 0. -1.
       22    1    1    2    0    0  0.91941293805E-02  0.84689960681E-02 -0.29094455379E-01  0.31666121380E-01  0.00000000000E+00 0. -1.
       22    1    1    2    0    0 -0.94352634154E-02 -0.80161649066E-02  0.32557997559E-01  0.34832546571E-01  0.00000000000E+00 0.  1.
       22    1    1    2    0    0  0.24113403482E-03 -0.45283116154E-03 -0.34635421804E-02  0.35013320493E-02  0.00000000000E+00 0.  1.
</event>
<event>
 5   0  0.4146200E+04  0.9118800E+02  0.7546771E-02  0.1180000E+00
      -11   -1    0    0    0    0  0.00000000000E+00  0.00000000000E+00  0.34996269501E-01  0.35000000000E-01  0.51099999109E-03 0. -1.
       11   -1    0    0    0    0 -0.00000000000E+00 -0.00000000000E+00 -0.34996269501E-01  0.35000000000E-01  0.51099999109E-03 0.  1.
       22    1    1    2    0    0 -0.83378885933E-04 -0.17862954446E-01  0.29796557388E-01  0.34740853843E-01  0.00000000000E+00 0. -1.
       22    1    1    2    0    0  0.55972270630E-04 -0.42878902334E-03 -0.15334923971E-02  0.15932959089E-02  0.00000000000E+00 0. -1.
       22    1    1    2    0    0  0.27406615303E-04  0.18291743470E-01 -0.28263064990E-01  0.33665850248E-01  0.00000000000E+00 0.  1.
</event>
<event>
 5   0  0.4146200E+04  0.9118800E+02  0.7546771E-02  0.1180000E+00
      -11   -1    0    0    0    0  0.00000000000E+00  0.00000000000E+00  0.34996269501E-01  0.35000000000E-01  0.51099999109E-03 0. -1.
       11   -1    0    0    0    0 -0.00000000000E+00 -0.00000000000E+00 -0.34996269501E-01  0.35000000000E-01  0.51099999109E-03 0.  1.
       22    1    1    2    0    0  0.91740263498E-02  0.13315758886E-01 -0.30558336980E-01  0.34572881760E-01  0.00000000000E+00 0.  1.
       22    1    1    2    0    0  0.97075051347E-04  0.15882116765E-04 -0.43044510270E-03  0.44154138387E-03  0.00000000000E+00 0.  1.
       22    1    1    2    0    0 -0.92711014012E-02 -0.13331641003E-01  0.30988782083E-01  0.34985576857E-01  0.00000000000E+00 0. -1.
</event>
<event>
 5   0  0.4146200E+04  0.9118800E+02  0.7546771E-02  0.1180000E+00
      -11   -1    0    0    0    0  0.00000000000E+00  0.00000000000E+00  0.34996269501E-01  0.35000000000E-01  0.51099999109E-03 0. -1.
       11   -1    0    0    0    0 -0.00000000000E+00 -0.00000000000E+00 -0.34996269501E-01  0.35000000000E-01  0.51099999109E-03 0.  1.
       22    1    1    2    0    0 -0.35399305033E-02  0.10924146653E-01  0.32294087864E-01  0.34275008374E-01  0.00000000000E+00 0. -1.
       22    1    1    2    0    0 -0.10477340682E-02 -0.37414269874E-03  0.30658628605E-03  0.11540037207E-02  0.00000000000E+00 0. -1.
       22    1    1    2    0    0  0.45876645715E-02 -0.10550003955E-01 -0.32600674150E-01  0.34570987905E-01  0.00000000000E+00 0.  1.
</event>
<event>
 5   0  0.4146200E+04  0.9118800E+02  0.7546771E-02  0.1180000E+00
      -11   -1    0    0    0    0  0.00000000000E+00  0.00000000000E+00  0.34996269501E-01  0.35000000000E-01  0.51099999109E-03 0. -1.
       11   -1    0    0    0    0 -0.00000000000E+00 -0.00000000000E+00 -0.34996269501E-01  0.35000000000E-01  0.51099999109E-03 0.  1.
       22    1    1    2    0    0  0.13893049929E-02 -0.62853158148E-03  0.20903251827E-03  0.15391279693E-02  0.00000000000E+00 0. -1.
       22    1    1    2    0    0  0.15327543062E-01 -0.17224697550E-01 -0.24741346631E-01  0.33819491645E-01  0.00000000000E+00 0.  1.
       22    1    1    2    0    0 -0.16716848055E-01  0.17853229131E-01  0.24532314113E-01  0.34641380386E-01  0.00000000000E+00 0. -1.
</event>
<event>
 5   0  0.4146200E+04  0.9118800E+02  0.7546771E-02  0.1180000E+00
      -11   -1    0    0    0    0  0.00000000000E+00  0.00000000000E+00  0.34996269501E-01  0.35000000000E-01  0.51099999109E-03 0.  1.
       11   -1    0    0    0    0 -0.00000000000E+00 -0.00000000000E+00 -0.34996269501E-01  0.35000000000E-01  0.51099999109E-03 0. -1.
       22    1    1    2    0    0 -0.10799651883E-01 -0.45000737548E-02 -0.28389714476E-01  0.30706009715E-01  0.00000000000E+00 0. -1.
       22    1    1    2    0    0  0.15919796692E-03 -0.58361567270E-04 -0.44605918995E-02  0.44638134100E-02  0.00000000000E+00 0.  1.
       22    1    1    2    0    0  0.10640453916E-01  0.45584353221E-02  0.32850306376E-01  0.34830176875E-01  0.00000000000E+00 0.  1.
</event>
<event>
 5   0  0.4146200E+04  0.9118800E+02  0.7546771E-02  0.1180000E+00
      -11   -1    0    0    0    0  0.00000000000E+00  0.00000000000E+00  0.34996269501E-01  0.35000000000E-01  0.51099999109E-03 0. -1.
       11   -1    0    0    0    0 -0.00000000000E+00 -0.00000000000E+00 -0.34996269501E-01  0.35000000000E-01  0.51099999109E-03 0.  1.
       22    1    1    2    0    0  0.17994955683E-02 -0.34240688603E-02  0.34618296145E-01  0.34833731638E-01  0.00000000000E+00 0. -1.
       22    1    1    2    0    0 -0.20370080862E-02  0.13999733424E-02 -0.30195734385E-01  0.30296727585E-01  0.00000000000E+00 0.  1.
       22    1    1    2    0    0  0.23751251790E-03  0.20240955179E-02 -0.44225617597E-02  0.48695407772E-02  0.00000000000E+00 0.  1.
</event>
<event>
 5   0  0.4146200E+04  0.9118800E+02  0.7546771E-02  0.1180000E+00
      -11   -1    0    0    0    0  0.00000000000E+00  0.00000000000E+00  0.34996269501E-01  0.35000000000E-01  0.51099999109E-03 0. -1.
       11   -1    0    0    0    0 -0.00000000000E+00 -0.00000000000E+00 -0.34996269501E-01  0.35000000000E-01  0.51099999109E-03 0.  1.
       22    1    1    2    0    0  0.44385217064E-02  0.12173910887E-01  0.32370274529E-01  0.34867452650E-01  0.00000000000E+00 0. -1.
       22    1    1    2    0    0  0.57910302755E-03 -0.11686311222E-03 -0.16026369380E-02  0.17080580958E-02  0.00000000000E+00 0. -1.
       22    1    1    2    0    0 -0.50176247339E-02 -0.12057047775E-01 -0.30767637591E-01  0.33424489254E-01  0.00000000000E+00 0.  1.
</event>
<event>
 5   0  0.4146200E+04  0.9118800E+02  0.7546771E-02  0.1180000E+00
      -11   -1    0    0    0    0  0.00000000000E+00  0.00000000000E+00  0.34996269501E-01  0.35000000000E-01  0.51099999109E-03 0.  1.
       11   -1    0    0    0    0 -0.00000000000E+00 -0.00000000000E+00 -0.34996269501E-01  0.35000000000E-01  0.51099999109E-03 0. -1.
       22    1    1    2    0    0  0.66940947745E-02 -0.11259923247E-02  0.33971648214E-01  0.34643204902E-01  0.00000000000E+00 0.  1.
       22    1    1    2    0    0 -0.80583669580E-02  0.65730600650E-03 -0.31220316450E-01  0.32250232378E-01  0.00000000000E+00 0. -1.
       22    1    1    2    0    0  0.13642721835E-02  0.46868631816E-03 -0.27513317637E-02  0.31065627194E-02  0.00000000000E+00 0.  1.
</event>
<event>
 5   0  0.4146200E+04  0.9118800E+02  0.7546771E-02  0.1180000E+00
      -11   -1    0    0    0    0  0.00000000000E+00  0.00000000000E+00  0.34996269501E-01  0.35000000000E-01  0.51099999109E-03 0. -1.
       11   -1    0    0    0    0 -0.00000000000E+00 -0.00000000000E+00 -0.34996269501E-01  0.35000000000E-01  0.51099999109E-03 0.  1.
       22    1    1    2    0    0  0.13377093859E-01  0.55495197995E-02 -0.29798880429E-01  0.33131813789E-01  0.00000000000E+00 0.  1.
       22    1    1    2    0    0 -0.13313695034E-01 -0.54133131287E-02  0.31781379959E-01  0.34880002101E-01  0.00000000000E+00 0. -1.
       22    1    1    2    0    0 -0.63398825461E-04 -0.13620667076E-03 -0.19824995295E-02  0.19881841094E-02  0.00000000000E+00 0. -1.
</event>
<event>
 5   0  0.4146200E+04  0.9118800E+02  0.7546771E-02  0.1180000E+00
      -11   -1    0    0    0    0  0.00000000000E+00  0.00000000000E+00  0.34996269501E-01  0.35000000000E-01  0.51099999109E-03 0.  1.
       11   -1    0    0    0    0 -0.00000000000E+00 -0.00000000000E+00 -0.34996269501E-01  0.35000000000E-01  0.51099999109E-03 0. -1.
       22    1    1    2    0    0  0.18004087763E-01 -0.65206739447E-02 -0.27945601093E-01  0.33876584617E-01  0.00000000000E+00 0. -1.
       22    1    1    2    0    0 -0.17918858886E-01  0.60153496481E-02  0.17795999315E-01  0.25960884553E-01  0.00000000000E+00 0.  1.
       22    1    1    2    0    0 -0.85228877181E-04  0.50532429661E-03  0.10149601778E-01  0.10162530829E-01  0.00000000000E+00 0. -1.
</event>
<event>
 5   0  0.4146200E+04  0.9118800E+02  0.7546771E-02  0.1180000E+00
      -11   -1    0    0    0    0  0.00000000000E+00  0.00000000000E+00  0.34996269501E-01  0.35000000000E-01  0.51099999109E-03 0.  1.
       11   -1    0    0    0    0 -0.00000000000E+00 -0.00000000000E+00 -0.34996269501E-01  0.35000000000E-01  0.51099999109E-03 0. -1.
       22    1    1    2    0    0  0.43819673318E-03  0.14366159008E-03 -0.84504931369E-02  0.84630661870E-02  0.00000000000E+00 0. -1.
       22    1    1    2    0    0  0.13343749367E-02 -0.15296420734E-01  0.30835855256E-01  0.34447220688E-01  0.00000000000E+00 0.  1.
       22    1    1    2    0    0 -0.17725716699E-02  0.15152759144E-01 -0.22385362119E-01  0.27089713125E-01  0.00000000000E+00 0. -1.
</event>
<event>
 5   0  0.4146200E+04  0.9118800E+02  0.7546771E-02  0.1180000E+00
      -11   -1    0    0    0    0  0.00000000000E+00  0.00000000000E+00  0.34996269501E-01  0.35000000000E-01  0.51099999109E-03 0. -1.
       11   -1    0    0    0    0 -0.00000000000E+00 -0.00000000000E+00 -0.34996269501E-01  0.35000000000E-01  0.51099999109E-03 0.  1.
       22    1    1    2    0    0 -0.26010446449E-03 -0.60479234712E-03 -0.15329051561E-01  0.15343182521E-01  0.00000000000E+00 0.  1.
       22    1    1    2    0    0  0.32864711695E-02 -0.69486057463E-02  0.33699426264E-01  0.34564943875E-01  0.00000000000E+00 0. -1.
       22    1    1    2    0    0 -0.30263667050E-02  0.75533980934E-02 -0.18370374703E-01  0.20091873604E-01  0.00000000000E+00 0.  1.
</event>
<event>
 5   0  0.4146200E+04  0.9118800E+02  0.7546771E-02  0.1180000E+00
      -11   -1    0    0    0    0  0.00000000000E+00  0.00000000000E+00  0.34996269501E-01  0.35000000000E-01  0.51099999109E-03 0. -1.
       11   -1    0    0    0    0 -0.00000000000E+00 -0.00000000000E+00 -0.34996269501E-01  0.35000000000E-01  0.51099999109E-03 0.  1.
       22    1    1    2    0    0 -0.22582131133E-02  0.29236535622E-03 -0.84302839924E-03  0.24281064327E-02  0.00000000000E+00 0. -1.
       22    1    1    2    0    0 -0.99514931829E-02  0.58662411304E-02 -0.30910690695E-01  0.32998724230E-01  0.00000000000E+00 0.  1.
       22    1    1    2    0    0  0.12209706296E-01 -0.61586064866E-02  0.31753719094E-01  0.34573169337E-01  0.00000000000E+00 0. -1.
</event>
<event>
 5   0  0.4146200E+04  0.9118800E+02  0.7546771E-02  0.1180000E+00
      -11   -1    0    0    0    0  0.00000000000E+00  0.00000000000E+00  0.34996269501E-01  0.35000000000E-01  0.51099999109E-03 0. -1.
       11   -1    0    0    0    0 -0.00000000000E+00 -0.00000000000E+00 -0.34996269501E-01  0.35000000000E-01  0.51099999109E-03 0.  1.
       22    1    1    2    0    0 -0.11486662099E-02  0.21825517915E-02  0.34833703736E-01  0.34920908956E-01  0.00000000000E+00 0. -1.
       22    1    1    2    0    0 -0.67112441787E-04 -0.58011118798E-03 -0.82398792574E-03  0.10099451332E-02  0.00000000000E+00 0.  1.
       22    1    1    2    0    0  0.12157786516E-02 -0.16024406035E-02 -0.34009715810E-01  0.34069145911E-01  0.00000000000E+00 0.  1.
</event>
<event>
 5   0  0.4146200E+04  0.9118800E+02  0.7546771E-02  0.1180000E+00
      -11   -1    0    0    0    0  0.00000000000E+00  0.00000000000E+00  0.34996269501E-01  0.35000000000E-01  0.51099999109E-03 0. -1.
       11   -1    0    0    0    0 -0.00000000000E+00 -0.00000000000E+00 -0.34996269501E-01  0.35000000000E-01  0.51099999109E-03 0.  1.
       22    1    1    2    0    0  0.53177987826E-02 -0.31336600010E-02  0.33786550390E-01  0.34345739126E-01  0.00000000000E+00 0. -1.
       22    1    1    2    0    0 -0.41613980734E-02  0.41527852779E-02 -0.85817302075E-02  0.10402353236E-01  0.00000000000E+00 0.  1.
       22    1    1    2    0    0 -0.11564007092E-02 -0.10191252769E-02 -0.25204820182E-01  0.25251907638E-01  0.00000000000E+00 0.  1.
</event>
<event>
 5   0  0.4146200E+04  0.9118800E+02  0.7546771E-02  0.1180000E+00
      -11   -1    0    0    0    0  0.00000000000E+00  0.00000000000E+00  0.34996269501E-01  0.35000000000E-01  0.51099999109E-03 0. -1.
       11   -1    0    0    0    0 -0.00000000000E+00 -0.00000000000E+00 -0.34996269501E-01  0.35000000000E-01  0.51099999109E-03 0.  1.
       22    1    1    2    0    0 -0.77808262431E-04 -0.48940660349E-03 -0.72741917128E-03  0.88017702765E-03  0.00000000000E+00 0.  1.
       22    1    1    2    0    0 -0.76784171523E-02 -0.14459599576E-02  0.34007276202E-01  0.34893319201E-01  0.00000000000E+00 0. -1.
       22    1    1    2    0    0  0.77562254148E-02  0.19353665611E-02 -0.33279857031E-01  0.34226503771E-01  0.00000000000E+00 0.  1.
</event>
<event>
 5   0  0.4146200E+04  0.9118800E+02  0.7546771E-02  0.1180000E+00
      -11   -1    0    0    0    0  0.00000000000E+00  0.00000000000E+00  0.34996269501E-01  0.35000000000E-01  0.51099999109E-03 0.  1.
       11   -1    0    0    0    0 -0.00000000000E+00 -0.00000000000E+00 -0.34996269501E-01  0.35000000000E-01  0.51099999109E-03 0. -1.
       22    1    1    2    0    0  0.99792158042E-03  0.66673310149E-02  0.34273944824E-01  0.34930680557E-01  0.00000000000E+00 0.  1.
       22    1    1    2    0    0 -0.10142038192E-02 -0.69197188057E-02 -0.33924927504E-01  0.34638299956E-01  0.00000000000E+00 0. -1.
       22    1    1    2    0    0  0.16282238755E-04  0.25238779084E-03 -0.34901732034E-03  0.43101948698E-03  0.00000000000E+00 0. -1.
</event>
<event>
 5   0  0.4146200E+04  0.9118800E+02  0.7546771E-02  0.1180000E+00
      -11   -1    0    0    0    0  0.00000000000E+00  0.00000000000E+00  0.34996269501E-01  0.35000000000E-01  0.51099999109E-03 0. -1.
       11   -1    0    0    0    0 -0.00000000000E+00 -0.00000000000E+00 -0.34996269501E-01  0.35000000000E-01  0.51099999109E-03 0.  1.
       22    1    1    2    0    0 -0.24501753534E-02  0.14747792513E-02  0.34794206446E-01  0.34911532984E-01  0.00000000000E+00 0. -1.
       22    1    1    2    0    0  0.29675798606E-02 -0.14062308480E-02 -0.33855730193E-01  0.34014621596E-01  0.00000000000E+00 0.  1.
       22    1    1    2    0    0 -0.51740450719E-03 -0.68548403217E-04 -0.93847625306E-03  0.10738454196E-02  0.00000000000E+00 0.  1.
</event>
<event>
 5   0  0.4146200E+04  0.9118800E+02  0.7546771E-02  0.1180000E+00
      -11   -1    0    0    0    0  0.00000000000E+00  0.00000000000E+00  0.34996269501E-01  0.35000000000E-01  0.51099999109E-03 0. -1.
       11   -1    0    0    0    0 -0.00000000000E+00 -0.00000000000E+00 -0.34996269501E-01  0.35000000000E-01  0.51099999109E-03 0.  1.
       22    1    1    2    0    0 -0.12288776685E-01  0.90935720411E-02 -0.21226625251E-01  0.26158683155E-01  0.00000000000E+00 0.  1.
       22    1    1    2    0    0 -0.42830390931E-03 -0.15751830851E-03 -0.94451766340E-02  0.94561946841E-02  0.00000000000E+00 0. -1.
       22    1    1    2    0    0  0.12717080595E-01 -0.89360537326E-02  0.30671801885E-01  0.34385122161E-01  0.00000000000E+00 0. -1.
</event>
<event>
 5   0  0.4146200E+04  0.9118800E+02  0.7546771E-02  0.1180000E+00
      -11   -1    0    0    0    0  0.00000000000E+00  0.00000000000E+00  0.34996269501E-01  0.35000000000E-01  0.51099999109E-03 0.  1.
       11   -1    0    0    0    0 -0.00000000000E+00 -0.00000000000E+00 -0.34996269501E-01  0.35000000000E-01  0.51099999109E-03 0. -1.
       22    1    1    2    0    0 -0.35635747477E-02 -0.14308897591E-01  0.31494634414E-01  0.34775790604E-01  0.00000000000E+00 0.  1.
       22    1    1    2    0    0  0.27807618800E-02  0.14478951944E-01 -0.30864093887E-01  0.34204750803E-01  0.00000000000E+00 0. -1.
       22    1    1    2    0    0  0.78281286765E-03 -0.17005435229E-03 -0.63054052694E-03  0.10194585939E-02  0.00000000000E+00 0. -1.
</event>
<event>
 5   0  0.4146200E+04  0.9118800E+02  0.7546771E-02  0.1180000E+00
      -11   -1    0    0    0    0  0.00000000000E+00  0.00000000000E+00  0.34996269501E-01  0.35000000000E-01  0.51099999109E-03 0.  1.
       11   -1    0    0    0    0 -0.00000000000E+00 -0.00000000000E+00 -0.34996269501E-01  0.35000000000E-01  0.51099999109E-03 0. -1.
       22    1    1    2    0    0 -0.61155929222E-04 -0.92057530277E-04 -0.33528189967E-03  0.35302774509E-03  0.00000000000E+00 0.  1.
       22    1    1    2    0    0  0.29789143572E-02 -0.12569450185E-01  0.32491332887E-01  0.34965007100E-01  0.00000000000E+00 0.  1.
       22    1    1    2    0    0 -0.29177584280E-02  0.12661507715E-01 -0.32156050988E-01  0.34681965155E-01  0.00000000000E+00 0. -1.
</event>
<event>
 5   0  0.4146200E+04  0.9118800E+02  0.7546771E-02  0.1180000E+00
      -11   -1    0    0    0    0  0.00000000000E+00  0.00000000000E+00  0.34996269501E-01  0.35000000000E-01  0.51099999109E-03 0. -1.
       11   -1    0    0    0    0 -0.00000000000E+00 -0.00000000000E+00 -0.34996269501E-01  0.35000000000E-01  0.51099999109E-03 0.  1.
       22    1    1    2    0    0  0.12755848483E-01 -0.78029445528E-02  0.30350789333E-01  0.33834420748E-01  0.00000000000E+00 0. -1.
       22    1    1    2    0    0 -0.12998074522E-01  0.10210785834E-01 -0.22293154659E-01  0.27752384281E-01  0.00000000000E+00 0.  1.
       22    1    1    2    0    0  0.24222603952E-03 -0.24078412809E-02 -0.80576346735E-02  0.84131949710E-02  0.00000000000E+00 0.  1.
</event>
<event>
 5   0  0.4146200E+04  0.9118800E+02  0.7546771E-02  0.1180000E+00
      -11   -1    0    0    0    0  0.00000000000E+00  0.00000000000E+00  0.34996269501E-01  0.35000000000E-01  0.51099999109E-03 0.  1.
       11   -1    0    0    0    0 -0.00000000000E+00 -0.00000000000E+00 -0.34996269501E-01  0.35000000000E-01  0.51099999109E-03 0. -1.
       22    1    1    2    0    0  0.16231384283E-02 -0.29157482654E-02 -0.76588543394E-02  0.83542932733E-02  0.00000000000E+00 0. -1.
       22    1    1    2    0    0 -0.92078538451E-02  0.13076736630E-01 -0.23260017040E-01  0.28227894113E-01  0.00000000000E+00 0. -1.
       22    1    1    2    0    0  0.75847154168E-02 -0.10160988365E-01  0.30918871380E-01  0.33417812614E-01  0.00000000000E+00 0.  1.
</event>
<event>
 5   0  0.4146200E+04  0.9118800E+02  0.7546771E-02  0.1180000E+00
      -11   -1    0    0    0    0  0.00000000000E+00  0.00000000000E+00  0.34996269501E-01  0.35000000000E-01  0.51099999109E-03 0. -1.
       11   -1    0    0    0    0 -0.00000000000E+00 -0.00000000000E+00 -0.34996269501E-01  0.35000000000E-01  0.51099999109E-03 0.  1.
       22    1    1    2    0    0  0.87504495515E-02 -0.12028991669E-01  0.31599019080E-01  0.34925134427E-01  0.00000000000E+00 0. -1.
       22    1    1    2    0    0  0.24007963144E-03  0.14967377394E-03 -0.10398668569E-02  0.10776657869E-02  0.00000000000E+00 0. -1.
       22    1    1    2    0    0 -0.89905291830E-02  0.11879317895E-01 -0.30559152223E-01  0.33997199786E-01  0.00000000000E+00 0.  1.
</event>
<event>
 5   0  0.4146200E+04  0.9118800E+02  0.7546771E-02  0.1180000E+00
      -11   -1    0    0    0    0  0.00000000000E+00  0.00000000000E+00  0.34996269501E-01  0.35000000000E-01  0.51099999109E-03 0.  1.
       11   -1    0    0    0    0 -0.00000000000E+00 -0.00000000000E+00 -0.34996269501E-01  0.35000000000E-01  0.51099999109E-03 0. -1.
       22    1    1    2    0    0 -0.18723861438E-01  0.60322122532E-02  0.28350962137E-01  0.34507211216E-01  0.00000000000E+00 0.  1.
       22    1    1    2    0    0  0.87391652243E-03  0.40348119437E-03  0.40208461669E-03  0.10431678683E-02  0.00000000000E+00 0.  1.
       22    1    1    2    0    0  0.17849944916E-01 -0.64356934476E-02 -0.28753046753E-01  0.34449620916E-01  0.00000000000E+00 0. -1.
</event>
<event>
 5   0  0.4146200E+04  0.9118800E+02  0.7546771E-02  0.1180000E+00
      -11   -1    0    0    0    0  0.00000000000E+00  0.00000000000E+00  0.34996269501E-01  0.35000000000E-01  0.51099999109E-03 0. -1.
       11   -1    0    0    0    0 -0.00000000000E+00 -0.00000000000E+00 -0.34996269501E-01  0.35000000000E-01  0.51099999109E-03 0.  1.
       22    1    1    2    0    0 -0.32629592790E-02  0.72428361545E-04  0.34437029516E-01  0.34591345030E-01  0.00000000000E+00 0. -1.
       22    1    1    2    0    0 -0.10557084457E-03  0.69714736248E-03 -0.28719346863E-01  0.28728001042E-01  0.00000000000E+00 0.  1.
       22    1    1    2    0    0  0.33685301235E-02 -0.76957572402E-03 -0.57176826530E-02  0.66806539282E-02  0.00000000000E+00 0.  1.
</event>
<event>
 5   0  0.4146200E+04  0.9118800E+02  0.7546771E-02  0.1180000E+00
      -11   -1    0    0    0    0  0.00000000000E+00  0.00000000000E+00  0.34996269501E-01  0.35000000000E-01  0.51099999109E-03 0. -1.
       11   -1    0    0    0    0 -0.00000000000E+00 -0.00000000000E+00 -0.34996269501E-01  0.35000000000E-01  0.51099999109E-03 0.  1.
       22    1    1    2    0    0  0.11567624071E-01  0.13001745184E-01  0.25719357675E-01  0.31053834927E-01  0.00000000000E+00 0. -1.
       22    1    1    2    0    0 -0.39769213294E-02 -0.15077585845E-01 -0.26796605716E-01  0.31003347820E-01  0.00000000000E+00 0.  1.
       22    1    1    2    0    0 -0.75907027416E-02  0.20758406615E-02  0.10772480405E-02  0.79428172523E-02  0.00000000000E+00 0. -1.
</event>
<event>
 5   0  0.4146200E+04  0.9118800E+02  0.7546771E-02  0.1180000E+00
      -11   -1    0    0    0    0  0.00000000000E+00  0.00000000000E+00  0.34996269501E-01  0.35000000000E-01  0.51099999109E-03 0. -1.
       11   -1    0    0    0    0 -0.00000000000E+00 -0.00000000000E+00 -0.34996269501E-01  0.35000000000E-01  0.51099999109E-03 0.  1.
       22    1    1    2    0    0 -0.12488775884E-01  0.21312026982E-02  0.32521405014E-01  0.34902053408E-01  0.00000000000E+00 0. -1.
       22    1    1    2    0    0  0.11866245034E-03 -0.16694513860E-03 -0.32874601006E-02  0.32938344478E-02  0.00000000000E+00 0.  1.
       22    1    1    2    0    0  0.12370113434E-01 -0.19642575596E-02 -0.29233944913E-01  0.31804112144E-01  0.00000000000E+00 0.  1.
</event>
<event>
 5   0  0.4146200E+04  0.9118800E+02  0.7546771E-02  0.1180000E+00
      -11   -1    0    0    0    0  0.00000000000E+00  0.00000000000E+00  0.34996269501E-01  0.35000000000E-01  0.51099999109E-03 0. -1.
       11   -1    0    0    0    0 -0.00000000000E+00 -0.00000000000E+00 -0.34996269501E-01  0.35000000000E-01  0.51099999109E-03 0.  1.
       22    1    1    2    0    0  0.13549512530E-02 -0.23330642726E-02 -0.34255070853E-01  0.34361154826E-01  0.00000000000E+00 0.  1.
       22    1    1    2    0    0 -0.28225334180E-03 -0.15611938907E-03 -0.59858257317E-03  0.67995684385E-03  0.00000000000E+00 0. -1.
       22    1    1    2    0    0 -0.10726979112E-02  0.24891836617E-02  0.34853653427E-01  0.34958888330E-01  0.00000000000E+00 0. -1.
</event>
<event>
 5   0  0.4146200E+04  0.9118800E+02  0.7546771E-02  0.1180000E+00
      -11   -1    0    0    0    0  0.00000000000E+00  0.00000000000E+00  0.34996269501E-01  0.35000000000E-01  0.51099999109E-03 0.  1.
       11   -1    0    0    0    0 -0.00000000000E+00 -0.00000000000E+00 -0.34996269501E-01  0.35000000000E-01  0.51099999109E-03 0. -1.
       22    1    1    2    0    0 -0.97682653613E-02 -0.12786860588E-01  0.30942641237E-01  0.34876494357E-01  0.00000000000E+00 0.  1.
       22    1    1    2    0    0  0.10029042090E-01  0.12656863456E-01 -0.29302207596E-01  0.33457394516E-01  0.00000000000E+00 0. -1.
       22    1    1    2    0    0 -0.26077672914E-03  0.12999713180E-03 -0.16404336418E-02  0.16661111277E-02  0.00000000000E+00 0. -1.
</event>
<event>
 5   0  0.4146200E+04  0.9118800E+02  0.7546771E-02  0.1180000E+00
      -11   -1    0    0    0    0  0.00000000000E+00  0.00000000000E+00  0.34996269501E-01  0.35000000000E-01  0.51099999109E-03 0. -1.
       11   -1    0    0    0    0 -0.00000000000E+00 -0.00000000000E+00 -0.34996269501E-01  0.35000000000E-01  0.51099999109E-03 0.  1.
       22    1    1    2    0    0  0.35163827581E-03 -0.29068933381E-03 -0.12724036928E-02  0.13517251656E-02  0.00000000000E+00 0. -1.
       22    1    1    2    0    0 -0.23636540279E-01 -0.16982850291E-01 -0.17639296942E-01  0.34033043311E-01  0.00000000000E+00 0.  1.
       22    1    1    2    0    0  0.23284902003E-01  0.17273539625E-01  0.18911700635E-01  0.34615231523E-01  0.00000000000E+00 0. -1.
</event>
<event>
 5   0  0.4146200E+04  0.9118800E+02  0.7546771E-02  0.1180000E+00
      -11   -1    0    0    0    0  0.00000000000E+00  0.00000000000E+00  0.34996269501E-01  0.35000000000E-01  0.51099999109E-03 0.  1.
       11   -1    0    0    0    0 -0.00000000000E+00 -0.00000000000E+00 -0.34996269501E-01  0.35000000000E-01  0.51099999109E-03 0. -1.
       22    1    1    2    0    0  0.13874519115E-01 -0.55931747657E-03  0.30938850002E-01  0.33912056206E-01  0.00000000000E+00 0.  1.
       22    1    1    2    0    0 -0.30886373620E-03  0.18528045203E-02  0.39467905396E-03  0.19193886927E-02  0.00000000000E+00 0. -1.
       22    1    1    2    0    0 -0.13565655379E-01 -0.12934870437E-02 -0.31333529056E-01  0.34168555101E-01  0.00000000000E+00 0. -1.
</event>
<event>
 5   0  0.4146200E+04  0.9118800E+02  0.7546771E-02  0.1180000E+00
      -11   -1    0    0    0    0  0.00000000000E+00  0.00000000000E+00  0.34996269501E-01  0.35000000000E-01  0.51099999109E-03 0. -1.
       11   -1    0    0    0    0 -0.00000000000E+00 -0.00000000000E+00 -0.34996269501E-01  0.35000000000E-01  0.51099999109E-03 0.  1.
       22    1    1    2    0    0  0.12841707054E-01 -0.20290975192E-04 -0.27578089234E-01  0.30421388160E-01  0.00000000000E+00 0.  1.
       22    1    1    2    0    0 -0.81745566112E-04  0.68222432472E-03 -0.47592191608E-02  0.48085631313E-02  0.00000000000E+00 0.  1.
       22    1    1    2    0    0 -0.12759961488E-01 -0.66193334953E-03  0.32337308395E-01  0.34770048708E-01  0.00000000000E+00 0. -1.
</event>
<event>
 5   0  0.4146200E+04  0.9118800E+02  0.7546771E-02  0.1180000E+00
      -11   -1    0    0    0    0  0.00000000000E+00  0.00000000000E+00  0.34996269501E-01  0.35000000000E-01  0.51099999109E-03 0.  1.
       11   -1    0    0    0    0 -0.00000000000E+00 -0.00000000000E+00 -0.34996269501E-01  0.35000000000E-01  0.51099999109E-03 0. -1.
       22    1    1    2    0    0  0.48139857139E-04 -0.11096533894E-03  0.64477331392E-03  0.65602086753E-03  0.00000000000E+00 0. -1.
       22    1    1    2    0    0  0.13687158457E-01  0.16983276595E-01 -0.27295768031E-01  0.34940362661E-01  0.00000000000E+00 0. -1.
       22    1    1    2    0    0 -0.13735298314E-01 -0.16872311256E-01  0.26650994717E-01  0.34403616471E-01  0.00000000000E+00 0.  1.
</event>
<event>
 5   0  0.4146200E+04  0.9118800E+02  0.7546771E-02  0.1180000E+00
      -11   -1    0    0    0    0  0.00000000000E+00  0.00000000000E+00  0.34996269501E-01  0.35000000000E-01  0.51099999109E-03 0.  1.
       11   -1    0    0    0    0 -0.00000000000E+00 -0.00000000000E+00 -0.34996269501E-01  0.35000000000E-01  0.51099999109E-03 0. -1.
       22    1    1    2    0    0 -0.14961418744E-03  0.18582356467E-03 -0.35706272333E-03  0.42942821363E-03  0.00000000000E+00 0. -1.
       22    1    1    2    0    0 -0.53068070024E-02  0.13117012628E-01  0.31904224240E-01  0.34901257072E-01  0.00000000000E+00 0.  1.
       22    1    1    2    0    0  0.54564211898E-02 -0.13302836192E-01 -0.31547161517E-01  0.34669314714E-01  0.00000000000E+00 0. -1.
</event>
<event>
 5   0  0.4146200E+04  0.9118800E+02  0.7546771E-02  0.1180000E+00
      -11   -1    0    0    0    0  0.00000000000E+00  0.00000000000E+00  0.34996269501E-01  0.35000000000E-01  0.51099999109E-03 0. -1.
       11   -1    0    0    0    0 -0.00000000000E+00 -0.00000000000E+00 -0.34996269501E-01  0.35000000000E-01  0.51099999109E-03 0.  1.
       22    1    1    2    0    0  0.45927722645E-02  0.13933520170E-01 -0.15082561562E-01  0.21040917391E-01  0.00000000000E+00 0.  1.
       22    1    1    2    0    0  0.19777213313E-02 -0.18318160612E-02 -0.15334771172E-01  0.15569911324E-01  0.00000000000E+00 0. -1.
       22    1    1    2    0    0 -0.65704935958E-02 -0.12101704109E-01  0.30417332734E-01  0.33389171284E-01  0.00000000000E+00 0. -1.
</event>
<event>
 5   0  0.4146200E+04  0.9118800E+02  0.7546771E-02  0.1180000E+00
      -11   -1    0    0    0    0  0.00000000000E+00  0.00000000000E+00  0.34996269501E-01  0.35000000000E-01  0.51099999109E-03 0. -1.
       11   -1    0    0    0    0 -0.00000000000E+00 -0.00000000000E+00 -0.34996269501E-01  0.35000000000E-01  0.51099999109E-03 0.  1.
       22    1    1    2    0    0  0.13138105820E-01  0.23347174392E-01 -0.21926110319E-01  0.34618704342E-01  0.00000000000E+00 0.  1.
       22    1    1    2    0    0 -0.13100582411E-01 -0.23487595244E-01  0.22327504076E-01  0.34954396406E-01  0.00000000000E+00 0. -1.
       22    1    1    2    0    0 -0.37523409055E-04  0.14042085213E-03 -0.40139375785E-03  0.42689925132E-03  0.00000000000E+00 0.  1.
</event>
<event>
 5   0  0.4146200E+04  0.9118800E+02  0.7546771E-02  0.1180000E+00
      -11   -1    0    0    0    0  0.00000000000E+00  0.00000000000E+00  0.34996269501E-01  0.35000000000E-01  0.51099999109E-03 0.  1.
       11   -1    0    0    0    0 -0.00000000000E+00 -0.00000000000E+00 -0.34996269501E-01  0.35000000000E-01  0.51099999109E-03 0. -1.
       22    1    1    2    0    0  0.93377255481E-02 -0.19958652741E-01  0.21974882901E-01  0.31119711055E-01  0.00000000000E+00 0.  1.
       22    1    1    2    0    0 -0.11582686310E-02 -0.25122942491E-02  0.31514371322E-02  0.41934192032E-02  0.00000000000E+00 0.  1.
       22    1    1    2    0    0 -0.81794569171E-02  0.22470946990E-01 -0.25126320033E-01  0.34686869742E-01  0.00000000000E+00 0. -1.
</event>
<event>
 5   0  0.4146200E+04  0.9118800E+02  0.7546771E-02  0.1180000E+00
      -11   -1    0    0    0    0  0.00000000000E+00  0.00000000000E+00  0.34996269501E-01  0.35000000000E-01  0.51099999109E-03 0. -1.
       11   -1    0    0    0    0 -0.00000000000E+00 -0.00000000000E+00 -0.34996269501E-01  0.35000000000E-01  0.51099999109E-03 0.  1.
       22    1    1    2    0    0 -0.11437309574E-01  0.16048429225E-01 -0.28374750940E-01  0.34546933609E-01  0.00000000000E+00 0.  1.
       22    1    1    2    0    0  0.10925319292E-01 -0.16653955460E-01  0.24885435405E-01  0.31874782029E-01  0.00000000000E+00 0. -1.
       22    1    1    2    0    0  0.51199028140E-03  0.60552623538E-03  0.34893155357E-02  0.35782843623E-02  0.00000000000E+00 0. -1.
</event>
<event>
 5   0  0.4146200E+04  0.9118800E+02  0.7546771E-02  0.1180000E+00
      -11   -1    0    0    0    0  0.00000000000E+00  0.00000000000E+00  0.34996269501E-01  0.35000000000E-01  0.51099999109E-03 0.  1.
       11   -1    0    0    0    0 -0.00000000000E+00 -0.00000000000E+00 -0.34996269501E-01  0.35000000000E-01  0.51099999109E-03 0. -1.
       22    1    1    2    0    0 -0.11347139068E-03 -0.16284907209E-04  0.12305076000E-02  0.12358357126E-02  0.00000000000E+00 0.  1.
       22    1    1    2    0    0 -0.21678162603E-02 -0.11982496337E-01  0.31530665568E-01  0.33800333090E-01  0.00000000000E+00 0.  1.
       22    1    1    2    0    0  0.22812876510E-02  0.11998781244E-01 -0.32761173168E-01  0.34963831198E-01  0.00000000000E+00 0. -1.
</event>
<event>
 5   0  0.4146200E+04  0.9118800E+02  0.7546771E-02  0.1180000E+00
      -11   -1    0    0    0    0  0.00000000000E+00  0.00000000000E+00  0.34996269501E-01  0.35000000000E-01  0.51099999109E-03 0. -1.
       11   -1    0    0    0    0 -0.00000000000E+00 -0.00000000000E+00 -0.34996269501E-01  0.35000000000E-01  0.51099999109E-03 0.  1.
       22    1    1    2    0    0 -0.14767894523E-01 -0.10435719564E-01 -0.29904740322E-01  0.34946937566E-01  0.00000000000E+00 0.  1.
       22    1    1    2    0    0  0.14783345495E-01  0.10404181684E-01  0.29169367977E-01  0.34316851964E-01  0.00000000000E+00 0. -1.
       22    1    1    2    0    0 -0.15450971561E-04  0.31537880591E-04  0.73537234531E-03  0.73621047037E-03  0.00000000000E+00 0.  1.
</event>
<event>
 5   0  0.4146200E+04  0.9118800E+02  0.7546771E-02  0.1180000E+00
      -11   -1    0    0    0    0  0.00000000000E+00  0.00000000000E+00  0.34996269501E-01  0.35000000000E-01  0.51099999109E-03 0.  1.
       11   -1    0    0    0    0 -0.00000000000E+00 -0.00000000000E+00 -0.34996269501E-01  0.35000000000E-01  0.51099999109E-03 0. -1.
       22    1    1    2    0    0 -0.27626948713E-03 -0.27854946051E-03  0.25451393899E-02  0.25751988555E-02  0.00000000000E+00 0. -1.
       22    1    1    2    0    0  0.10960861465E-01  0.75872241138E-02 -0.32318015699E-01  0.34959413504E-01  0.00000000000E+00 0. -1.
       22    1    1    2    0    0 -0.10684591978E-01 -0.73086746533E-02  0.29772876309E-01  0.32465387641E-01  0.00000000000E+00 0.  1.
</event>
<event>
 5   0  0.4146200E+04  0.9118800E+02  0.7546771E-02  0.1180000E+00
      -11   -1    0    0    0    0  0.00000000000E+00  0.00000000000E+00  0.34996269501E-01  0.35000000000E-01  0.51099999109E-03 0. -1.
       11   -1    0    0    0    0 -0.00000000000E+00 -0.00000000000E+00 -0.34996269501E-01  0.35000000000E-01  0.51099999109E-03 0.  1.
       22    1    1    2    0    0  0.91776491767E-03 -0.10600394553E-01 -0.21227812848E-01  0.23745119403E-01  0.00000000000E+00 0.  1.
       22    1    1    2    0    0 -0.99027204337E-03  0.10407348183E-01  0.32930627210E-01  0.34550249541E-01  0.00000000000E+00 0. -1.
       22    1    1    2    0    0  0.72507125707E-04  0.19304636934E-03 -0.11702814361E-01  0.11704631056E-01  0.00000000000E+00 0. -1.
</event>
<event>
 5   0  0.4146200E+04  0.9118800E+02  0.7546771E-02  0.1180000E+00
      -11   -1    0    0    0    0  0.00000000000E+00  0.00000000000E+00  0.34996269501E-01  0.35000000000E-01  0.51099999109E-03 0.  1.
       11   -1    0    0    0    0 -0.00000000000E+00 -0.00000000000E+00 -0.34996269501E-01  0.35000000000E-01  0.51099999109E-03 0. -1.
       22    1    1    2    0    0 -0.20755527632E-03 -0.17854892339E-01 -0.29945699993E-01  0.34865243548E-01  0.00000000000E+00 0. -1.
       22    1    1    2    0    0  0.13359212248E-02  0.16624701969E-01  0.27753376206E-01  0.32379241682E-01  0.00000000000E+00 0.  1.
       22    1    1    2    0    0 -0.11283659485E-02  0.12301903706E-02  0.21923237868E-02  0.27555147700E-02  0.00000000000E+00 0. -1.
</event>
<event>
 5   0  0.4146200E+04  0.9118800E+02  0.7546771E-02  0.1180000E+00
      -11   -1    0    0    0    0  0.00000000000E+00  0.00000000000E+00  0.34996269501E-01  0.35000000000E-01  0.51099999109E-03 0.  1.
       11   -1    0    0    0    0 -0.00000000000E+00 -0.00000000000E+00 -0.34996269501E-01  0.35000000000E-01  0.51099999109E-03 0. -1.
       22    1    1    2    0    0 -0.62542720476E-03  0.26695055654E-02 -0.44344716906E-02  0.52136319708E-02  0.00000000000E+00 0. -1.
       22    1    1    2    0    0 -0.21751734249E-01 -0.64928084545E-02  0.25272960487E-01  0.33970826252E-01  0.00000000000E+00 0.  1.
       22    1    1    2    0    0  0.22377161453E-01  0.38233028892E-02 -0.20838488797E-01  0.30815541777E-01  0.00000000000E+00 0. -1.
</event>
<event>
 5   0  0.4146200E+04  0.9118800E+02  0.7546771E-02  0.1180000E+00
      -11   -1    0    0    0    0  0.00000000000E+00  0.00000000000E+00  0.34996269501E-01  0.35000000000E-01  0.51099999109E-03 0. -1.
       11   -1    0    0    0    0 -0.00000000000E+00 -0.00000000000E+00 -0.34996269501E-01  0.35000000000E-01  0.51099999109E-03 0.  1.
       22    1    1    2    0    0  0.48648557910E-02  0.12189951208E-01 -0.30557441608E-01  0.33256863502E-01  0.00000000000E+00 0.  1.
       22    1    1    2    0    0 -0.67733403915E-02 -0.14305983717E-01  0.29881008483E-01  0.33814404891E-01  0.00000000000E+00 0. -1.
       22    1    1    2    0    0  0.19084846005E-02  0.21160325097E-02  0.67643312534E-03  0.29287316070E-02  0.00000000000E+00 0. -1.
</event>
<event>
 5   0  0.4146200E+04  0.9118800E+02  0.7546771E-02  0.1180000E+00
      -11   -1    0    0    0    0  0.00000000000E+00  0.00000000000E+00  0.34996269501E-01  0.35000000000E-01  0.51099999109E-03 0.  1.
       11   -1    0    0    0    0 -0.00000000000E+00 -0.00000000000E+00 -0.34996269501E-01  0.35000000000E-01  0.51099999109E-03 0. -1.
       22    1    1    2    0    0  0.53702670302E-03  0.11088643533E-02 -0.13922714411E-02  0.18591389404E-02  0.00000000000E+00 0.  1.
       22    1    1    2    0    0 -0.15965038140E-02 -0.71634140929E-03 -0.33342166296E-01  0.33388052095E-01  0.00000000000E+00 0. -1.
       22    1    1    2    0    0  0.10594771110E-02 -0.39252294404E-03  0.34734437737E-01  0.34752808964E-01  0.00000000000E+00 0.  1.
</event>
<event>
 5   0  0.4146200E+04  0.9118800E+02  0.7546771E-02  0.1180000E+00
      -11   -1    0    0    0    0  0.00000000000E+00  0.00000000000E+00  0.34996269501E-01  0.35000000000E-01  0.51099999109E-03 0.  1.
       11   -1    0    0    0    0 -0.00000000000E+00 -0.00000000000E+00 -0.34996269501E-01  0.35000000000E-01  0.51099999109E-03 0. -1.
       22    1    1    2    0    0  0.15883384436E-02 -0.97723650855E-02 -0.32818256834E-01  0.34279147014E-01  0.00000000000E+00 0. -1.
       22    1    1    2    0    0 -0.17675430713E-02  0.94711320415E-02  0.33551873475E-01  0.34907803774E-01  0.00000000000E+00 0.  1.
       22    1    1    2    0    0  0.17920462767E-03  0.30123304398E-03 -0.73361664125E-03  0.81304921234E-03  0.00000000000E+00 0. -1.
</event>
<event>
 5   0  0.4146200E+04  0.9118800E+02  0.7546771E-02  0.1180000E+00
      -11   -1    0    0    0    0  0.00000000000E+00  0.00000000000E+00  0.34996269501E-01  0.35000000000E-01  0.51099999109E-03 0. -1.
       11   -1    0    0    0    0 -0.00000000000E+00 -0.00000000000E+00 -0.34996269501E-01  0.35000000000E-01  0.51099999109E-03 0.  1.
       22    1    1    2    0    0  0.17464439009E-01 -0.10029969951E-01  0.28102101409E-01  0.34573617553E-01  0.00000000000E+00 0. -1.
       22    1    1    2    0    0  0.35576254431E-04  0.47141537986E-04  0.46539842533E-03  0.46913078004E-03  0.00000000000E+00 0. -1.
       22    1    1    2    0    0 -0.17500015263E-01  0.99828284131E-02 -0.28567499834E-01  0.34957251667E-01  0.00000000000E+00 0.  1.
</event>
<event>
 5   0  0.4146200E+04  0.9118800E+02  0.7546771E-02  0.1180000E+00
      -11   -1    0    0    0    0  0.00000000000E+00  0.00000000000E+00  0.34996269501E-01  0.35000000000E-01  0.51099999109E-03 0. -1.
       11   -1    0    0    0    0 -0.00000000000E+00 -0.00000000000E+00 -0.34996269501E-01  0.35000000000E-01  0.51099999109E-03 0.  1.
       22    1    1    2    0    0  0.54296019310E-04 -0.24162505275E-02 -0.30345266290E-01  0.30441360037E-01  0.00000000000E+00 0.  1.
       22    1    1    2    0    0  0.11574585316E-02  0.18635218106E-02 -0.43320113379E-02  0.48557950969E-02  0.00000000000E+00 0. -1.
       22    1    1    2    0    0 -0.12117545509E-02  0.55272871693E-03  0.34677277628E-01  0.34702844866E-01  0.00000000000E+00 0. -1.
</event>
<event>
 5   0  0.4146200E+04  0.9118800E+02  0.7546771E-02  0.1180000E+00
      -11   -1    0    0    0    0  0.00000000000E+00  0.00000000000E+00  0.34996269501E-01  0.35000000000E-01  0.51099999109E-03 0. -1.
       11   -1    0    0    0    0 -0.00000000000E+00 -0.00000000000E+00 -0.34996269501E-01  0.35000000000E-01  0.51099999109E-03 0.  1.
       22    1    1    2    0    0  0.57753094190E-02 -0.92928989948E-02 -0.25927571173E-01  0.28141626065E-01  0.00000000000E+00 0.  1.
       22    1    1    2    0    0 -0.20762696853E-02  0.11991386522E-02 -0.71830937356E-02  0.75726920529E-02  0.00000000000E+00 0. -1.
       22    1    1    2    0    0 -0.36990397337E-02  0.80937603425E-02  0.33110664909E-01  0.34285681882E-01  0.00000000000E+00 0. -1.
</event>
<event>
 5   0  0.4146200E+04  0.9118800E+02  0.7546771E-02  0.1180000E+00
      -11   -1    0    0    0    0  0.00000000000E+00  0.00000000000E+00  0.34996269501E-01  0.35000000000E-01  0.51099999109E-03 0. -1.
       11   -1    0    0    0    0 -0.00000000000E+00 -0.00000000000E+00 -0.34996269501E-01  0.35000000000E-01  0.51099999109E-03 0.  1.
       22    1    1    2    0    0  0.79897775359E-03  0.16129494976E-03  0.32895636179E-02  0.33890426831E-02  0.00000000000E+00 0.  1.
       22    1    1    2    0    0  0.11330078212E-01 -0.12179200744E-01 -0.30352485602E-01  0.34611804132E-01  0.00000000000E+00 0.  1.
       22    1    1    2    0    0 -0.12129055965E-01  0.12017905794E-01  0.27062921984E-01  0.31999153185E-01  0.00000000000E+00 0. -1.
</event>
<event>
 5   0  0.4146200E+04  0.9118800E+02  0.7546771E-02  0.1180000E+00
      -11   -1    0    0    0    0  0.00000000000E+00  0.00000000000E+00  0.34996269501E-01  0.35000000000E-01  0.51099999109E-03 0.  1.
       11   -1    0    0    0    0 -0.00000000000E+00 -0.00000000000E+00 -0.34996269501E-01  0.35000000000E-01  0.51099999109E-03 0. -1.
       22    1    1    2    0    0  0.11755698599E-01  0.79956868525E-02 -0.24855816625E-01  0.28634578361E-01  0.00000000000E+00 0. -1.
       22    1    1    2    0    0 -0.22779332642E-02 -0.96663132481E-02 -0.41809883661E-02  0.10775307675E-01  0.00000000000E+00 0.  1.
       22    1    1    2    0    0 -0.94777653346E-02  0.16706263956E-02  0.29036804991E-01  0.30590113965E-01  0.00000000000E+00 0.  1.
</event>
<event>
 5   0  0.4146200E+04  0.9118800E+02  0.7546771E-02  0.1180000E+00
      -11   -1    0    0    0    0  0.00000000000E+00  0.00000000000E+00  0.34996269501E-01  0.35000000000E-01  0.51099999109E-03 0.  1.
       11   -1    0    0    0    0 -0.00000000000E+00 -0.00000000000E+00 -0.34996269501E-01  0.35000000000E-01  0.51099999109E-03 0. -1.
       22    1    1    2    0    0  0.32203469943E-02 -0.18629605775E-02 -0.11884352894E-02  0.39055902645E-02  0.00000000000E+00 0.  1.
       22    1    1    2    0    0  0.18515346671E-01 -0.79670751582E-02  0.25184996149E-01  0.32257966147E-01  0.00000000000E+00 0.  1.
       22    1    1    2    0    0 -0.21735693665E-01  0.98300357356E-02 -0.23996560859E-01  0.33836443589E-01  0.00000000000E+00 0. -1.
</event>
<event>
 5   0  0.4146200E+04  0.9118800E+02  0.7546771E-02  0.1180000E+00
      -11   -1    0    0    0    0  0.00000000000E+00  0.00000000000E+00  0.34996269501E-01  0.35000000000E-01  0.51099999109E-03 0.  1.
       11   -1    0    0    0    0 -0.00000000000E+00 -0.00000000000E+00 -0.34996269501E-01  0.35000000000E-01  0.51099999109E-03 0. -1.
       22    1    1    2    0    0 -0.62810621169E-02 -0.94941316819E-02 -0.32321140215E-01  0.34267278598E-01  0.00000000000E+00 0. -1.
       22    1    1    2    0    0  0.60889411103E-02  0.96508439548E-02  0.33049124793E-01  0.34963676043E-01  0.00000000000E+00 0.  1.
       22    1    1    2    0    0  0.19212100667E-03 -0.15671227295E-03 -0.72798457772E-03  0.76904535828E-03  0.00000000000E+00 0. -1.
</event>
<event>
 5   0  0.4146200E+04  0.9118800E+02  0.7546771E-02  0.1180000E+00
      -11   -1    0    0    0    0  0.00000000000E+00  0.00000000000E+00  0.34996269501E-01  0.35000000000E-01  0.51099999109E-03 0. -1.
       11   -1    0    0    0    0 -0.00000000000E+00 -0.00000000000E+00 -0.34996269501E-01  0.35000000000E-01  0.51099999109E-03 0.  1.
       22    1    1    2    0    0  0.28141134614E-03  0.14160456532E-03 -0.82678198354E-03  0.88476700151E-03  0.00000000000E+00 0.  1.
       22    1    1    2    0    0  0.18953575685E-01 -0.36590625847E-02 -0.28165201019E-01  0.34145355741E-01  0.00000000000E+00 0.  1.
       22    1    1    2    0    0 -0.19234987031E-01  0.35174580194E-02  0.28991983002E-01  0.34969877258E-01  0.00000000000E+00 0. -1.
</event>
<event>
 5   0  0.4146200E+04  0.9118800E+02  0.7546771E-02  0.1180000E+00
      -11   -1    0    0    0    0  0.00000000000E+00  0.00000000000E+00  0.34996269501E-01  0.35000000000E-01  0.51099999109E-03 0.  1.
       11   -1    0    0    0    0 -0.00000000000E+00 -0.00000000000E+00 -0.34996269501E-01  0.35000000000E-01  0.51099999109E-03 0. -1.
       22    1    1    2    0    0  0.72876181270E-02 -0.10159695440E-01 -0.31054557151E-02  0.12883037087E-01  0.00000000000E+00 0.  1.
       22    1    1    2    0    0 -0.59334026062E-03 -0.14307691055E-02  0.28430369086E-01  0.28472531311E-01  0.00000000000E+00 0.  1.
       22    1    1    2    0    0 -0.66942778664E-02  0.11590464545E-01 -0.25324913371E-01  0.28644431601E-01  0.00000000000E+00 0. -1.
</event>
<event>
 5   0  0.4146200E+04  0.9118800E+02  0.7546771E-02  0.1180000E+00
      -11   -1    0    0    0    0  0.00000000000E+00  0.00000000000E+00  0.34996269501E-01  0.35000000000E-01  0.51099999109E-03 0. -1.
       11   -1    0    0    0    0 -0.00000000000E+00 -0.00000000000E+00 -0.34996269501E-01  0.35000000000E-01  0.51099999109E-03 0.  1.
       22    1    1    2    0    0 -0.54294251025E-03 -0.34912528909E-03  0.81070151982E-03  0.10362972504E-02  0.00000000000E+00 0.  1.
       22    1    1    2    0    0  0.96190053047E-03  0.15434623090E-01 -0.31317847366E-01  0.34927931605E-01  0.00000000000E+00 0.  1.
       22    1    1    2    0    0 -0.41895802022E-03 -0.15085497801E-01  0.30507145846E-01  0.34035771145E-01  0.00000000000E+00 0. -1.
</event>
<event>
 5   0  0.4146200E+04  0.9118800E+02  0.7546771E-02  0.1180000E+00
      -11   -1    0    0    0    0  0.00000000000E+00  0.00000000000E+00  0.34996269501E-01  0.35000000000E-01  0.51099999109E-03 0. -1.
       11   -1    0    0    0    0 -0.00000000000E+00 -0.00000000000E+00 -0.34996269501E-01  0.35000000000E-01  0.51099999109E-03 0.  1.
       22    1    1    2    0    0  0.86403854390E-04  0.20644772220E-04 -0.10942105000E-02  0.10978107537E-02  0.00000000000E+00 0. -1.
       22    1    1    2    0    0 -0.18631999337E-01  0.84920074317E-03  0.29538969456E-01  0.34934556784E-01  0.00000000000E+00 0. -1.
       22    1    1    2    0    0  0.18545595483E-01 -0.86984551539E-03 -0.28444758956E-01  0.33967632462E-01  0.00000000000E+00 0.  1.
</event>
<event>
 5   0  0.4146200E+04  0.9118800E+02  0.7546771E-02  0.1180000E+00
      -11   -1    0    0    0    0  0.00000000000E+00  0.00000000000E+00  0.34996269501E-01  0.35000000000E-01  0.51099999109E-03 0.  1.
       11   -1    0    0    0    0 -0.00000000000E+00 -0.00000000000E+00 -0.34996269501E-01  0.35000000000E-01  0.51099999109E-03 0. -1.
       22    1    1    2    0    0 -0.23605246562E-02 -0.22312527421E-02 -0.13559016058E-01  0.13942649745E-01  0.00000000000E+00 0. -1.
       22    1    1    2    0    0 -0.39416106828E-02  0.53888997473E-02  0.33888785781E-01  0.34540213331E-01  0.00000000000E+00 0.  1.
       22    1    1    2    0    0  0.63021353390E-02 -0.31576470052E-02 -0.20329769723E-01  0.21517136924E-01  0.00000000000E+00 0. -1.
</event>
<event>
 5   0  0.4146200E+04  0.9118800E+02  0.7546771E-02  0.1180000E+00
      -11   -1    0    0    0    0  0.00000000000E+00  0.00000000000E+00  0.34996269501E-01  0.35000000000E-01  0.51099999109E-03 0. -1.
       11   -1    0    0    0    0 -0.00000000000E+00 -0.00000000000E+00 -0.34996269501E-01  0.35000000000E-01  0.51099999109E-03 0.  1.
       22    1    1    2    0    0 -0.43140120914E-02  0.20376513282E-04 -0.12057733030E-01  0.12806250089E-01  0.00000000000E+00 0.  1.
       22    1    1    2    0    0 -0.44873402471E-02  0.18704679991E-02  0.33545772129E-01  0.33896219564E-01  0.00000000000E+00 0. -1.
       22    1    1    2    0    0  0.88013523385E-02 -0.18908445123E-02 -0.21488039099E-01  0.23297530347E-01  0.00000000000E+00 0.  1.
</event>
<event>
 5   0  0.4146200E+04  0.9118800E+02  0.7546771E-02  0.1180000E+00
      -11   -1    0    0    0    0  0.00000000000E+00  0.00000000000E+00  0.34996269501E-01  0.35000000000E-01  0.51099999109E-03 0. -1.
       11   -1    0    0    0    0 -0.00000000000E+00 -0.00000000000E+00 -0.34996269501E-01  0.35000000000E-01  0.51099999109E-03 0.  1.
       22    1    1    2    0    0 -0.21187386831E-02 -0.13228327191E-02 -0.22672139207E-01  0.22809314682E-01  0.00000000000E+00 0.  1.
       22    1    1    2    0    0  0.41401709996E-02 -0.90033646703E-04 -0.11864324095E-01  0.12566276624E-01  0.00000000000E+00 0. -1.
       22    1    1    2    0    0 -0.20214323165E-02  0.14128663658E-02  0.34536463302E-01  0.34624408694E-01  0.00000000000E+00 0. -1.
</event>
<event>
 5   0  0.4146200E+04  0.9118800E+02  0.7546771E-02  0.1180000E+00
      -11   -1    0    0    0    0  0.00000000000E+00  0.00000000000E+00  0.34996269501E-01  0.35000000000E-01  0.51099999109E-03 0.  1.
       11   -1    0    0    0    0 -0.00000000000E+00 -0.00000000000E+00 -0.34996269501E-01  0.35000000000E-01  0.51099999109E-03 0. -1.
       22    1    1    2    0    0 -0.73318176386E-03 -0.82512915756E-03 -0.22750564738E-02  0.25286904881E-02  0.00000000000E+00 0.  1.
       22    1    1    2    0    0 -0.11858252419E-02  0.10383741071E-01 -0.31043552410E-01  0.32755616410E-01  0.00000000000E+00 0. -1.
       22    1    1    2    0    0  0.19190070058E-02 -0.95586119137E-02  0.33318608884E-01  0.34715693102E-01  0.00000000000E+00 0.  1.
</event>
<event>
 5   0  0.4146200E+04  0.9118800E+02  0.7546771E-02  0.1180000E+00
      -11   -1    0    0    0    0  0.00000000000E+00  0.00000000000E+00  0.34996269501E-01  0.35000000000E-01  0.51099999109E-03 0.  1.
       11   -1    0    0    0    0 -0.00000000000E+00 -0.00000000000E+00 -0.34996269501E-01  0.35000000000E-01  0.51099999109E-03 0. -1.
       22    1    1    2    0    0 -0.10668781752E-02 -0.68362940792E-03 -0.31386374121E-02  0.33847633615E-02  0.00000000000E+00 0. -1.
       22    1    1    2    0    0 -0.53335224071E-02 -0.18371029428E-02  0.34270899651E-01  0.34732059706E-01  0.00000000000E+00 0.  1.
       22    1    1    2    0    0  0.64004005823E-02  0.25207323508E-02 -0.31132262239E-01  0.31883176933E-01  0.00000000000E+00 0. -1.
</event>
<event>
 5   0  0.4146200E+04  0.9118800E+02  0.7546771E-02  0.1180000E+00
      -11   -1    0    0    0    0  0.00000000000E+00  0.00000000000E+00  0.34996269501E-01  0.35000000000E-01  0.51099999109E-03 0. -1.
       11   -1    0    0    0    0 -0.00000000000E+00 -0.00000000000E+00 -0.34996269501E-01  0.35000000000E-01  0.51099999109E-03 0.  1.
       22    1    1    2    0    0 -0.37994552254E-03 -0.28470019624E-03 -0.13043706386E-02  0.13880906184E-02  0.00000000000E+00 0. -1.
       22    1    1    2    0    0  0.41044265579E-03 -0.10505416876E-02  0.34935784536E-01  0.34953986069E-01  0.00000000000E+00 0. -1.
       22    1    1    2    0    0 -0.30497133245E-04  0.13352418839E-02 -0.33631413897E-01  0.33657923312E-01  0.00000000000E+00 0.  1.
</event>
<event>
 5   0  0.4146200E+04  0.9118800E+02  0.7546771E-02  0.1180000E+00
      -11   -1    0    0    0    0  0.00000000000E+00  0.00000000000E+00  0.34996269501E-01  0.35000000000E-01  0.51099999109E-03 0. -1.
       11   -1    0    0    0    0 -0.00000000000E+00 -0.00000000000E+00 -0.34996269501E-01  0.35000000000E-01  0.51099999109E-03 0.  1.
       22    1    1    2    0    0  0.93937645985E-04  0.30981884964E-03  0.17505522024E-03  0.36804392544E-03  0.00000000000E+00 0.  1.
       22    1    1    2    0    0  0.71970821838E-02  0.17668224270E-01 -0.29104390862E-01  0.34799852130E-01  0.00000000000E+00 0.  1.
       22    1    1    2    0    0 -0.72910198298E-02 -0.17978043120E-01  0.28929335641E-01  0.34832103945E-01  0.00000000000E+00 0. -1.
</event>
<event>
 5   0  0.4146200E+04  0.9118800E+02  0.7546771E-02  0.1180000E+00
      -11   -1    0    0    0    0  0.00000000000E+00  0.00000000000E+00  0.34996269501E-01  0.35000000000E-01  0.51099999109E-03 0. -1.
       11   -1    0    0    0    0 -0.00000000000E+00 -0.00000000000E+00 -0.34996269501E-01  0.35000000000E-01  0.51099999109E-03 0.  1.
       22    1    1    2    0    0  0.92950829463E-02 -0.11171842074E-01 -0.31162944296E-01  0.34385138061E-01  0.00000000000E+00 0.  1.
       22    1    1    2    0    0 -0.10604196206E-01  0.10501884093E-01  0.30590110180E-01  0.34036647712E-01  0.00000000000E+00 0. -1.
       22    1    1    2    0    0  0.13091132593E-02  0.66995798070E-03  0.57283411588E-03  0.15782142269E-02  0.00000000000E+00 0.  1.
</event>
<event>
 5   0  0.4146200E+04  0.9118800E+02  0.7546771E-02  0.1180000E+00
      -11   -1    0    0    0    0  0.00000000000E+00  0.00000000000E+00  0.34996269501E-01  0.35000000000E-01  0.51099999109E-03 0.  1.
       11   -1    0    0    0    0 -0.00000000000E+00 -0.00000000000E+00 -0.34996269501E-01  0.35000000000E-01  0.51099999109E-03 0. -1.
       22    1    1    2    0    0  0.63887458663E-02  0.24777148129E-01 -0.22166933336E-01  0.33854040773E-01  0.00000000000E+00 0. -1.
       22    1    1    2    0    0  0.36841597822E-03  0.25793320587E-03 -0.11741096270E-02  0.12572960224E-02  0.00000000000E+00 0. -1.
       22    1    1    2    0    0 -0.67571618445E-02 -0.25035081335E-01  0.23341042963E-01  0.34888663205E-01  0.00000000000E+00 0.  1.
</event>
<event>
 5   0  0.4146200E+04  0.9118800E+02  0.7546771E-02  0.1180000E+00
      -11   -1    0    0    0    0  0.00000000000E+00  0.00000000000E+00  0.34996269501E-01  0.35000000000E-01  0.51099999109E-03 0.  1.
       11   -1    0    0    0    0 -0.00000000000E+00 -0.00000000000E+00 -0.34996269501E-01  0.35000000000E-01  0.51099999109E-03 0. -1.
       22    1    1    2    0    0  0.85117916341E-02 -0.16860630514E-01  0.29348041940E-01  0.34900415813E-01  0.00000000000E+00 0.  1.
       22    1    1    2    0    0  0.10273194587E-03  0.19916477208E-02 -0.21944593877E-02  0.29652768000E-02  0.00000000000E+00 0. -1.
       22    1    1    2    0    0 -0.86145235800E-02  0.14868982794E-01 -0.27153582553E-01  0.32134307387E-01  0.00000000000E+00 0. -1.
</event>
<event>
 5   0  0.4146200E+04  0.9118800E+02  0.7546771E-02  0.1180000E+00
      -11   -1    0    0    0    0  0.00000000000E+00  0.00000000000E+00  0.34996269501E-01  0.35000000000E-01  0.51099999109E-03 0.  1.
       11   -1    0    0    0    0 -0.00000000000E+00 -0.00000000000E+00 -0.34996269501E-01  0.35000000000E-01  0.51099999109E-03 0.  1.
       22    1    1    2    0    0 -0.53753368243E-03 -0.39584212483E-03 -0.33843592924E-01  0.33850176003E-01  0.00000000000E+00 0.  1.
       22    1    1    2    0    0  0.00000000000E+00  0.00000000000E+00  0.34900499526E-01  0.34899749994E-01  0.00000000000E+00 0.  1.
       22    1    1    2    0    0  0.53753368243E-03  0.39584212483E-03 -0.10569066024E-02  0.12500740033E-02  0.00000000000E+00 0. -1.
</event>
<event>
 5   0  0.4146200E+04  0.9118800E+02  0.7546771E-02  0.1180000E+00
      -11   -1    0    0    0    0  0.00000000000E+00  0.00000000000E+00  0.34996269501E-01  0.35000000000E-01  0.51099999109E-03 0. -1.
       11   -1    0    0    0    0 -0.00000000000E+00 -0.00000000000E+00 -0.34996269501E-01  0.35000000000E-01  0.51099999109E-03 0. -1.
       22    1    1    2    0    0 -0.11218678931E-01  0.63659507360E-02 -0.38749782677E-02  0.13468464734E-01  0.00000000000E+00 0.  1.
       22    1    1    2    0    0 -0.12162761414E-02 -0.16269125034E-02  0.28483249069E-01  0.28555588761E-01  0.00000000000E+00 0. -1.
       22    1    1    2    0    0  0.12434955072E-01 -0.47390382326E-02 -0.24608270801E-01  0.27975946505E-01  0.00000000000E+00 0. -1.
</event>
<event>
 5   0  0.4146200E+04  0.9118800E+02  0.7546771E-02  0.1180000E+00
      -11   -1    0    0    0    0  0.00000000000E+00  0.00000000000E+00  0.34996269501E-01  0.35000000000E-01  0.51099999109E-03 0. -1.
       11   -1    0    0    0    0 -0.00000000000E+00 -0.00000000000E+00 -0.34996269501E-01  0.35000000000E-01  0.51099999109E-03 0.  1.
       22    1    1    2    0    0 -0.10705476707E-02  0.17621194707E-01 -0.29842753307E-01  0.34673368745E-01  0.00000000000E+00 0.  1.
       22    1    1    2    0    0  0.11659387062E-02 -0.26473464576E-03  0.41636921135E-02  0.43319544683E-02  0.00000000000E+00 0. -1.
       22    1    1    2    0    0 -0.95391035481E-04 -0.17356460061E-01  0.25679061194E-01  0.30994676786E-01  0.00000000000E+00 0. -1.
</event>
<event>
 5   0  0.4146200E+04  0.9118800E+02  0.7546771E-02  0.1180000E+00
      -11   -1    0    0    0    0  0.00000000000E+00  0.00000000000E+00  0.34996269501E-01  0.35000000000E-01  0.51099999109E-03 0.  1.
       11   -1    0    0    0    0 -0.00000000000E+00 -0.00000000000E+00 -0.34996269501E-01  0.35000000000E-01  0.51099999109E-03 0. -1.
       22    1    1    2    0    0 -0.10263970834E-01 -0.16957224416E-01  0.23552389297E-01  0.30783300648E-01  0.00000000000E+00 0.  1.
       22    1    1    2    0    0  0.11193270238E-01  0.86570519554E-02  0.81297412071E-04  0.14150634489E-01  0.00000000000E+00 0. -1.
       22    1    1    2    0    0 -0.92929940337E-03  0.83001724604E-02 -0.23633686709E-01  0.25066064863E-01  0.00000000000E+00 0. -1.
</event>
<event>
 5   0  0.4146200E+04  0.9118800E+02  0.7546771E-02  0.1180000E+00
      -11   -1    0    0    0    0  0.00000000000E+00  0.00000000000E+00  0.34996269501E-01  0.35000000000E-01  0.51099999109E-03 0. -1.
       11   -1    0    0    0    0 -0.00000000000E+00 -0.00000000000E+00 -0.34996269501E-01  0.35000000000E-01  0.51099999109E-03 0.  1.
       22    1    1    2    0    0 -0.18520444184E-02  0.13159622846E-01  0.27158381400E-01  0.30235466297E-01  0.00000000000E+00 0. -1.
       22    1    1    2    0    0  0.57698705549E-03 -0.78233948087E-03  0.50988418762E-02  0.51906798788E-02  0.00000000000E+00 0.  1.
       22    1    1    2    0    0  0.12750573629E-02 -0.12377283365E-01 -0.32257223276E-01  0.34573853824E-01  0.00000000000E+00 0.  1.
</event>
<event>
 5   0  0.4146200E+04  0.9118800E+02  0.7546771E-02  0.1180000E+00
      -11   -1    0    0    0    0  0.00000000000E+00  0.00000000000E+00  0.34996269501E-01  0.35000000000E-01  0.51099999109E-03 0. -1.
       11   -1    0    0    0    0 -0.00000000000E+00 -0.00000000000E+00 -0.34996269501E-01  0.35000000000E-01  0.51099999109E-03 0.  1.
       22    1    1    2    0    0  0.13035893697E-02  0.54779035337E-03  0.33735852742E-01  0.33765473190E-01  0.00000000000E+00 0. -1.
       22    1    1    2    0    0 -0.63987778179E-02 -0.13467795481E-02 -0.10023789447E-01  0.11968062817E-01  0.00000000000E+00 0. -1.
       22    1    1    2    0    0  0.50951884482E-02  0.79898919476E-03 -0.23712063295E-01  0.24266463994E-01  0.00000000000E+00 0.  1.
</event>
<event>
 5   0  0.4146200E+04  0.9118800E+02  0.7546771E-02  0.1180000E+00
      -11   -1    0    0    0    0  0.00000000000E+00  0.00000000000E+00  0.34996269501E-01  0.35000000000E-01  0.51099999109E-03 0.  1.
       11   -1    0    0    0    0 -0.00000000000E+00 -0.00000000000E+00 -0.34996269501E-01  0.35000000000E-01  0.51099999109E-03 0. -1.
       22    1    1    2    0    0  0.10468156837E-03 -0.29861474138E-04  0.14017374771E-02  0.14059579983E-02  0.00000000000E+00 0.  1.
       22    1    1    2    0    0 -0.16034638245E-01  0.23374446342E-02  0.29553305167E-01  0.33704170623E-01  0.00000000000E+00 0.  1.
       22    1    1    2    0    0  0.15929956677E-01 -0.23075831601E-02 -0.30955042644E-01  0.34889871379E-01  0.00000000000E+00 0. -1.
</event>
<event>
 5   0  0.4146200E+04  0.9118800E+02  0.7546771E-02  0.1180000E+00
      -11   -1    0    0    0    0  0.00000000000E+00  0.00000000000E+00  0.34996269501E-01  0.35000000000E-01  0.51099999109E-03 0. -1.
       11   -1    0    0    0    0 -0.00000000000E+00 -0.00000000000E+00 -0.34996269501E-01  0.35000000000E-01  0.51099999109E-03 0.  1.
       22    1    1    2    0    0 -0.21375608798E-03 -0.32376539359E-03 -0.25712464906E-03  0.46543396996E-03  0.00000000000E+00 0.  1.
       22    1    1    2    0    0 -0.10739476882E-01  0.92841709728E-02 -0.31618279612E-01  0.34659021913E-01  0.00000000000E+00 0.  1.
       22    1    1    2    0    0  0.10953232970E-01 -0.89604055793E-02  0.31875404261E-01  0.34875544117E-01  0.00000000000E+00 0. -1.
</event>
<event>
 5   0  0.4146200E+04  0.9118800E+02  0.7546771E-02  0.1180000E+00
      -11   -1    0    0    0    0  0.00000000000E+00  0.00000000000E+00  0.34996269501E-01  0.35000000000E-01  0.51099999109E-03 0.  1.
       11   -1    0    0    0    0 -0.00000000000E+00 -0.00000000000E+00 -0.34996269501E-01  0.35000000000E-01  0.51099999109E-03 0. -1.
       22    1    1    2    0    0  0.21998350705E-04  0.92226371457E-04  0.34791878087E-02  0.34804794841E-02  0.00000000000E+00 0.  1.
       22    1    1    2    0    0 -0.11736453318E-01  0.11012609439E-01  0.27342191391E-01  0.31727233305E-01  0.00000000000E+00 0.  1.
       22    1    1    2    0    0  0.11714454967E-01 -0.11104835811E-01 -0.30821379200E-01  0.34792287211E-01  0.00000000000E+00 0. -1.
</event>
<event>
 5   0  0.4146200E+04  0.9118800E+02  0.7546771E-02  0.1180000E+00
      -11   -1    0    0    0    0  0.00000000000E+00  0.00000000000E+00  0.34996269501E-01  0.35000000000E-01  0.51099999109E-03 0.  1.
       11   -1    0    0    0    0 -0.00000000000E+00 -0.00000000000E+00 -0.34996269501E-01  0.35000000000E-01  0.51099999109E-03 0. -1.
       22    1    1    2    0    0 -0.47156973822E-03 -0.35921817925E-03 -0.11366019957E-02  0.12819047605E-02  0.00000000000E+00 0.  1.
       22    1    1    2    0    0 -0.14715059527E-02  0.27876265659E-02 -0.33647701873E-01  0.33795029708E-01  0.00000000000E+00 0. -1.
       22    1    1    2    0    0  0.19430756909E-02 -0.24284083866E-02  0.34784303869E-01  0.34923065531E-01  0.00000000000E+00 0.  1.
</event>
<event>
 5   0  0.4146200E+04  0.9118800E+02  0.7546771E-02  0.1180000E+00
      -11   -1    0    0    0    0  0.00000000000E+00  0.00000000000E+00  0.34996269501E-01  0.35000000000E-01  0.51099999109E-03 0.  1.
       11   -1    0    0    0    0 -0.00000000000E+00 -0.00000000000E+00 -0.34996269501E-01  0.35000000000E-01  0.51099999109E-03 0. -1.
       22    1    1    2    0    0  0.89259358869E-02  0.69533028242E-02 -0.32557574217E-01  0.34467613647E-01  0.00000000000E+00 0. -1.
       22    1    1    2    0    0  0.61886751560E-04 -0.35559506656E-03 -0.51620145347E-03  0.62987440172E-03  0.00000000000E+00 0.  1.
       22    1    1    2    0    0 -0.89878226384E-02 -0.65977077576E-02  0.33073775670E-01  0.34902511951E-01  0.00000000000E+00 0.  1.
</event>
<event>
 5   0  0.4146200E+04  0.9118800E+02  0.7546771E-02  0.1180000E+00
      -11   -1    0    0    0    0  0.00000000000E+00  0.00000000000E+00  0.34996269501E-01  0.35000000000E-01  0.51099999109E-03 0.  1.
       11   -1    0    0    0    0 -0.00000000000E+00 -0.00000000000E+00 -0.34996269501E-01  0.35000000000E-01  0.51099999109E-03 0. -1.
       22    1    1    2    0    0  0.17324427269E-01  0.85824543955E-02  0.27931472764E-01  0.33970008455E-01  0.00000000000E+00 0.  1.
       22    1    1    2    0    0 -0.17365961890E-01 -0.86734772660E-02 -0.29032686155E-01  0.34924242378E-01  0.00000000000E+00 0. -1.
       22    1    1    2    0    0  0.41534620823E-04  0.91022870547E-04  0.11012133914E-02  0.11057491673E-02  0.00000000000E+00 0.  1.
</event>
<event>
 5   0  0.4146200E+04  0.9118800E+02  0.7546771E-02  0.1180000E+00
      -11   -1    0    0    0    0  0.00000000000E+00  0.00000000000E+00  0.34996269501E-01  0.35000000000E-01  0.51099999109E-03 0.  1.
       11   -1    0    0    0    0 -0.00000000000E+00 -0.00000000000E+00 -0.34996269501E-01  0.35000000000E-01  0.51099999109E-03 0. -1.
       22    1    1    2    0    0  0.46379643291E-03 -0.20948817084E-03 -0.31673020531E-02  0.32079268571E-02  0.00000000000E+00 0. -1.
       22    1    1    2    0    0  0.68014538476E-02 -0.89161147345E-02  0.32950313742E-01  0.34806322014E-01  0.00000000000E+00 0.  1.
       22    1    1    2    0    0 -0.72652502805E-02  0.91256029054E-02 -0.29783011689E-01  0.31985751129E-01  0.00000000000E+00 0. -1.
</event>
<event>
 5   0  0.4146200E+04  0.9118800E+02  0.7546771E-02  0.1180000E+00
      -11   -1    0    0    0    0  0.00000000000E+00  0.00000000000E+00  0.34996269501E-01  0.35000000000E-01  0.51099999109E-03 0.  1.
       11   -1    0    0    0    0 -0.00000000000E+00 -0.00000000000E+00 -0.34996269501E-01  0.35000000000E-01  0.51099999109E-03 0.  1.
       22    1    1    2    0    0  0.29289526349E-02 -0.10739326393E-02 -0.33170686933E-02  0.45535743726E-02  0.00000000000E+00 0. -1.
       22    1    1    2    0    0 -0.33603900800E-03  0.58436700721E-03 -0.31010381002E-01  0.31017706828E-01  0.00000000000E+00 0.  1.
       22    1    1    2    0    0 -0.25929136269E-02  0.48956563208E-03  0.34327449695E-01  0.34428718799E-01  0.00000000000E+00 0.  1.
</event>
</LesHouchesEvents>
